<event>
 8    1  0.1244838E-006  0.9118800E+02  0.7816164E-02  0.1184000E+00
        -11   -1    0    0    0    0  0.00000000000E+00  0.00000000000E+00  0.45593999997E+02  0.45594000000E+02  0.51100000000E-03 0.  1.
         11   -1    0    0    0    0 -0.00000000000E+00 -0.00000000000E+00 -0.45593999997E+02  0.45594000000E+02  0.51100000000E-03 0. -1.
         23    2    1    2    0    0 -0.17763568394E-14  0.53290705182E-14  0.00000000000E+00  0.91188000000E+02  0.91188000000E+02 0.  0.
    9900012    2    3    3    0    0  0.10506420571E+02  0.12071735201E+02  0.33161235244E+02  0.54367093073E+02  0.40000020279E+02 0.  0.
         12    1    3    3    0    0 -0.10506420571E+02 -0.12071735201E+02 -0.33161235244E+02  0.36820906927E+02  0.00000000000E+00 0. -1.
         11    1    4    4    0    0 -0.92506501824E+00  0.48038374895E+00  0.43606918235E+00  0.11298984145E+01  0.51100000000E-03 0. -1.
        -11    1    4    4    0    0  0.17565152251E+02 -0.29908691032E+01  0.10710754232E+01  0.17850128135E+02  0.51100000000E-03 0.  1.
        -12    1    4    4    0    0 -0.61336666616E+01  0.14582220555E+02  0.31654090639E+02  0.35387066524E+02  0.00000000000E+00 0.  1.
</event>
<event>
 8    1  0.1244838E-006  0.9118800E+02  0.7816164E-02  0.1184000E+00
        -11   -1    0    0    0    0  0.00000000000E+00  0.00000000000E+00  0.45593999997E+02  0.45594000000E+02  0.51100000000E-03 0.  1.
         11   -1    0    0    0    0 -0.00000000000E+00 -0.00000000000E+00 -0.45593999997E+02  0.45594000000E+02  0.51100000000E-03 0. -1.
         23    2    1    2    0    0  0.00000000000E+00 -0.35527136788E-14  0.35527136788E-14  0.91188000000E+02  0.91188000000E+02 0.  0.
    9900012    2    3    3    0    0 -0.21495708641E+02  0.19998555205E+02 -0.22220966215E+02  0.54367095071E+02  0.40000024834E+02 0.  0.
        -12    1    3    3    0    0  0.21495708641E+02 -0.19998555205E+02  0.22220966215E+02  0.36820904929E+02  0.00000000000E+00 0.  1.
         11    1    4    4    0    0 -0.29437473896E+02  0.10631077840E+02 -0.93019467000E+01  0.32651353695E+02  0.51100000000E-03 0. -1.
        -11    1    4    4    0    0  0.94508753129E+01  0.47112418936E+01 -0.13089435635E+02  0.16818090553E+02  0.51100000000E-03 0.  1.
        -12    1    4    4    0    0 -0.15091100578E+01  0.46562354714E+01  0.17041611990E+00  0.48976508231E+01  0.00000000000E+00 0.  1.
</event>
<event>
 8    1  0.1244838E-006  0.9118800E+02  0.7816164E-02  0.1184000E+00
        -11   -1    0    0    0    0  0.00000000000E+00  0.00000000000E+00  0.45593999997E+02  0.45594000000E+02  0.51100000000E-03 0.  1.
         11   -1    0    0    0    0 -0.00000000000E+00 -0.00000000000E+00 -0.45593999997E+02  0.45594000000E+02  0.51100000000E-03 0. -1.
         23    2    1    2    0    0  0.00000000000E+00  0.71054273576E-14  0.00000000000E+00  0.91188000000E+02  0.91188000000E+02 0.  0.
    9900012    2    3    3    0    0 -0.11611880348E+02 -0.34617330345E+02 -0.47522712769E+01  0.54367090075E+02  0.40000013444E+02 0.  0.
         12    1    3    3    0    0  0.11611880348E+02  0.34617330345E+02  0.47522712769E+01  0.36820909925E+02  0.00000000000E+00 0. -1.
         11    1    4    4    0    0 -0.73506004393E+01 -0.34961328769E+02 -0.97095166011E+01  0.37021622723E+02  0.51100000000E-03 0. -1.
        -11    1    4    4    0    0  0.31608731204E+01 -0.51111442730E+01  0.54613795740E+01  0.81204422155E+01  0.51100000000E-03 0.  1.
         12    1    4    4    0    0 -0.74221530289E+01  0.54551426975E+01 -0.50413424983E+00  0.92250251369E+01  0.00000000000E+00 0. -1.
</event>
<event>
 8    1  0.1244838E-006  0.9118800E+02  0.7816164E-02  0.1184000E+00
        -11   -1    0    0    0    0  0.00000000000E+00  0.00000000000E+00  0.45593999997E+02  0.45594000000E+02  0.51100000000E-03 0. -1.
         11   -1    0    0    0    0 -0.00000000000E+00 -0.00000000000E+00 -0.45593999997E+02  0.45594000000E+02  0.51100000000E-03 0.  1.
         23    2    1    2    0    0  0.26645352591E-14  0.00000000000E+00 -0.88817841970E-15  0.91188000000E+02  0.91188000000E+02 0.  0.
    9900012    2    3    3    0    0 -0.30446287888E+01  0.36137247268E+02  0.63722599626E+01  0.54367134970E+02  0.40000115790E+02 0.  0.
        -12    1    3    3    0    0  0.30446287888E+01 -0.36137247268E+02 -0.63722599626E+01  0.36820865030E+02  0.00000000000E+00 0.  1.
         11    1    4    4    0    0  0.21804600335E+01 -0.34522339521E+00 -0.38472133402E+00  0.22408917681E+01  0.51100000000E-03 0. -1.
        -11    1    4    4    0    0 -0.17263079631E+02  0.15360325438E+02  0.13673402029E+02  0.26849868514E+02  0.51100000000E-03 0.  1.
        -12    1    4    4    0    0  0.12037990808E+02  0.21122145225E+02 -0.69164207325E+01  0.25276374688E+02  0.00000000000E+00 0.  1.
</event>
<event>
 8    1  0.1244838E-006  0.9118800E+02  0.7816164E-02  0.1184000E+00
        -11   -1    0    0    0    0  0.00000000000E+00  0.00000000000E+00  0.45593999997E+02  0.45594000000E+02  0.51100000000E-03 0.  1.
         11   -1    0    0    0    0 -0.00000000000E+00 -0.00000000000E+00 -0.45593999997E+02  0.45594000000E+02  0.51100000000E-03 0. -1.
         23    2    1    2    0    0  0.00000000000E+00  0.17763568394E-14  0.00000000000E+00  0.91188000000E+02  0.91188000000E+02 0.  0.
    9900012    2    3    3    0    0 -0.18298547771E+02  0.54406781303E+01  0.31485598052E+02  0.54367072341E+02  0.39999973015E+02 0.  0.
         12    1    3    3    0    0  0.18298547771E+02 -0.54406781303E+01 -0.31485598052E+02  0.36820927659E+02  0.00000000000E+00 0. -1.
         11    1    4    4    0    0  0.25022839134E+01 -0.17140773289E+00 -0.60354431007E+00  0.25797425045E+01  0.51100000000E-03 0. -1.
        -11    1    4    4    0    0 -0.83093551034E+01 -0.14079504175E+02  0.77931884412E+01  0.18111090701E+02  0.51100000000E-03 0.  1.
         12    1    4    4    0    0 -0.12491476581E+02  0.19691590038E+02  0.24295953921E+02  0.33676239135E+02  0.00000000000E+00 0. -1.
</event>
<event>
 8    1  0.1244838E-006  0.9118800E+02  0.7816164E-02  0.1184000E+00
        -11   -1    0    0    0    0  0.00000000000E+00  0.00000000000E+00  0.45593999997E+02  0.45594000000E+02  0.51100000000E-03 0.  1.
         11   -1    0    0    0    0 -0.00000000000E+00 -0.00000000000E+00 -0.45593999997E+02  0.45594000000E+02  0.51100000000E-03 0. -1.
         23    2    1    2    0    0  0.00000000000E+00  0.00000000000E+00 -0.35527136788E-14  0.91188000000E+02  0.91188000000E+02 0.  0.
    9900012    2    3    3    0    0 -0.16051146810E+02  0.21289529416E+02  0.25394783782E+02  0.54367103487E+02  0.40000044020E+02 0.  0.
         12    1    3    3    0    0  0.16051146810E+02 -0.21289529416E+02 -0.25394783782E+02  0.36820896513E+02  0.00000000000E+00 0. -1.
         11    1    4    4    0    0  0.29429841259E+01 -0.58292480754E+01  0.10717840822E+02  0.12550434289E+02  0.51100000000E-03 0. -1.
        -11    1    4    4    0    0 -0.16159690187E+02  0.51270834309E+01  0.71613221248E+01  0.18403997020E+02  0.51100000000E-03 0.  1.
        -12    1    4    4    0    0 -0.28344407485E+01  0.21991694061E+02  0.75156208348E+01  0.23412672179E+02  0.00000000000E+00 0.  1.
</event>
<event>
 8    1  0.1244838E-006  0.9118800E+02  0.7816164E-02  0.1184000E+00
        -11   -1    0    0    0    0  0.00000000000E+00  0.00000000000E+00  0.45593999997E+02  0.45594000000E+02  0.51100000000E-03 0.  1.
         11   -1    0    0    0    0 -0.00000000000E+00 -0.00000000000E+00 -0.45593999997E+02  0.45594000000E+02  0.51100000000E-03 0. -1.
         23    2    1    2    0    0 -0.71054273576E-14  0.00000000000E+00 -0.44408920985E-15  0.91188000000E+02  0.91188000000E+02 0.  0.
    9900012    2    3    3    0    0 -0.36306786499E+02 -0.51229728845E+01 -0.33692622076E+01  0.54367088484E+02  0.40000009817E+02 0.  0.
         12    1    3    3    0    0  0.36306786499E+02  0.51229728845E+01  0.33692622076E+01  0.36820911516E+02  0.00000000000E+00 0. -1.
         11    1    4    4    0    0 -0.14569752172E+02 -0.84667352851E+01 -0.96986615952E+01  0.19442924722E+02  0.51100000000E-03 0. -1.
        -11    1    4    4    0    0 -0.23323788057E+02 -0.10231606709E+01 -0.39179365670E+01  0.23672688362E+02  0.51100000000E-03 0.  1.
         12    1    4    4    0    0  0.15867537299E+01  0.43669230715E+01  0.10247335955E+02  0.11251475400E+02  0.00000000000E+00 0. -1.
</event>
<event>
 8    1  0.1244838E-006  0.9118800E+02  0.7816164E-02  0.1184000E+00
        -11   -1    0    0    0    0  0.00000000000E+00  0.00000000000E+00  0.45593999997E+02  0.45594000000E+02  0.51100000000E-03 0.  1.
         11   -1    0    0    0    0 -0.00000000000E+00 -0.00000000000E+00 -0.45593999997E+02  0.45594000000E+02  0.51100000000E-03 0. -1.
         23    2    1    2    0    0  0.35527136788E-14  0.35527136788E-14 -0.88817841970E-15  0.91188000000E+02  0.91188000000E+02 0.  0.
    9900012    2    3    3    0    0  0.23671235197E+02  0.27574003422E+02  0.59268382025E+01  0.54367075900E+02  0.39999981130E+02 0.  0.
         12    1    3    3    0    0 -0.23671235197E+02 -0.27574003422E+02 -0.59268382025E+01  0.36820924100E+02  0.00000000000E+00 0. -1.
         11    1    4    4    0    0  0.99147524787E+01  0.83660458222E+01  0.27468480808E+01  0.13260400222E+02  0.51100000000E-03 0. -1.
        -11    1    4    4    0    0  0.19715284558E+02  0.25662988524E+01  0.98824881617E+01  0.22202295096E+02  0.51100000000E-03 0.  1.
         12    1    4    4    0    0 -0.59588018390E+01  0.16641658747E+02 -0.67024980400E+01  0.18904380582E+02  0.00000000000E+00 0. -1.
</event>
<event>
 8    1  0.1244838E-006  0.9118800E+02  0.7816164E-02  0.1184000E+00
        -11   -1    0    0    0    0  0.00000000000E+00  0.00000000000E+00  0.45593999997E+02  0.45594000000E+02  0.51100000000E-03 0.  1.
         11   -1    0    0    0    0 -0.00000000000E+00 -0.00000000000E+00 -0.45593999997E+02  0.45594000000E+02  0.51100000000E-03 0. -1.
         23    2    1    2    0    0  0.00000000000E+00  0.35527136788E-14  0.00000000000E+00  0.91188000000E+02  0.91188000000E+02 0.  0.
    9900012    2    3    3    0    0 -0.11602213988E+02  0.29170803121E+02  0.19241442723E+02  0.54367078743E+02  0.39999987611E+02 0.  0.
         12    1    3    3    0    0  0.11602213988E+02 -0.29170803121E+02 -0.19241442723E+02  0.36820921257E+02  0.00000000000E+00 0. -1.
         11    1    4    4    0    0 -0.53153538550E+00 -0.41984049104E+01 -0.51990264701E+01  0.67036564766E+01  0.51100000000E-03 0. -1.
        -11    1    4    4    0    0 -0.79695956790E-01  0.26366752805E+02  0.99682018588E+01  0.28188243179E+02  0.51100000000E-03 0.  1.
         12    1    4    4    0    0 -0.10990982646E+02  0.70024552262E+01  0.14472267334E+02  0.19475179088E+02  0.00000000000E+00 0. -1.
</event>
<event>
 8    1  0.1244838E-006  0.9118800E+02  0.7816164E-02  0.1184000E+00
        -11   -1    0    0    0    0  0.00000000000E+00  0.00000000000E+00  0.45593999997E+02  0.45594000000E+02  0.51100000000E-03 0.  1.
         11   -1    0    0    0    0 -0.00000000000E+00 -0.00000000000E+00 -0.45593999997E+02  0.45594000000E+02  0.51100000000E-03 0. -1.
         23    2    1    2    0    0 -0.71054273576E-14  0.00000000000E+00  0.00000000000E+00  0.91188000000E+02  0.91188000000E+02 0.  0.
    9900012    2    3    3    0    0  0.32766126032E+02  0.74172863620E+01  0.15071135290E+02  0.54367159827E+02  0.40000172458E+02 0.  0.
         12    1    3    3    0    0 -0.32766126032E+02 -0.74172863620E+01 -0.15071135290E+02  0.36820840173E+02  0.00000000000E+00 0. -1.
         11    1    4    4    0    0  0.19865091600E+01 -0.10673398647E+02  0.76430339634E+01  0.13277184406E+02  0.51100000000E-03 0. -1.
        -11    1    4    4    0    0  0.10029617351E+02  0.16817616037E+02  0.45471320609E+01  0.20102284537E+02  0.51100000000E-03 0.  1.
         12    1    4    4    0    0  0.20749999521E+02  0.12730689723E+01  0.28809692654E+01  0.20987690883E+02  0.00000000000E+00 0. -1.
</event>
<event>
 8    1  0.1244838E-006  0.9118800E+02  0.7816164E-02  0.1184000E+00
        -11   -1    0    0    0    0  0.00000000000E+00  0.00000000000E+00  0.45593999997E+02  0.45594000000E+02  0.51100000000E-03 0.  1.
         11   -1    0    0    0    0 -0.00000000000E+00 -0.00000000000E+00 -0.45593999997E+02  0.45594000000E+02  0.51100000000E-03 0. -1.
         23    2    1    2    0    0  0.17763568394E-14 -0.17763568394E-14  0.00000000000E+00  0.91188000000E+02  0.91188000000E+02 0.  0.
    9900012    2    3    3    0    0  0.13526677823E+02 -0.70698525431E+01  0.33508584156E+02  0.54367095068E+02  0.40000024826E+02 0.  0.
         12    1    3    3    0    0 -0.13526677823E+02  0.70698525431E+01 -0.33508584156E+02  0.36820904932E+02  0.00000000000E+00 0. -1.
         11    1    4    4    0    0 -0.35023381167E+01 -0.10525538306E+01  0.71567498136E+00  0.37264504277E+01  0.51100000000E-03 0. -1.
        -11    1    4    4    0    0 -0.71315419171E+01  0.78711326715E+01  0.10713319894E+02  0.15086047960E+02  0.51100000000E-03 0.  1.
        -12    1    4    4    0    0  0.24160557857E+02 -0.13888431384E+02  0.22079589281E+02  0.35554596680E+02  0.00000000000E+00 0.  1.
</event>
<event>
 8    1  0.1244838E-006  0.9118800E+02  0.7816164E-02  0.1184000E+00
        -11   -1    0    0    0    0  0.00000000000E+00  0.00000000000E+00  0.45593999997E+02  0.45594000000E+02  0.51100000000E-03 0.  1.
         11   -1    0    0    0    0 -0.00000000000E+00 -0.00000000000E+00 -0.45593999997E+02  0.45594000000E+02  0.51100000000E-03 0. -1.
         23    2    1    2    0    0  0.00000000000E+00  0.00000000000E+00  0.88817841970E-15  0.91188000000E+02  0.91188000000E+02 0.  0.
    9900012    2    3    3    0    0  0.16779410161E+02  0.31976590308E+02  0.71923644390E+01  0.54367067919E+02  0.39999962934E+02 0.  0.
         12    1    3    3    0    0 -0.16779410161E+02 -0.31976590308E+02 -0.71923644390E+01  0.36820932081E+02  0.00000000000E+00 0. -1.
         11    1    4    4    0    0  0.10042515119E+02  0.74023974508E+01 -0.28409991372E+01  0.12795267653E+02  0.51100000000E-03 0. -1.
        -11    1    4    4    0    0 -0.32088228255E+01 -0.50124393116E+01  0.84272378824E+01  0.10316948694E+02  0.51100000000E-03 0.  1.
         12    1    4    4    0    0  0.99457178673E+01  0.29586632169E+02  0.16061256939E+01  0.31254851572E+02  0.00000000000E+00 0. -1.
</event>
<event>
 8    1  0.1244838E-006  0.9118800E+02  0.7816164E-02  0.1184000E+00
        -11   -1    0    0    0    0  0.00000000000E+00  0.00000000000E+00  0.45593999997E+02  0.45594000000E+02  0.51100000000E-03 0.  1.
         11   -1    0    0    0    0 -0.00000000000E+00 -0.00000000000E+00 -0.45593999997E+02  0.45594000000E+02  0.51100000000E-03 0. -1.
         23    2    1    2    0    0  0.71054273576E-14 -0.17763568394E-14 -0.44408920985E-15  0.91188000000E+02  0.91188000000E+02 0.  0.
    9900012    2    3    3    0    0  0.36063522201E+02 -0.67540543751E+01 -0.30959957736E+01  0.54367081029E+02  0.39999992821E+02 0.  0.
         12    1    3    3    0    0 -0.36063522201E+02  0.67540543751E+01  0.30959957736E+01  0.36820918971E+02  0.00000000000E+00 0. -1.
         11    1    4    4    0    0  0.37414129079E+02  0.39941178969E+01  0.37113804601E+01  0.37809316018E+02  0.51100000000E-03 0. -1.
        -11    1    4    4    0    0  0.10412856550E+01 -0.24302323425E+01  0.26461544926E+01  0.37406468577E+01  0.51100000000E-03 0.  1.
         12    1    4    4    0    0 -0.23918925332E+01 -0.83179399295E+01 -0.94535307263E+01  0.12817118153E+02  0.00000000000E+00 0. -1.
</event>
<event>
 8    1  0.1244838E-006  0.9118800E+02  0.7816164E-02  0.1184000E+00
        -11   -1    0    0    0    0  0.00000000000E+00  0.00000000000E+00  0.45593999997E+02  0.45594000000E+02  0.51100000000E-03 0.  1.
         11   -1    0    0    0    0 -0.00000000000E+00 -0.00000000000E+00 -0.45593999997E+02  0.45594000000E+02  0.51100000000E-03 0. -1.
         23    2    1    2    0    0  0.00000000000E+00  0.00000000000E+00 -0.35527136788E-14  0.91188000000E+02  0.91188000000E+02 0.  0.
    9900012    2    3    3    0    0 -0.47815002688E+01 -0.19294128257E+02  0.30994436514E+02  0.54367065399E+02  0.39999957191E+02 0.  0.
         12    1    3    3    0    0  0.47815002688E+01  0.19294128257E+02 -0.30994436514E+02  0.36820934601E+02  0.00000000000E+00 0. -1.
         11    1    4    4    0    0  0.54712614286E+01 -0.41428983091E+01  0.11052409276E+01  0.69512492251E+01  0.51100000000E-03 0. -1.
        -11    1    4    4    0    0 -0.79206287123E+01 -0.17721751068E+02  0.35706528276E+02  0.40641764011E+02  0.51100000000E-03 0.  1.
        -12    1    4    4    0    0 -0.23321329851E+01  0.25705211202E+01 -0.58173326895E+01  0.67740521632E+01  0.00000000000E+00 0.  1.
</event>
<event>
 8    1  0.1244838E-006  0.9118800E+02  0.7816164E-02  0.1184000E+00
        -11   -1    0    0    0    0  0.00000000000E+00  0.00000000000E+00  0.45593999997E+02  0.45594000000E+02  0.51100000000E-03 0. -1.
         11   -1    0    0    0    0 -0.00000000000E+00 -0.00000000000E+00 -0.45593999997E+02  0.45594000000E+02  0.51100000000E-03 0.  1.
         23    2    1    2    0    0 -0.71054273576E-14  0.00000000000E+00  0.44408920985E-15  0.91188000000E+02  0.91188000000E+02 0.  0.
    9900012    2    3    3    0    0  0.36648002318E+02  0.34139438547E+01  0.10237548077E+01  0.54367093432E+02  0.40000021097E+02 0.  0.
        -12    1    3    3    0    0 -0.36648002318E+02 -0.34139438547E+01 -0.10237548077E+01  0.36820906568E+02  0.00000000000E+00 0.  1.
         11    1    4    4    0    0 -0.41940493879E+01  0.16118095887E+00  0.35219251820E+00  0.42118961764E+01  0.51100000000E-03 0. -1.
        -11    1    4    4    0    0  0.23767289699E+01  0.13102784225E+01 -0.98601761014E+01  0.10226863798E+02  0.51100000000E-03 0.  1.
         12    1    4    4    0    0  0.38465322736E+02  0.19424844733E+01  0.10531738391E+02  0.39928333457E+02  0.00000000000E+00 0. -1.
</event>
<event>
 8    1  0.1244838E-006  0.9118800E+02  0.7816164E-02  0.1184000E+00
        -11   -1    0    0    0    0  0.00000000000E+00  0.00000000000E+00  0.45593999997E+02  0.45594000000E+02  0.51100000000E-03 0.  1.
         11   -1    0    0    0    0 -0.00000000000E+00 -0.00000000000E+00 -0.45593999997E+02  0.45594000000E+02  0.51100000000E-03 0. -1.
         23    2    1    2    0    0  0.00000000000E+00  0.35527136788E-14  0.00000000000E+00  0.91188000000E+02  0.91188000000E+02 0.  0.
    9900012    2    3    3    0    0  0.95385862702E+01  0.24240247488E+02  0.26023170879E+02  0.54367086800E+02  0.40000005977E+02 0.  0.
         12    1    3    3    0    0 -0.95385862702E+01 -0.24240247488E+02 -0.26023170879E+02  0.36820913200E+02  0.00000000000E+00 0. -1.
         11    1    4    4    0    0 -0.95928261272E+01  0.49433918167E+01  0.77563214580E+01  0.13289844190E+02  0.51100000000E-03 0.  1.
        -11    1    4    4    0    0  0.13538450669E+02 -0.25658356291E+01  0.38826564146E+01  0.14316011319E+02  0.51100000000E-03 0. -1.
        -12    1    4    4    0    0  0.55929617287E+01  0.21862691300E+02  0.14384193006E+02  0.26761231291E+02  0.00000000000E+00 0.  1.
</event>
<event>
 8    1  0.1244838E-006  0.9118800E+02  0.7816164E-02  0.1184000E+00
        -11   -1    0    0    0    0  0.00000000000E+00  0.00000000000E+00  0.45593999997E+02  0.45594000000E+02  0.51100000000E-03 0.  1.
         11   -1    0    0    0    0 -0.00000000000E+00 -0.00000000000E+00 -0.45593999997E+02  0.45594000000E+02  0.51100000000E-03 0. -1.
         23    2    1    2    0    0  0.00000000000E+00  0.71054273576E-14  0.17763568394E-14  0.91188000000E+02  0.91188000000E+02 0.  0.
    9900012    2    3    3    0    0 -0.10010254511E+02  0.32288131073E+02  0.14596233952E+02  0.54367100375E+02  0.40000036925E+02 0.  0.
         12    1    3    3    0    0  0.10010254511E+02 -0.32288131073E+02 -0.14596233952E+02  0.36820899625E+02  0.00000000000E+00 0. -1.
         11    1    4    4    0    0 -0.10688552270E+02  0.69154978038E+01  0.21555879782E+01  0.12911848020E+02  0.51100000000E-03 0. -1.
        -11    1    4    4    0    0 -0.13238393577E+02  0.18539846589E+02  0.12430111399E+02  0.25951659787E+02  0.51100000000E-03 0.  1.
         12    1    4    4    0    0  0.13916691335E+02  0.68327866804E+01  0.10534574816E-01  0.15503592568E+02  0.00000000000E+00 0. -1.
</event>
<event>
 8    1  0.1244838E-006  0.9118800E+02  0.7816164E-02  0.1184000E+00
        -11   -1    0    0    0    0  0.00000000000E+00  0.00000000000E+00  0.45593999997E+02  0.45594000000E+02  0.51100000000E-03 0. -1.
         11   -1    0    0    0    0 -0.00000000000E+00 -0.00000000000E+00 -0.45593999997E+02  0.45594000000E+02  0.51100000000E-03 0.  1.
         23    2    1    2    0    0  0.00000000000E+00  0.35527136788E-14  0.35527136788E-14  0.91188000000E+02  0.91188000000E+02 0.  0.
    9900012    2    3    3    0    0 -0.87989251337E+01  0.28811035569E+02  0.21172711095E+02  0.54367074575E+02  0.39999978109E+02 0.  0.
        -12    1    3    3    0    0  0.87989251337E+01 -0.28811035569E+02 -0.21172711095E+02  0.36820925425E+02  0.00000000000E+00 0.  1.
         11    1    4    4    0    0  0.66226996548E+01  0.18302699540E+02  0.24514974108E+02  0.31302282935E+02  0.51100000000E-03 0. -1.
        -11    1    4    4    0    0 -0.11863956753E+02  0.10919388322E+02  0.23955014899E+01  0.16301071707E+02  0.51100000000E-03 0.  1.
         12    1    4    4    0    0 -0.35576680353E+01 -0.41105229363E+00 -0.57377645030E+01  0.67637199328E+01  0.00000000000E+00 0. -1.
</event>
<event>
 8    1  0.1244838E-006  0.9118800E+02  0.7816164E-02  0.1184000E+00
        -11   -1    0    0    0    0  0.00000000000E+00  0.00000000000E+00  0.45593999997E+02  0.45594000000E+02  0.51100000000E-03 0.  1.
         11   -1    0    0    0    0 -0.00000000000E+00 -0.00000000000E+00 -0.45593999997E+02  0.45594000000E+02  0.51100000000E-03 0. -1.
         23    2    1    2    0    0  0.00000000000E+00  0.00000000000E+00  0.17763568394E-14  0.91188000000E+02  0.91188000000E+02 0.  0.
    9900012    2    3    3    0    0 -0.13862965410E+02  0.30609142973E+02 -0.15055849771E+02  0.54367081274E+02  0.39999993380E+02 0.  0.
        -12    1    3    3    0    0  0.13862965410E+02 -0.30609142973E+02  0.15055849771E+02  0.36820918726E+02  0.00000000000E+00 0.  1.
         11    1    4    4    0    0 -0.42045862496E+01  0.17287493202E+02 -0.17122795007E+02  0.24692632015E+02  0.51100000000E-03 0. -1.
        -11    1    4    4    0    0  0.62740515462E+01 -0.44338252364E+00  0.54829122766E+01  0.83440181065E+01  0.51100000000E-03 0.  1.
        -12    1    4    4    0    0 -0.15932430707E+02  0.13765032295E+02 -0.34159670408E+01  0.21330431152E+02  0.00000000000E+00 0.  1.
</event>
<event>
 8    1  0.1244838E-006  0.9118800E+02  0.7816164E-02  0.1184000E+00
        -11   -1    0    0    0    0  0.00000000000E+00  0.00000000000E+00  0.45593999997E+02  0.45594000000E+02  0.51100000000E-03 0.  1.
         11   -1    0    0    0    0 -0.00000000000E+00 -0.00000000000E+00 -0.45593999997E+02  0.45594000000E+02  0.51100000000E-03 0. -1.
         23    2    1    2    0    0 -0.35527136788E-14  0.00000000000E+00 -0.71054273576E-14  0.91188000000E+02  0.91188000000E+02 0.  0.
    9900012    2    3    3    0    0 -0.16618847715E+02  0.32006193710E+01 -0.32700888825E+02  0.54367106561E+02  0.40000051027E+02 0.  0.
        -12    1    3    3    0    0  0.16618847715E+02 -0.32006193710E+01  0.32700888825E+02  0.36820893439E+02  0.00000000000E+00 0.  1.
         11    1    4    4    0    0 -0.24829665611E+02  0.21661270617E+01 -0.14216989692E+02  0.28693678693E+02  0.51100000000E-03 0. -1.
        -11    1    4    4    0    0  0.11495039963E+02  0.27903281965E+01 -0.73338132243E+01  0.13917855146E+02  0.51100000000E-03 0.  1.
         12    1    4    4    0    0 -0.32842220672E+01 -0.17558358872E+01 -0.11150085909E+02  0.11755572722E+02  0.00000000000E+00 0. -1.
</event>
<event>
 8    1  0.1244838E-006  0.9118800E+02  0.7816164E-02  0.1184000E+00
        -11   -1    0    0    0    0  0.00000000000E+00  0.00000000000E+00  0.45593999997E+02  0.45594000000E+02  0.51100000000E-03 0. -1.
         11   -1    0    0    0    0 -0.00000000000E+00 -0.00000000000E+00 -0.45593999997E+02  0.45594000000E+02  0.51100000000E-03 0.  1.
         23    2    1    2    0    0  0.35527136788E-14  0.35527136788E-14  0.00000000000E+00  0.91188000000E+02  0.91188000000E+02 0.  0.
    9900012    2    3    3    0    0  0.18218195211E+02  0.31954039142E+02  0.16779620007E+01  0.54367098181E+02  0.40000031924E+02 0.  0.
         12    1    3    3    0    0 -0.18218195211E+02 -0.31954039142E+02 -0.16779620007E+01  0.36820901819E+02  0.00000000000E+00 0. -1.
         11    1    4    4    0    0 -0.70345279853E+01 -0.17998985972E+01  0.12069811737E+01  0.73607759612E+01  0.51100000000E-03 0. -1.
        -11    1    4    4    0    0  0.13267343864E+02  0.27651510924E+02 -0.72269569894E+01  0.31509639432E+02  0.51100000000E-03 0.  1.
         12    1    4    4    0    0  0.11985379333E+02  0.61024268161E+01  0.76979378165E+01  0.15496682788E+02  0.00000000000E+00 0. -1.
</event>
<event>
 8    1  0.1244838E-006  0.9118800E+02  0.7816164E-02  0.1184000E+00
        -11   -1    0    0    0    0  0.00000000000E+00  0.00000000000E+00  0.45593999997E+02  0.45594000000E+02  0.51100000000E-03 0. -1.
         11   -1    0    0    0    0 -0.00000000000E+00 -0.00000000000E+00 -0.45593999997E+02  0.45594000000E+02  0.51100000000E-03 0.  1.
         23    2    1    2    0    0  0.00000000000E+00  0.00000000000E+00 -0.12993078835E-14  0.91188000000E+02  0.91188000000E+02 0.  0.
    9900012    2    3    3    0    0  0.18937350431E+02 -0.31577792875E+02 -0.15429363890E-01  0.54367075484E+02  0.39999980180E+02 0.  0.
         12    1    3    3    0    0 -0.18937350431E+02  0.31577792875E+02  0.15429363890E-01  0.36820924516E+02  0.00000000000E+00 0. -1.
         11    1    4    4    0    0  0.79152032453E+01  0.16187779356E+01 -0.98520613104E+00  0.81388891012E+01  0.51100000000E-03 0.  1.
        -11    1    4    4    0    0  0.87092233870E+01 -0.23801362143E+02  0.14799868320E+02  0.29349472132E+02  0.51100000000E-03 0. -1.
        -12    1    4    4    0    0  0.23129237983E+01 -0.93952086677E+01 -0.13830091553E+02  0.16878714251E+02  0.00000000000E+00 0.  1.
</event>
<event>
 8    1  0.1244838E-006  0.9118800E+02  0.7816164E-02  0.1184000E+00
        -11   -1    0    0    0    0  0.00000000000E+00  0.00000000000E+00  0.45593999997E+02  0.45594000000E+02  0.51100000000E-03 0. -1.
         11   -1    0    0    0    0 -0.00000000000E+00 -0.00000000000E+00 -0.45593999997E+02  0.45594000000E+02  0.51100000000E-03 0.  1.
         23    2    1    2    0    0 -0.88817841970E-15 -0.13322676296E-14  0.00000000000E+00  0.91188000000E+02  0.91188000000E+02 0.  0.
    9900012    2    3    3    0    0  0.15938822383E+01 -0.13806134942E+01  0.36760434635E+02  0.54367134872E+02  0.40000115568E+02 0.  0.
        -12    1    3    3    0    0 -0.15938822383E+01  0.13806134942E+01 -0.36760434635E+02  0.36820865128E+02  0.00000000000E+00 0.  1.
         11    1    4    4    0    0  0.69687656891E+01 -0.11549255954E+02  0.11034072492E+02  0.17426983799E+02  0.51100000000E-03 0. -1.
        -11    1    4    4    0    0 -0.78496591936E+01 -0.82505583038E+00 -0.98016287658E+00  0.79535266457E+01  0.51100000000E-03 0.  1.
        -12    1    4    4    0    0  0.24747757428E+01  0.10993698290E+02  0.26706525019E+02  0.28986624427E+02  0.00000000000E+00 0.  1.
</event>
<event>
 8    1  0.1244838E-006  0.9118800E+02  0.7816164E-02  0.1184000E+00
        -11   -1    0    0    0    0  0.00000000000E+00  0.00000000000E+00  0.45593999997E+02  0.45594000000E+02  0.51100000000E-03 0.  1.
         11   -1    0    0    0    0 -0.00000000000E+00 -0.00000000000E+00 -0.45593999997E+02  0.45594000000E+02  0.51100000000E-03 0. -1.
         23    2    1    2    0    0  0.35527136788E-14  0.35527136788E-14  0.00000000000E+00  0.91188000000E+02  0.91188000000E+02 0.  0.
    9900012    2    3    3    0    0  0.16127542710E+02  0.30666266218E+02 -0.12460535425E+02  0.54367048618E+02  0.39999918934E+02 0.  0.
        -12    1    3    3    0    0 -0.16127542710E+02 -0.30666266218E+02  0.12460535425E+02  0.36820951382E+02  0.00000000000E+00 0.  1.
         11    1    4    4    0    0 -0.32733631915E+01  0.20468233754E+02 -0.24853104574E+01  0.20876787778E+02  0.51100000000E-03 0. -1.
        -11    1    4    4    0    0  0.10613722290E+02 -0.59191296234E+01 -0.89722978305E+01  0.15105936746E+02  0.51100000000E-03 0.  1.
         12    1    4    4    0    0  0.87871836114E+01  0.16117162087E+02 -0.10029271373E+01  0.18384324094E+02  0.00000000000E+00 0. -1.
</event>
<event>
 8    1  0.1244838E-006  0.9118800E+02  0.7816164E-02  0.1184000E+00
        -11   -1    0    0    0    0  0.00000000000E+00  0.00000000000E+00  0.45593999997E+02  0.45594000000E+02  0.51100000000E-03 0.  1.
         11   -1    0    0    0    0 -0.00000000000E+00 -0.00000000000E+00 -0.45593999997E+02  0.45594000000E+02  0.51100000000E-03 0. -1.
         23    2    1    2    0    0  0.00000000000E+00 -0.11518563880E-14  0.00000000000E+00  0.91188000000E+02  0.91188000000E+02 0.  0.
    9900012    2    3    3    0    0  0.30786528525E+02 -0.12447760566E+00  0.20197881026E+02  0.54367078892E+02  0.39999987951E+02 0.  0.
         12    1    3    3    0    0 -0.30786528525E+02  0.12447760566E+00 -0.20197881026E+02  0.36820921108E+02  0.00000000000E+00 0. -1.
         11    1    4    4    0    0  0.51593071819E+01 -0.14297775653E+02 -0.33519378972E+01  0.15565356634E+02  0.51100000000E-03 0. -1.
        -11    1    4    4    0    0  0.12393396255E+02  0.93125440656E+01  0.17724544644E+02  0.23547382674E+02  0.51100000000E-03 0.  1.
         12    1    4    4    0    0  0.13233825088E+02  0.48607539816E+01  0.58252742788E+01  0.15254339584E+02  0.00000000000E+00 0. -1.
</event>
<event>
 8    1  0.1244838E-006  0.9118800E+02  0.7816164E-02  0.1184000E+00
        -11   -1    0    0    0    0  0.00000000000E+00  0.00000000000E+00  0.45593999997E+02  0.45594000000E+02  0.51100000000E-03 0. -1.
         11   -1    0    0    0    0 -0.00000000000E+00 -0.00000000000E+00 -0.45593999997E+02  0.45594000000E+02  0.51100000000E-03 0.  1.
         23    2    1    2    0    0  0.00000000000E+00 -0.77715611724E-15  0.71054273576E-14  0.91188000000E+02  0.91188000000E+02 0.  0.
    9900012    2    3    3    0    0  0.18140882336E+02  0.74603428206E+00 -0.32033281229E+02  0.54367091736E+02  0.40000017231E+02 0.  0.
         12    1    3    3    0    0 -0.18140882336E+02 -0.74603428206E+00  0.32033281229E+02  0.36820908264E+02  0.00000000000E+00 0. -1.
         11    1    4    4    0    0  0.29264652009E+01 -0.11505678402E+02 -0.15678761557E+02  0.19666428203E+02  0.51100000000E-03 0. -1.
        -11    1    4    4    0    0  0.48141047144E+01  0.28703520438E+01 -0.19547375145E+02  0.20335053488E+02  0.51100000000E-03 0.  1.
         12    1    4    4    0    0  0.10400312420E+02  0.93813606399E+01  0.31928554723E+01  0.14365610045E+02  0.00000000000E+00 0. -1.
</event>
<event>
 8    1  0.1244838E-006  0.9118800E+02  0.7816164E-02  0.1184000E+00
        -11   -1    0    0    0    0  0.00000000000E+00  0.00000000000E+00  0.45593999997E+02  0.45594000000E+02  0.51100000000E-03 0.  1.
         11   -1    0    0    0    0 -0.00000000000E+00 -0.00000000000E+00 -0.45593999997E+02  0.45594000000E+02  0.51100000000E-03 0. -1.
         23    2    1    2    0    0  0.00000000000E+00  0.88817841970E-15  0.00000000000E+00  0.91188000000E+02  0.91188000000E+02 0.  0.
    9900012    2    3    3    0    0 -0.18353586655E+02  0.66225798394E+01 -0.31226063829E+02  0.54367085168E+02  0.40000002258E+02 0.  0.
        -12    1    3    3    0    0  0.18353586655E+02 -0.66225798394E+01  0.31226063829E+02  0.36820914832E+02  0.00000000000E+00 0.  1.
         11    1    4    4    0    0 -0.13462992015E+02  0.53571456345E+01 -0.21992212018E+02  0.26336449135E+02  0.51100000000E-03 0. -1.
        -11    1    4    4    0    0 -0.12806119172E+02  0.48896697345E+01 -0.12674656147E+02  0.18669559905E+02  0.51100000000E-03 0.  1.
        -12    1    4    4    0    0  0.79155245319E+01 -0.36242355296E+01  0.34408043361E+01  0.93610761277E+01  0.00000000000E+00 0.  1.
</event>
<event>
 8    1  0.1244838E-006  0.9118800E+02  0.7816164E-02  0.1184000E+00
        -11   -1    0    0    0    0  0.00000000000E+00  0.00000000000E+00  0.45593999997E+02  0.45594000000E+02  0.51100000000E-03 0. -1.
         11   -1    0    0    0    0 -0.00000000000E+00 -0.00000000000E+00 -0.45593999997E+02  0.45594000000E+02  0.51100000000E-03 0.  1.
         23    2    1    2    0    0  0.35527136788E-14  0.17763568394E-14  0.35527136788E-14  0.91188000000E+02  0.91188000000E+02 0.  0.
    9900012    2    3    3    0    0 -0.31830377651E+02  0.63664348701E+01  0.17380277324E+02  0.54367102751E+02  0.40000042341E+02 0.  0.
        -12    1    3    3    0    0  0.31830377651E+02 -0.63664348701E+01 -0.17380277324E+02  0.36820897249E+02  0.00000000000E+00 0.  1.
         11    1    4    4    0    0 -0.82491315082E+01 -0.66396703970E+01  0.98054977628E+01  0.14431949981E+02  0.51100000000E-03 0. -1.
        -11    1    4    4    0    0 -0.16125465887E+02  0.10845541118E+02  0.18301327951E+02  0.26694475407E+02  0.51100000000E-03 0.  1.
        -12    1    4    4    0    0 -0.74557802561E+01  0.21605641490E+01 -0.10726548390E+02  0.13240677363E+02  0.00000000000E+00 0.  1.
</event>
<event>
 8    1  0.1244838E-006  0.9118800E+02  0.7816164E-02  0.1184000E+00
        -11   -1    0    0    0    0  0.00000000000E+00  0.00000000000E+00  0.45593999997E+02  0.45594000000E+02  0.51100000000E-03 0.  1.
         11   -1    0    0    0    0 -0.00000000000E+00 -0.00000000000E+00 -0.45593999997E+02  0.45594000000E+02  0.51100000000E-03 0. -1.
         23    2    1    2    0    0  0.71054273576E-14  0.00000000000E+00 -0.99920072216E-15  0.91188000000E+02  0.91188000000E+02 0.  0.
    9900012    2    3    3    0    0  0.34002863369E+02 -0.14126044155E+02 -0.19937227757E+00  0.54367087599E+02  0.40000007799E+02 0.  0.
         12    1    3    3    0    0 -0.34002863369E+02  0.14126044155E+02  0.19937227757E+00  0.36820912401E+02  0.00000000000E+00 0. -1.
         11    1    4    4    0    0  0.50572514159E+01  0.61521245549E+01 -0.31505028439E+01  0.85644671085E+01  0.51100000000E-03 0. -1.
        -11    1    4    4    0    0  0.12104643503E+02 -0.26475502843E+01 -0.11961331531E+02  0.17222234730E+02  0.51100000000E-03 0.  1.
        -12    1    4    4    0    0  0.16840968450E+02 -0.17630618425E+02  0.14912462097E+02  0.28580385760E+02  0.00000000000E+00 0.  1.
</event>
<event>
 8    1  0.1244838E-006  0.9118800E+02  0.7816164E-02  0.1184000E+00
        -11   -1    0    0    0    0  0.00000000000E+00  0.00000000000E+00  0.45593999997E+02  0.45594000000E+02  0.51100000000E-03 0. -1.
         11   -1    0    0    0    0 -0.00000000000E+00 -0.00000000000E+00 -0.45593999997E+02  0.45594000000E+02  0.51100000000E-03 0.  1.
         23    2    1    2    0    0  0.00000000000E+00 -0.35527136788E-14 -0.35527136788E-14  0.91188000000E+02  0.91188000000E+02 0.  0.
    9900012    2    3    3    0    0  0.17477280781E+02  0.17646398439E+02  0.27183294952E+02  0.54367051536E+02  0.39999925587E+02 0.  0.
        -12    1    3    3    0    0 -0.17477280781E+02 -0.17646398439E+02 -0.27183294952E+02  0.36820948464E+02  0.00000000000E+00 0.  1.
         11    1    4    4    0    0  0.36662127952E+01  0.16948400967E+00  0.23481353461E+02  0.23766442765E+02  0.51100000000E-03 0. -1.
        -11    1    4    4    0    0 -0.36109672862E+01 -0.15700887812E+01 -0.15972858904E+01  0.42491865104E+01  0.51100000000E-03 0.  1.
         12    1    4    4    0    0  0.17422035272E+02  0.19047003210E+02  0.52992273810E+01  0.26351422260E+02  0.00000000000E+00 0. -1.
</event>
<event>
 8    1  0.1244838E-006  0.9118800E+02  0.7816164E-02  0.1184000E+00
        -11   -1    0    0    0    0  0.00000000000E+00  0.00000000000E+00  0.45593999997E+02  0.45594000000E+02  0.51100000000E-03 0. -1.
         11   -1    0    0    0    0 -0.00000000000E+00 -0.00000000000E+00 -0.45593999997E+02  0.45594000000E+02  0.51100000000E-03 0.  1.
         23    2    1    2    0    0 -0.35527136788E-14 -0.35527136788E-14  0.00000000000E+00  0.91188000000E+02  0.91188000000E+02 0.  0.
    9900012    2    3    3    0    0  0.19153639796E+02  0.23509586053E+02  0.20885804644E+02  0.54367090323E+02  0.40000014010E+02 0.  0.
        -12    1    3    3    0    0 -0.19153639796E+02 -0.23509586053E+02 -0.20885804644E+02  0.36820909677E+02  0.00000000000E+00 0.  1.
         11    1    4    4    0    0  0.12172606418E+02  0.43767571950E+01  0.23139163745E+02  0.26509418131E+02  0.51100000000E-03 0. -1.
        -11    1    4    4    0    0  0.38832688482E+01  0.16663547524E+02  0.64577084734E+01  0.18288127078E+02  0.51100000000E-03 0.  1.
        -12    1    4    4    0    0  0.30977645303E+01  0.24692813337E+01 -0.87110675752E+01  0.95695451140E+01  0.00000000000E+00 0.  1.
</event>
<event>
 8    1  0.1244838E-006  0.9118800E+02  0.7816164E-02  0.1184000E+00
        -11   -1    0    0    0    0  0.00000000000E+00  0.00000000000E+00  0.45593999997E+02  0.45594000000E+02  0.51100000000E-03 0. -1.
         11   -1    0    0    0    0 -0.00000000000E+00 -0.00000000000E+00 -0.45593999997E+02  0.45594000000E+02  0.51100000000E-03 0.  1.
         23    2    1    2    0    0 -0.17763568394E-14  0.00000000000E+00  0.00000000000E+00  0.91188000000E+02  0.91188000000E+02 0.  0.
    9900012    2    3    3    0    0  0.12626694692E+02 -0.29848818639E+02 -0.17475567479E+02  0.54367070466E+02  0.39999968742E+02 0.  0.
         12    1    3    3    0    0 -0.12626694692E+02  0.29848818639E+02  0.17475567479E+02  0.36820929534E+02  0.00000000000E+00 0. -1.
         11    1    4    4    0    0  0.12627860686E+02 -0.23738528840E+02 -0.10029131819E+02  0.28697806577E+02  0.51100000000E-03 0. -1.
        -11    1    4    4    0    0  0.47876312909E+01  0.81780394525E+01 -0.23769354237E+01  0.97699316750E+01  0.51100000000E-03 0.  1.
        -12    1    4    4    0    0 -0.47887972849E+01 -0.14288329251E+02 -0.50695002365E+01  0.15899332215E+02  0.00000000000E+00 0.  1.
</event>
<event>
 8    1  0.1244838E-006  0.9118800E+02  0.7816164E-02  0.1184000E+00
        -11   -1    0    0    0    0  0.00000000000E+00  0.00000000000E+00  0.45593999997E+02  0.45594000000E+02  0.51100000000E-03 0.  1.
         11   -1    0    0    0    0 -0.00000000000E+00 -0.00000000000E+00 -0.45593999997E+02  0.45594000000E+02  0.51100000000E-03 0. -1.
         23    2    1    2    0    0  0.16653345369E-15 -0.17763568394E-14 -0.71054273576E-14  0.91188000000E+02  0.91188000000E+02 0.  0.
    9900012    2    3    3    0    0 -0.25191826999E+00  0.61752111424E+01  0.36298528729E+02  0.54367083616E+02  0.39999998718E+02 0.  0.
         12    1    3    3    0    0  0.25191826999E+00 -0.61752111424E+01 -0.36298528729E+02  0.36820916384E+02  0.00000000000E+00 0. -1.
         11    1    4    4    0    0  0.31448585492E+01 -0.29045580809E+01 -0.19423352236E+01  0.47009849311E+01  0.51100000000E-03 0. -1.
        -11    1    4    4    0    0 -0.18345848152E+01 -0.36583879240E+01  0.36483979848E+02  0.36712808248E+02  0.51100000000E-03 0.  1.
        -12    1    4    4    0    0 -0.15621920040E+01  0.12738157147E+02  0.17568841048E+01  0.12953290436E+02  0.00000000000E+00 0.  1.
</event>
<event>
 8    1  0.1244838E-006  0.9118800E+02  0.7816164E-02  0.1184000E+00
        -11   -1    0    0    0    0  0.00000000000E+00  0.00000000000E+00  0.45593999997E+02  0.45594000000E+02  0.51100000000E-03 0.  1.
         11   -1    0    0    0    0 -0.00000000000E+00 -0.00000000000E+00 -0.45593999997E+02  0.45594000000E+02  0.51100000000E-03 0. -1.
         23    2    1    2    0    0  0.17763568394E-14  0.71054273576E-14 -0.17763568394E-14  0.91188000000E+02  0.91188000000E+02 0.  0.
    9900012    2    3    3    0    0  0.11568618275E+02 -0.34622320552E+02 -0.48207723806E+01  0.54367111152E+02  0.40000061493E+02 0.  0.
         12    1    3    3    0    0 -0.11568618275E+02  0.34622320552E+02  0.48207723806E+01  0.36820888848E+02  0.00000000000E+00 0. -1.
         11    1    4    4    0    0  0.15510533874E+02 -0.11018998714E+02  0.11110765010E+02  0.22032795853E+02  0.51100000000E-03 0.  1.
        -11    1    4    4    0    0 -0.93404977075E+01 -0.11646591887E+02 -0.71971692375E+01  0.16573691360E+02  0.51100000000E-03 0. -1.
        -12    1    4    4    0    0  0.53985821084E+01 -0.11956729951E+02 -0.87343681534E+01  0.15760623939E+02  0.00000000000E+00 0.  1.
</event>
<event>
 8    1  0.1244838E-006  0.9118800E+02  0.7816164E-02  0.1184000E+00
        -11   -1    0    0    0    0  0.00000000000E+00  0.00000000000E+00  0.45593999997E+02  0.45594000000E+02  0.51100000000E-03 0.  1.
         11   -1    0    0    0    0 -0.00000000000E+00 -0.00000000000E+00 -0.45593999997E+02  0.45594000000E+02  0.51100000000E-03 0. -1.
         23    2    1    2    0    0 -0.15543122345E-14  0.00000000000E+00 -0.17763568394E-14  0.91188000000E+02  0.91188000000E+02 0.  0.
    9900012    2    3    3    0    0  0.10055047724E+01  0.36794931848E+02  0.94988520650E+00  0.54367077531E+02  0.39999984849E+02 0.  0.
        -12    1    3    3    0    0 -0.10055047724E+01 -0.36794931848E+02 -0.94988520650E+00  0.36820922469E+02  0.00000000000E+00 0.  1.
         11    1    4    4    0    0 -0.45136667301E+01  0.37053305096E+01 -0.59598247491E+01  0.83439902227E+01  0.51100000000E-03 0.  1.
        -11    1    4    4    0    0 -0.46727549911E+01 -0.45404524469E+01  0.10363855409E+01  0.65973057288E+01  0.51100000000E-03 0. -1.
         12    1    4    4    0    0  0.10191926494E+02  0.37630053785E+02  0.58733244147E+01  0.39425781580E+02  0.00000000000E+00 0. -1.
</event>
<event>
 8    1  0.1244838E-006  0.9118800E+02  0.7816164E-02  0.1184000E+00
        -11   -1    0    0    0    0  0.00000000000E+00  0.00000000000E+00  0.45593999997E+02  0.45594000000E+02  0.51100000000E-03 0. -1.
         11   -1    0    0    0    0 -0.00000000000E+00 -0.00000000000E+00 -0.45593999997E+02  0.45594000000E+02  0.51100000000E-03 0.  1.
         23    2    1    2    0    0  0.17763568394E-14  0.35527136788E-14  0.71054273576E-14  0.91188000000E+02  0.91188000000E+02 0.  0.
    9900012    2    3    3    0    0 -0.96213384877E+01  0.12607554923E+02  0.33230386574E+02  0.54367093068E+02  0.40000020268E+02 0.  0.
        -12    1    3    3    0    0  0.96213384877E+01 -0.12607554923E+02 -0.33230386574E+02  0.36820906932E+02  0.00000000000E+00 0.  1.
         11    1    4    4    0    0 -0.57330798808E+01 -0.11604426691E+02  0.59306875511E+01  0.14237414753E+02  0.51100000000E-03 0. -1.
        -11    1    4    4    0    0  0.37864143184E+01 -0.18912938167E-01  0.20643005831E+01  0.43126126940E+01  0.51100000000E-03 0.  1.
         12    1    4    4    0    0 -0.76746729253E+01  0.24230894553E+02  0.25235398440E+02  0.35817065622E+02  0.00000000000E+00 0. -1.
</event>
<event>
 8    1  0.1244838E-006  0.9118800E+02  0.7816164E-02  0.1184000E+00
        -11   -1    0    0    0    0  0.00000000000E+00  0.00000000000E+00  0.45593999997E+02  0.45594000000E+02  0.51100000000E-03 0.  1.
         11   -1    0    0    0    0 -0.00000000000E+00 -0.00000000000E+00 -0.45593999997E+02  0.45594000000E+02  0.51100000000E-03 0. -1.
         23    2    1    2    0    0 -0.35527136788E-14  0.00000000000E+00  0.88817841970E-15  0.91188000000E+02  0.91188000000E+02 0.  0.
    9900012    2    3    3    0    0  0.16153652788E+02 -0.32122750685E+02 -0.79352476907E+01  0.54367085212E+02  0.40000002357E+02 0.  0.
         12    1    3    3    0    0 -0.16153652788E+02  0.32122750685E+02  0.79352476907E+01  0.36820914788E+02  0.00000000000E+00 0. -1.
         11    1    4    4    0    0  0.93506270345E+01 -0.38939251006E+01 -0.10335953247E+02  0.14471655345E+02  0.51100000000E-03 0. -1.
        -11    1    4    4    0    0 -0.37564432084E+01 -0.26889227368E+02 -0.40476728372E+01  0.27450411103E+02  0.51100000000E-03 0.  1.
        -12    1    4    4    0    0  0.10559468962E+02 -0.13395982155E+01  0.64483783939E+01  0.12445018764E+02  0.00000000000E+00 0.  1.
</event>
<event>
 8    1  0.1244838E-006  0.9118800E+02  0.7816164E-02  0.1184000E+00
        -11   -1    0    0    0    0  0.00000000000E+00  0.00000000000E+00  0.45593999997E+02  0.45594000000E+02  0.51100000000E-03 0.  1.
         11   -1    0    0    0    0 -0.00000000000E+00 -0.00000000000E+00 -0.45593999997E+02  0.45594000000E+02  0.51100000000E-03 0. -1.
         23    2    1    2    0    0  0.88817841970E-15  0.00000000000E+00  0.00000000000E+00  0.91188000000E+02  0.91188000000E+02 0.  0.
    9900012    2    3    3    0    0  0.36235375837E+01  0.39827043822E+00  0.36639912833E+02  0.54367192616E+02  0.40000247207E+02 0.  0.
         12    1    3    3    0    0 -0.36235375837E+01 -0.39827043822E+00 -0.36639912833E+02  0.36820807384E+02  0.00000000000E+00 0. -1.
         11    1    4    4    0    0 -0.78508298068E+01 -0.27936829909E+01  0.19244969847E+02  0.20971625068E+02  0.51100000000E-03 0.  1.
        -11    1    4    4    0    0  0.94959432144E+01 -0.10109619300E+02  0.40480875849E+01  0.14448679984E+02  0.51100000000E-03 0. -1.
         12    1    4    4    0    0  0.19784241761E+01  0.13301572729E+02  0.13346855402E+02  0.18946887565E+02  0.00000000000E+00 0. -1.
</event>
<event>
 8    1  0.1244838E-006  0.9118800E+02  0.7816164E-02  0.1184000E+00
        -11   -1    0    0    0    0  0.00000000000E+00  0.00000000000E+00  0.45593999997E+02  0.45594000000E+02  0.51100000000E-03 0.  1.
         11   -1    0    0    0    0 -0.00000000000E+00 -0.00000000000E+00 -0.45593999997E+02  0.45594000000E+02  0.51100000000E-03 0. -1.
         23    2    1    2    0    0  0.00000000000E+00  0.17763568394E-14  0.00000000000E+00  0.91188000000E+02  0.91188000000E+02 0.  0.
    9900012    2    3    3    0    0  0.34861445621E+02 -0.10339157729E+02 -0.57931848281E+01  0.54367087956E+02  0.40000008613E+02 0.  0.
         12    1    3    3    0    0 -0.34861445621E+02  0.10339157729E+02  0.57931848281E+01  0.36820912044E+02  0.00000000000E+00 0. -1.
         11    1    4    4    0    0 -0.17793718878E+01  0.71026359436E+01  0.59437289504E+01  0.94308809641E+01  0.51100000000E-03 0. -1.
        -11    1    4    4    0    0  0.11028793931E+02  0.95867438571E-01  0.16123526626E+01  0.11146441921E+02  0.51100000000E-03 0.  1.
        -12    1    4    4    0    0  0.25612023578E+02 -0.17537661111E+02 -0.13349266441E+02  0.33789765070E+02  0.00000000000E+00 0.  1.
</event>
<event>
 8    1  0.1244838E-006  0.9118800E+02  0.7816164E-02  0.1184000E+00
        -11   -1    0    0    0    0  0.00000000000E+00  0.00000000000E+00  0.45593999997E+02  0.45594000000E+02  0.51100000000E-03 0.  1.
         11   -1    0    0    0    0 -0.00000000000E+00 -0.00000000000E+00 -0.45593999997E+02  0.45594000000E+02  0.51100000000E-03 0. -1.
         23    2    1    2    0    0  0.44408920985E-15  0.35527136788E-14 -0.35527136788E-14  0.91188000000E+02  0.91188000000E+02 0.  0.
    9900012    2    3    3    0    0 -0.33591616414E+01 -0.31014034441E+02 -0.19560837116E+02  0.54367073233E+02  0.39999975050E+02 0.  0.
        -12    1    3    3    0    0  0.33591616414E+01  0.31014034441E+02  0.19560837116E+02  0.36820926767E+02  0.00000000000E+00 0.  1.
         11    1    4    4    0    0  0.41221418834E+01 -0.33413084034E+02 -0.89520828530E+00  0.33678296224E+02  0.51100000000E-03 0. -1.
        -11    1    4    4    0    0 -0.72212421554E+01  0.20889792329E+01 -0.18812046648E+02  0.20258412372E+02  0.51100000000E-03 0.  1.
         12    1    4    4    0    0 -0.26006136946E+00  0.31007036008E+00  0.14641781698E+00  0.43036463750E+00  0.00000000000E+00 0. -1.
</event>
<event>
 8    1  0.1244838E-006  0.9118800E+02  0.7816164E-02  0.1184000E+00
        -11   -1    0    0    0    0  0.00000000000E+00  0.00000000000E+00  0.45593999997E+02  0.45594000000E+02  0.51100000000E-03 0.  1.
         11   -1    0    0    0    0 -0.00000000000E+00 -0.00000000000E+00 -0.45593999997E+02  0.45594000000E+02  0.51100000000E-03 0. -1.
         23    2    1    2    0    0  0.00000000000E+00  0.88817841970E-15 -0.71054273576E-14  0.91188000000E+02  0.91188000000E+02 0.  0.
    9900012    2    3    3    0    0  0.74828171396E+01 -0.37357430432E+01  0.35858481903E+02  0.54367094894E+02  0.40000024430E+02 0.  0.
         12    1    3    3    0    0 -0.74828171396E+01  0.37357430432E+01 -0.35858481903E+02  0.36820905106E+02  0.00000000000E+00 0. -1.
         11    1    4    4    0    0  0.50719974238E+01 -0.81483786626E+00  0.10232516480E+02  0.11449607521E+02  0.51100000000E-03 0. -1.
        -11    1    4    4    0    0  0.10168369288E+02  0.22643119396E+01  0.30613370407E+02  0.32337304936E+02  0.51100000000E-03 0.  1.
         12    1    4    4    0    0 -0.77575495727E+01 -0.51852171165E+01 -0.49874049845E+01  0.10580182437E+02  0.00000000000E+00 0. -1.
</event>
<event>
 8    1  0.1244838E-006  0.9118800E+02  0.7816164E-02  0.1184000E+00
        -11   -1    0    0    0    0  0.00000000000E+00  0.00000000000E+00  0.45593999997E+02  0.45594000000E+02  0.51100000000E-03 0. -1.
         11   -1    0    0    0    0 -0.00000000000E+00 -0.00000000000E+00 -0.45593999997E+02  0.45594000000E+02  0.51100000000E-03 0.  1.
         23    2    1    2    0    0  0.00000000000E+00 -0.26645352591E-14  0.35527136788E-14  0.91188000000E+02  0.91188000000E+02 0.  0.
    9900012    2    3    3    0    0  0.22265522258E+02 -0.76837026208E+01 -0.28301741207E+02  0.54367064071E+02  0.39999954162E+02 0.  0.
         12    1    3    3    0    0 -0.22265522258E+02  0.76837026208E+01  0.28301741207E+02  0.36820935929E+02  0.00000000000E+00 0. -1.
         11    1    4    4    0    0  0.21095294279E+02 -0.12292131180E+02 -0.78219479545E+01  0.25637683197E+02  0.51100000000E-03 0. -1.
        -11    1    4    4    0    0  0.94601438911E+01  0.66933389192E+01 -0.11300715808E+02  0.16186453792E+02  0.51100000000E-03 0.  1.
        -12    1    4    4    0    0 -0.82899159120E+01 -0.20849103596E+01 -0.91790774448E+01  0.12542927082E+02  0.00000000000E+00 0.  1.
</event>
<event>
 8    1  0.1244838E-006  0.9118800E+02  0.7816164E-02  0.1184000E+00
        -11   -1    0    0    0    0  0.00000000000E+00  0.00000000000E+00  0.45593999997E+02  0.45594000000E+02  0.51100000000E-03 0. -1.
         11   -1    0    0    0    0 -0.00000000000E+00 -0.00000000000E+00 -0.45593999997E+02  0.45594000000E+02  0.51100000000E-03 0.  1.
         23    2    1    2    0    0  0.00000000000E+00  0.00000000000E+00  0.88817841970E-15  0.91188000000E+02  0.91188000000E+02 0.  0.
    9900012    2    3    3    0    0 -0.28860765929E+02 -0.21998351473E+02  0.62376452756E+01  0.54367088874E+02  0.40000010707E+02 0.  0.
        -12    1    3    3    0    0  0.28860765929E+02  0.21998351473E+02 -0.62376452756E+01  0.36820911126E+02  0.00000000000E+00 0.  1.
         11    1    4    4    0    0 -0.79319901154E+01 -0.93510559650E+01  0.83089378793E+01  0.14812061430E+02  0.51100000000E-03 0. -1.
        -11    1    4    4    0    0  0.34559637817E+01 -0.14457603963E+02  0.10641869382E+01  0.14902969238E+02  0.51100000000E-03 0.  1.
        -12    1    4    4    0    0 -0.24384739596E+02  0.18103084555E+01 -0.31354795418E+01  0.24652058206E+02  0.00000000000E+00 0.  1.
</event>
<event>
 8    1  0.1244838E-006  0.9118800E+02  0.7816164E-02  0.1184000E+00
        -11   -1    0    0    0    0  0.00000000000E+00  0.00000000000E+00  0.45593999997E+02  0.45594000000E+02  0.51100000000E-03 0.  1.
         11   -1    0    0    0    0 -0.00000000000E+00 -0.00000000000E+00 -0.45593999997E+02  0.45594000000E+02  0.51100000000E-03 0. -1.
         23    2    1    2    0    0  0.00000000000E+00 -0.35527136788E-14  0.00000000000E+00  0.91188000000E+02  0.91188000000E+02 0.  0.
    9900012    2    3    3    0    0 -0.27978216682E+02 -0.20039738729E+02  0.13092268537E+02  0.54367092454E+02  0.40000018868E+02 0.  0.
         12    1    3    3    0    0  0.27978216682E+02  0.20039738729E+02 -0.13092268537E+02  0.36820907546E+02  0.00000000000E+00 0. -1.
         11    1    4    4    0    0 -0.10622247008E+02 -0.11210939988E+02  0.14782379828E+02  0.21378401731E+02  0.51100000000E-03 0. -1.
        -11    1    4    4    0    0 -0.14991722210E+02 -0.16070068182E+01  0.10675853319E+02  0.18474524354E+02  0.51100000000E-03 0.  1.
         12    1    4    4    0    0 -0.23642474636E+01 -0.72217919233E+01 -0.12365964611E+02  0.14514166370E+02  0.00000000000E+00 0. -1.
</event>
<event>
 8    1  0.1244838E-006  0.9118800E+02  0.7816164E-02  0.1184000E+00
        -11   -1    0    0    0    0  0.00000000000E+00  0.00000000000E+00  0.45593999997E+02  0.45594000000E+02  0.51100000000E-03 0. -1.
         11   -1    0    0    0    0 -0.00000000000E+00 -0.00000000000E+00 -0.45593999997E+02  0.45594000000E+02  0.51100000000E-03 0.  1.
         23    2    1    2    0    0  0.17763568394E-14 -0.88817841970E-15  0.00000000000E+00  0.91188000000E+02  0.91188000000E+02 0.  0.
    9900012    2    3    3    0    0  0.13742332725E+02 -0.44632637741E+01  0.33867360157E+02  0.54367210814E+02  0.40000288692E+02 0.  0.
        -12    1    3    3    0    0 -0.13742332725E+02  0.44632637741E+01 -0.33867360157E+02  0.36820789186E+02  0.00000000000E+00 0.  1.
         11    1    4    4    0    0  0.22466666710E+02 -0.10946413906E+02  0.33027872511E+02  0.41417574208E+02  0.51100000000E-03 0. -1.
        -11    1    4    4    0    0 -0.53969226899E+01 -0.12519768430E+00 -0.53304160275E+00  0.54246274151E+01  0.51100000000E-03 0.  1.
         12    1    4    4    0    0 -0.33274112944E+01  0.66083478161E+01  0.13725292491E+01  0.75250091907E+01  0.00000000000E+00 0. -1.
</event>
<event>
 8    1  0.1244838E-006  0.9118800E+02  0.7816164E-02  0.1184000E+00
        -11   -1    0    0    0    0  0.00000000000E+00  0.00000000000E+00  0.45593999997E+02  0.45594000000E+02  0.51100000000E-03 0.  1.
         11   -1    0    0    0    0 -0.00000000000E+00 -0.00000000000E+00 -0.45593999997E+02  0.45594000000E+02  0.51100000000E-03 0. -1.
         23    2    1    2    0    0  0.00000000000E+00 -0.35527136788E-14  0.00000000000E+00  0.91188000000E+02  0.91188000000E+02 0.  0.
    9900012    2    3    3    0    0  0.72087560288E+01 -0.28909645949E+02 -0.21634375680E+02  0.54367081985E+02  0.39999995002E+02 0.  0.
        -12    1    3    3    0    0 -0.72087560288E+01  0.28909645949E+02  0.21634375680E+02  0.36820918015E+02  0.00000000000E+00 0.  1.
         11    1    4    4    0    0  0.76609489121E+01 -0.25264634456E+02 -0.15430031850E+02  0.30579041443E+02  0.51100000000E-03 0. -1.
        -11    1    4    4    0    0  0.92169695195E+01 -0.10264203140E+01  0.34314885807E+01  0.98884366775E+01  0.51100000000E-03 0.  1.
         12    1    4    4    0    0 -0.96691624028E+01 -0.26185911785E+01 -0.96358324112E+01  0.13899603864E+02  0.00000000000E+00 0. -1.
</event>
<event>
 8    1  0.1244838E-006  0.9118800E+02  0.7816164E-02  0.1184000E+00
        -11   -1    0    0    0    0  0.00000000000E+00  0.00000000000E+00  0.45593999997E+02  0.45594000000E+02  0.51100000000E-03 0.  1.
         11   -1    0    0    0    0 -0.00000000000E+00 -0.00000000000E+00 -0.45593999997E+02  0.45594000000E+02  0.51100000000E-03 0. -1.
         23    2    1    2    0    0  0.17763568394E-14  0.00000000000E+00  0.00000000000E+00  0.91188000000E+02  0.91188000000E+02 0.  0.
    9900012    2    3    3    0    0 -0.14652363143E+02  0.27579041191E+02 -0.19506011590E+02  0.54367085470E+02  0.40000002945E+02 0.  0.
        -12    1    3    3    0    0  0.14652363143E+02 -0.27579041191E+02  0.19506011590E+02  0.36820914530E+02  0.00000000000E+00 0.  1.
         11    1    4    4    0    0 -0.83386709999E+01  0.72472297165E+00 -0.17091657837E+02  0.19031117290E+02  0.51100000000E-03 0. -1.
        -11    1    4    4    0    0  0.63356252023E+01  0.12979870850E+02 -0.69380755470E+01  0.16023547876E+02  0.51100000000E-03 0.  1.
        -12    1    4    4    0    0 -0.12649317346E+02  0.13874447370E+02  0.45237217933E+01  0.19312420304E+02  0.00000000000E+00 0.  1.
</event>
<event>
 8    1  0.1244838E-006  0.9118800E+02  0.7816164E-02  0.1184000E+00
        -11   -1    0    0    0    0  0.00000000000E+00  0.00000000000E+00  0.45593999997E+02  0.45594000000E+02  0.51100000000E-03 0. -1.
         11   -1    0    0    0    0 -0.00000000000E+00 -0.00000000000E+00 -0.45593999997E+02  0.45594000000E+02  0.51100000000E-03 0.  1.
         23    2    1    2    0    0 -0.17763568394E-14  0.00000000000E+00  0.00000000000E+00  0.91188000000E+02  0.91188000000E+02 0.  0.
    9900012    2    3    3    0    0  0.15758666688E+02  0.33071585155E+02  0.37034320654E+01  0.54367072126E+02  0.39999972526E+02 0.  0.
        -12    1    3    3    0    0 -0.15758666688E+02 -0.33071585155E+02 -0.37034320654E+01  0.36820927874E+02  0.00000000000E+00 0.  1.
         11    1    4    4    0    0  0.24674236977E+02  0.21026937624E+02 -0.99316404679E+00  0.32433569821E+02  0.51100000000E-03 0. -1.
        -11    1    4    4    0    0 -0.19483160722E+01  0.12743859625E+02 -0.96609852373E+00  0.12928079527E+02  0.51100000000E-03 0.  1.
         12    1    4    4    0    0 -0.69672542166E+01 -0.69921209385E+00  0.56626946359E+01  0.90054227780E+01  0.00000000000E+00 0. -1.
</event>
<event>
 8    1  0.1244838E-006  0.9118800E+02  0.7816164E-02  0.1184000E+00
        -11   -1    0    0    0    0  0.00000000000E+00  0.00000000000E+00  0.45593999997E+02  0.45594000000E+02  0.51100000000E-03 0. -1.
         11   -1    0    0    0    0 -0.00000000000E+00 -0.00000000000E+00 -0.45593999997E+02  0.45594000000E+02  0.51100000000E-03 0.  1.
         23    2    1    2    0    0  0.55511151231E-16 -0.35527136788E-14  0.00000000000E+00  0.91188000000E+02  0.91188000000E+02 0.  0.
    9900012    2    3    3    0    0 -0.21855740796E+00  0.18803295367E+02 -0.31657038655E+02  0.54367085014E+02  0.40000001907E+02 0.  0.
         12    1    3    3    0    0  0.21855740796E+00 -0.18803295367E+02  0.31657038655E+02  0.36820914986E+02  0.00000000000E+00 0. -1.
         11    1    4    4    0    0 -0.17210972125E+01  0.45534944561E+01  0.10067577960E+01  0.49709203270E+01  0.51100000000E-03 0. -1.
        -11    1    4    4    0    0  0.20375157900E+01 -0.47513468254E+01 -0.29713508545E+02  0.30159896512E+02  0.51100000000E-03 0.  1.
        -12    1    4    4    0    0 -0.53497598544E+00  0.19001147736E+02 -0.29502879056E+01  0.19236268176E+02  0.00000000000E+00 0.  1.
</event>
<event>
 8    1  0.1244838E-006  0.9118800E+02  0.7816164E-02  0.1184000E+00
        -11   -1    0    0    0    0  0.00000000000E+00  0.00000000000E+00  0.45593999997E+02  0.45594000000E+02  0.51100000000E-03 0.  1.
         11   -1    0    0    0    0 -0.00000000000E+00 -0.00000000000E+00 -0.45593999997E+02  0.45594000000E+02  0.51100000000E-03 0. -1.
         23    2    1    2    0    0  0.00000000000E+00  0.00000000000E+00  0.11102230246E-14  0.91188000000E+02  0.91188000000E+02 0.  0.
    9900012    2    3    3    0    0 -0.32847460086E+02 -0.16598284186E+02 -0.11495717686E+01  0.54367079489E+02  0.39999989311E+02 0.  0.
        -12    1    3    3    0    0  0.32847460086E+02  0.16598284186E+02  0.11495717686E+01  0.36820920511E+02  0.00000000000E+00 0.  1.
         11    1    4    4    0    0 -0.24320765027E+02 -0.26646950591E+02  0.83360732904E+01  0.37027688362E+02  0.51100000000E-03 0. -1.
        -11    1    4    4    0    0 -0.60304058323E+01  0.84561107108E+01 -0.40466278647E+01  0.11146604873E+02  0.51100000000E-03 0.  1.
         12    1    4    4    0    0 -0.24962892271E+01  0.15925556942E+01 -0.54390171942E+01  0.61927862537E+01  0.00000000000E+00 0. -1.
</event>
<event>
 8    1  0.1244838E-006  0.9118800E+02  0.7816164E-02  0.1184000E+00
        -11   -1    0    0    0    0  0.00000000000E+00  0.00000000000E+00  0.45593999997E+02  0.45594000000E+02  0.51100000000E-03 0.  1.
         11   -1    0    0    0    0 -0.00000000000E+00 -0.00000000000E+00 -0.45593999997E+02  0.45594000000E+02  0.51100000000E-03 0. -1.
         23    2    1    2    0    0 -0.22204460493E-15  0.35527136788E-14  0.00000000000E+00  0.91188000000E+02  0.91188000000E+02 0.  0.
    9900012    2    3    3    0    0 -0.10388615787E+01  0.27183610866E+02  0.24814306414E+02  0.54367112777E+02  0.40000065197E+02 0.  0.
         12    1    3    3    0    0  0.10388615787E+01 -0.27183610866E+02 -0.24814306414E+02  0.36820887223E+02  0.00000000000E+00 0. -1.
         11    1    4    4    0    0  0.92570874672E+00  0.24054120437E+01 -0.72676426603E+01  0.77111331127E+01  0.51100000000E-03 0.  1.
        -11    1    4    4    0    0  0.68953967552E+01  0.20045480778E+01  0.12081940042E+01  0.72817884081E+01  0.51100000000E-03 0. -1.
        -12    1    4    4    0    0 -0.88599670806E+01  0.22773650745E+02  0.30873755070E+02  0.39374191256E+02  0.00000000000E+00 0.  1.
</event>
<event>
 8    1  0.1244838E-006  0.9118800E+02  0.7816164E-02  0.1184000E+00
        -11   -1    0    0    0    0  0.00000000000E+00  0.00000000000E+00  0.45593999997E+02  0.45594000000E+02  0.51100000000E-03 0.  1.
         11   -1    0    0    0    0 -0.00000000000E+00 -0.00000000000E+00 -0.45593999997E+02  0.45594000000E+02  0.51100000000E-03 0. -1.
         23    2    1    2    0    0  0.00000000000E+00 -0.35527136788E-14  0.00000000000E+00  0.91188000000E+02  0.91188000000E+02 0.  0.
    9900012    2    3    3    0    0 -0.11995260538E+02 -0.24507052000E+02  0.24724437573E+02  0.54367086290E+02  0.40000004816E+02 0.  0.
         12    1    3    3    0    0  0.11995260538E+02  0.24507052000E+02 -0.24724437573E+02  0.36820913710E+02  0.00000000000E+00 0. -1.
         11    1    4    4    0    0  0.27187528088E+01 -0.16206006914E+02 -0.20778551897E+01  0.16563325734E+02  0.51100000000E-03 0. -1.
        -11    1    4    4    0    0 -0.25474524885E+01  0.65176691844E+00 -0.32429103071E+01  0.41750187806E+01  0.51100000000E-03 0.  1.
        -12    1    4    4    0    0 -0.12166560858E+02 -0.89528120048E+01  0.30045203070E+02  0.33628741776E+02  0.00000000000E+00 0.  1.
</event>
<event>
 8    1  0.1244838E-006  0.9118800E+02  0.7816164E-02  0.1184000E+00
        -11   -1    0    0    0    0  0.00000000000E+00  0.00000000000E+00  0.45593999997E+02  0.45594000000E+02  0.51100000000E-03 0.  1.
         11   -1    0    0    0    0 -0.00000000000E+00 -0.00000000000E+00 -0.45593999997E+02  0.45594000000E+02  0.51100000000E-03 0. -1.
         23    2    1    2    0    0  0.00000000000E+00 -0.88817841970E-15  0.00000000000E+00  0.91188000000E+02  0.91188000000E+02 0.  0.
    9900012    2    3    3    0    0  0.26636494692E+02 -0.48035423853E+01 -0.24964031582E+02  0.54367085539E+02  0.40000003103E+02 0.  0.
        -12    1    3    3    0    0 -0.26636494692E+02  0.48035423853E+01  0.24964031582E+02  0.36820914461E+02  0.00000000000E+00 0.  1.
         11    1    4    4    0    0  0.73246045663E+01 -0.36361066475E+01 -0.17754772315E+02  0.19547456198E+02  0.51100000000E-03 0. -1.
        -11    1    4    4    0    0  0.87915935240E+01 -0.52324274211E+01 -0.17028634513E+02  0.19865669056E+02  0.51100000000E-03 0.  1.
        -12    1    4    4    0    0  0.10520296602E+02  0.40649916833E+01  0.98193752460E+01  0.14953960285E+02  0.00000000000E+00 0.  1.
</event>
<event>
 8    1  0.1244838E-006  0.9118800E+02  0.7816164E-02  0.1184000E+00
        -11   -1    0    0    0    0  0.00000000000E+00  0.00000000000E+00  0.45593999997E+02  0.45594000000E+02  0.51100000000E-03 0.  1.
         11   -1    0    0    0    0 -0.00000000000E+00 -0.00000000000E+00 -0.45593999997E+02  0.45594000000E+02  0.51100000000E-03 0. -1.
         23    2    1    2    0    0 -0.71054273576E-14  0.16306400674E-15  0.00000000000E+00  0.91188000000E+02  0.91188000000E+02 0.  0.
    9900012    2    3    3    0    0  0.33527877084E+02 -0.22835738922E-01  0.15220418479E+02  0.54367079291E+02  0.39999988859E+02 0.  0.
         12    1    3    3    0    0 -0.33527877084E+02  0.22835738922E-01 -0.15220418479E+02  0.36820920709E+02  0.00000000000E+00 0. -1.
         11    1    4    4    0    0  0.22053625251E+01 -0.47062447895E+01  0.12688256709E+00  0.51988905868E+01  0.51100000000E-03 0. -1.
        -11    1    4    4    0    0 -0.40829275290E+00  0.22483972151E+01  0.17127389536E+02  0.17279162757E+02  0.51100000000E-03 0.  1.
        -12    1    4    4    0    0  0.31730807311E+02  0.24350118355E+01 -0.20338536244E+01  0.31889025947E+02  0.00000000000E+00 0.  1.
</event>
<event>
 8    1  0.1244838E-006  0.9118800E+02  0.7816164E-02  0.1184000E+00
        -11   -1    0    0    0    0  0.00000000000E+00  0.00000000000E+00  0.45593999997E+02  0.45594000000E+02  0.51100000000E-03 0.  1.
         11   -1    0    0    0    0 -0.00000000000E+00 -0.00000000000E+00 -0.45593999997E+02  0.45594000000E+02  0.51100000000E-03 0. -1.
         23    2    1    2    0    0  0.00000000000E+00 -0.35527136788E-14  0.35527136788E-14  0.91188000000E+02  0.91188000000E+02 0.  0.
    9900012    2    3    3    0    0 -0.13759053923E+02 -0.28558765220E+02 -0.18731402278E+02  0.54367081121E+02  0.39999993032E+02 0.  0.
        -12    1    3    3    0    0  0.13759053923E+02  0.28558765220E+02  0.18731402278E+02  0.36820918879E+02  0.00000000000E+00 0.  1.
         11    1    4    4    0    0 -0.14151354862E+02 -0.15629985049E+02 -0.12849383383E+02  0.24691373608E+02  0.51100000000E-03 0. -1.
        -11    1    4    4    0    0 -0.60277319936E+01  0.59313427472E+01 -0.47990014077E+01  0.97234147574E+01  0.51100000000E-03 0.  1.
        -12    1    4    4    0    0  0.64200329325E+01 -0.18860122918E+02 -0.10830174881E+01  0.19952292756E+02  0.00000000000E+00 0.  1.
</event>
<event>
 8    1  0.1244838E-006  0.9118800E+02  0.7816164E-02  0.1184000E+00
        -11   -1    0    0    0    0  0.00000000000E+00  0.00000000000E+00  0.45593999997E+02  0.45594000000E+02  0.51100000000E-03 0. -1.
         11   -1    0    0    0    0 -0.00000000000E+00 -0.00000000000E+00 -0.45593999997E+02  0.45594000000E+02  0.51100000000E-03 0.  1.
         23    2    1    2    0    0 -0.44408920985E-15  0.44408920985E-15  0.00000000000E+00  0.91188000000E+02  0.91188000000E+02 0.  0.
    9900012    2    3    3    0    0 -0.37987938325E+01  0.25439249882E+01  0.36535978356E+02  0.54367080629E+02  0.39999991909E+02 0.  0.
        -12    1    3    3    0    0  0.37987938325E+01 -0.25439249882E+01 -0.36535978356E+02  0.36820919371E+02  0.00000000000E+00 0.  1.
         11    1    4    4    0    0 -0.34042418645E+01 -0.17305957901E+02  0.20183544250E+02  0.26804113496E+02  0.51100000000E-03 0. -1.
        -11    1    4    4    0    0  0.46957720535E+01  0.94950142620E+01  0.68418084466E+01  0.12610151232E+02  0.51100000000E-03 0.  1.
        -12    1    4    4    0    0 -0.50903240215E+01  0.10354868627E+02  0.95106256594E+01  0.14952815901E+02  0.00000000000E+00 0.  1.
</event>
<event>
 8    1  0.1244838E-006  0.9118800E+02  0.7816164E-02  0.1184000E+00
        -11   -1    0    0    0    0  0.00000000000E+00  0.00000000000E+00  0.45593999997E+02  0.45594000000E+02  0.51100000000E-03 0.  1.
         11   -1    0    0    0    0 -0.00000000000E+00 -0.00000000000E+00 -0.45593999997E+02  0.45594000000E+02  0.51100000000E-03 0. -1.
         23    2    1    2    0    0 -0.22204460493E-15  0.71054273576E-14 -0.17763568394E-14  0.91188000000E+02  0.91188000000E+02 0.  0.
    9900012    2    3    3    0    0  0.13118972765E+01  0.35594042615E+02  0.93340108675E+01  0.54367072486E+02  0.39999973345E+02 0.  0.
         12    1    3    3    0    0 -0.13118972765E+01 -0.35594042615E+02 -0.93340108675E+01  0.36820927514E+02  0.00000000000E+00 0. -1.
         11    1    4    4    0    0  0.41829687901E+01  0.60469147515E+00  0.91250566193E+01  0.10056318325E+02  0.51100000000E-03 0. -1.
        -11    1    4    4    0    0 -0.44455991886E+01  0.17486745206E+02 -0.13074326728E+02  0.22282002372E+02  0.51100000000E-03 0.  1.
        -12    1    4    4    0    0  0.15745276750E+01  0.17502605934E+02  0.13283280977E+02  0.22028751789E+02  0.00000000000E+00 0.  1.
</event>
<event>
 8    1  0.1244838E-006  0.9118800E+02  0.7816164E-02  0.1184000E+00
        -11   -1    0    0    0    0  0.00000000000E+00  0.00000000000E+00  0.45593999997E+02  0.45594000000E+02  0.51100000000E-03 0.  1.
         11   -1    0    0    0    0 -0.00000000000E+00 -0.00000000000E+00 -0.45593999997E+02  0.45594000000E+02  0.51100000000E-03 0. -1.
         23    2    1    2    0    0 -0.35527136788E-14  0.00000000000E+00  0.00000000000E+00  0.91188000000E+02  0.91188000000E+02 0.  0.
    9900012    2    3    3    0    0 -0.31500019864E+02 -0.16544912061E+02 -0.94759806949E+01  0.54367087780E+02  0.40000008213E+02 0.  0.
        -12    1    3    3    0    0  0.31500019864E+02  0.16544912061E+02  0.94759806949E+01  0.36820912220E+02  0.00000000000E+00 0.  1.
         11    1    4    4    0    0 -0.22393450926E+02 -0.93353055333E+01 -0.14139276849E+02  0.28080842648E+02  0.51100000000E-03 0. -1.
        -11    1    4    4    0    0  0.49746004431E+01  0.50822469746E+01  0.21309218250E+01  0.74240630362E+01  0.51100000000E-03 0.  1.
        -12    1    4    4    0    0 -0.14081169382E+02 -0.12291853502E+02  0.25323743287E+01  0.18862182096E+02  0.00000000000E+00 0.  1.
</event>
<event>
 8    1  0.1244838E-006  0.9118800E+02  0.7816164E-02  0.1184000E+00
        -11   -1    0    0    0    0  0.00000000000E+00  0.00000000000E+00  0.45593999997E+02  0.45594000000E+02  0.51100000000E-03 0.  1.
         11   -1    0    0    0    0 -0.00000000000E+00 -0.00000000000E+00 -0.45593999997E+02  0.45594000000E+02  0.51100000000E-03 0. -1.
         23    2    1    2    0    0  0.00000000000E+00  0.00000000000E+00  0.00000000000E+00  0.91188000000E+02  0.91188000000E+02 0.  0.
    9900012    2    3    3    0    0  0.15957959697E+02 -0.33008749069E+02  0.33979139179E+01  0.54367084588E+02  0.40000000936E+02 0.  0.
        -12    1    3    3    0    0 -0.15957959697E+02  0.33008749069E+02 -0.33979139179E+01  0.36820915412E+02  0.00000000000E+00 0.  1.
         11    1    4    4    0    0  0.17044508884E+02 -0.13918729870E+01 -0.89525007722E+01  0.19302846004E+02  0.51100000000E-03 0. -1.
        -11    1    4    4    0    0 -0.75138681276E+00 -0.29554880783E+01  0.43370172412E+01  0.53018120238E+01  0.51100000000E-03 0.  1.
         12    1    4    4    0    0 -0.33516237409E+00 -0.28661388003E+02  0.80133974489E+01  0.29762426560E+02  0.00000000000E+00 0. -1.
</event>
<event>
 8    1  0.1244838E-006  0.9118800E+02  0.7816164E-02  0.1184000E+00
        -11   -1    0    0    0    0  0.00000000000E+00  0.00000000000E+00  0.45593999997E+02  0.45594000000E+02  0.51100000000E-03 0. -1.
         11   -1    0    0    0    0 -0.00000000000E+00 -0.00000000000E+00 -0.45593999997E+02  0.45594000000E+02  0.51100000000E-03 0.  1.
         23    2    1    2    0    0  0.35527136788E-14 -0.88817841970E-15  0.00000000000E+00  0.91188000000E+02  0.91188000000E+02 0.  0.
    9900012    2    3    3    0    0 -0.29586802131E+02 -0.79657170407E+01 -0.20419294765E+02  0.54367094158E+02  0.40000022752E+02 0.  0.
         12    1    3    3    0    0  0.29586802131E+02  0.79657170407E+01  0.20419294765E+02  0.36820905842E+02  0.00000000000E+00 0. -1.
         11    1    4    4    0    0  0.45398008114E+00 -0.99234380721E+01 -0.54058294301E+01  0.11309452382E+02  0.51100000000E-03 0.  1.
        -11    1    4    4    0    0 -0.82410228344E+01  0.12437252780E+02 -0.66585670954E+00  0.14934626862E+02  0.51100000000E-03 0. -1.
        -12    1    4    4    0    0 -0.21799759378E+02 -0.10479531749E+02 -0.14347608625E+02  0.28123014915E+02  0.00000000000E+00 0.  1.
</event>
<event>
 8    1  0.1244838E-006  0.9118800E+02  0.7816164E-02  0.1184000E+00
        -11   -1    0    0    0    0  0.00000000000E+00  0.00000000000E+00  0.45593999997E+02  0.45594000000E+02  0.51100000000E-03 0. -1.
         11   -1    0    0    0    0 -0.00000000000E+00 -0.00000000000E+00 -0.45593999997E+02  0.45594000000E+02  0.51100000000E-03 0.  1.
         23    2    1    2    0    0 -0.88817841970E-15 -0.17763568394E-14 -0.71054273576E-14  0.91188000000E+02  0.91188000000E+02 0.  0.
    9900012    2    3    3    0    0 -0.52315009010E+01 -0.14819686260E+02 -0.33298433580E+02  0.54367117591E+02  0.40000076171E+02 0.  0.
         12    1    3    3    0    0  0.52315009010E+01  0.14819686260E+02  0.33298433580E+02  0.36820882409E+02  0.00000000000E+00 0. -1.
         11    1    4    4    0    0  0.35002982156E+00 -0.18136711415E+00  0.63683838212E+01  0.63805742423E+01  0.51100000000E-03 0. -1.
        -11    1    4    4    0    0  0.22619139235E+01  0.40983683709E+01 -0.17988449090E+01  0.50148500644E+01  0.51100000000E-03 0.  1.
        -12    1    4    4    0    0 -0.78434446460E+01 -0.18736687517E+02 -0.37867972492E+02  0.42971693284E+02  0.00000000000E+00 0.  1.
</event>
<event>
 8    1  0.1244838E-006  0.9118800E+02  0.7816164E-02  0.1184000E+00
        -11   -1    0    0    0    0  0.00000000000E+00  0.00000000000E+00  0.45593999997E+02  0.45594000000E+02  0.51100000000E-03 0. -1.
         11   -1    0    0    0    0 -0.00000000000E+00 -0.00000000000E+00 -0.45593999997E+02  0.45594000000E+02  0.51100000000E-03 0.  1.
         23    2    1    2    0    0  0.00000000000E+00 -0.88817841970E-15  0.00000000000E+00  0.91188000000E+02  0.91188000000E+02 0.  0.
    9900012    2    3    3    0    0  0.33085966308E+02 -0.35797314925E+01  0.15757028700E+02  0.54367087497E+02  0.40000007568E+02 0.  0.
        -12    1    3    3    0    0 -0.33085966308E+02  0.35797314925E+01 -0.15757028700E+02  0.36820912503E+02  0.00000000000E+00 0.  1.
         11    1    4    4    0    0  0.10551296607E+02  0.37373337401E+01  0.37746001930E-01  0.11193701291E+02  0.51100000000E-03 0. -1.
        -11    1    4    4    0    0  0.24187027456E+02  0.38812215257E+01  0.19424144332E+02  0.31262974282E+02  0.51100000000E-03 0.  1.
        -12    1    4    4    0    0 -0.16523577549E+01 -0.11198286758E+02 -0.37048616341E+01  0.11910411924E+02  0.00000000000E+00 0.  1.
</event>
<event>
 8    1  0.1244838E-006  0.9118800E+02  0.7816164E-02  0.1184000E+00
        -11   -1    0    0    0    0  0.00000000000E+00  0.00000000000E+00  0.45593999997E+02  0.45594000000E+02  0.51100000000E-03 0. -1.
         11   -1    0    0    0    0 -0.00000000000E+00 -0.00000000000E+00 -0.45593999997E+02  0.45594000000E+02  0.51100000000E-03 0.  1.
         23    2    1    2    0    0  0.00000000000E+00  0.00000000000E+00  0.00000000000E+00  0.91188000000E+02  0.91188000000E+02 0.  0.
    9900012    2    3    3    0    0  0.18572744160E+02 -0.24212382134E+02  0.20605700281E+02  0.54367066304E+02  0.39999959252E+02 0.  0.
        -12    1    3    3    0    0 -0.18572744160E+02  0.24212382134E+02 -0.20605700281E+02  0.36820933696E+02  0.00000000000E+00 0.  1.
         11    1    4    4    0    0 -0.38301993564E+00 -0.16772166378E+02 -0.70089862331E+01  0.18181808424E+02  0.51100000000E-03 0.  1.
        -11    1    4    4    0    0  0.18052824870E+02 -0.97847535617E+01  0.22343643179E+02  0.30346075180E+02  0.51100000000E-03 0. -1.
        -12    1    4    4    0    0  0.90293922519E+00  0.23445378059E+01  0.52710433345E+01  0.58391826998E+01  0.00000000000E+00 0.  1.
</event>
<event>
 8    1  0.1244838E-006  0.9118800E+02  0.7816164E-02  0.1184000E+00
        -11   -1    0    0    0    0  0.00000000000E+00  0.00000000000E+00  0.45593999997E+02  0.45594000000E+02  0.51100000000E-03 0. -1.
         11   -1    0    0    0    0 -0.00000000000E+00 -0.00000000000E+00 -0.45593999997E+02  0.45594000000E+02  0.51100000000E-03 0.  1.
         23    2    1    2    0    0 -0.71054273576E-14  0.00000000000E+00  0.35527136788E-14  0.91188000000E+02  0.91188000000E+02 0.  0.
    9900012    2    3    3    0    0 -0.24183343872E+02 -0.51158183346E+01  0.27290518217E+02  0.54367107798E+02  0.40000053847E+02 0.  0.
        -12    1    3    3    0    0  0.24183343872E+02  0.51158183346E+01 -0.27290518217E+02  0.36820892202E+02  0.00000000000E+00 0.  1.
         11    1    4    4    0    0  0.20028991384E+01 -0.24973062600E+01  0.15587831427E+01  0.35606107147E+01  0.51100000000E-03 0. -1.
        -11    1    4    4    0    0  0.45951240410E+01 -0.85138934313E+01 -0.84861319037E+00  0.97119354878E+01  0.51100000000E-03 0.  1.
         12    1    4    4    0    0 -0.30781367051E+02  0.58953813567E+01  0.26580348264E+02  0.41094561595E+02  0.00000000000E+00 0. -1.
</event>
<event>
 8    1  0.1244838E-006  0.9118800E+02  0.7816164E-02  0.1184000E+00
        -11   -1    0    0    0    0  0.00000000000E+00  0.00000000000E+00  0.45593999997E+02  0.45594000000E+02  0.51100000000E-03 0. -1.
         11   -1    0    0    0    0 -0.00000000000E+00 -0.00000000000E+00 -0.45593999997E+02  0.45594000000E+02  0.51100000000E-03 0.  1.
         23    2    1    2    0    0  0.35527136788E-14 -0.17763568394E-14 -0.35527136788E-14  0.91188000000E+02  0.91188000000E+02 0.  0.
    9900012    2    3    3    0    0 -0.19349119060E+02  0.15109867059E+02  0.27442348225E+02  0.54367096059E+02  0.40000027085E+02 0.  0.
        -12    1    3    3    0    0  0.19349119060E+02 -0.15109867059E+02 -0.27442348225E+02  0.36820903941E+02  0.00000000000E+00 0.  1.
         11    1    4    4    0    0 -0.21378113601E+01 -0.30721356710E+01 -0.16041470531E+01  0.40720440840E+01  0.51100000000E-03 0.  1.
        -11    1    4    4    0    0 -0.85655784469E+01  0.26827488199E+02  0.24240866184E+02  0.37157810092E+02  0.51100000000E-03 0. -1.
        -12    1    4    4    0    0 -0.86457292529E+01 -0.86454854685E+01  0.48056290940E+01  0.13137241883E+02  0.00000000000E+00 0.  1.
</event>
<event>
 8    1  0.1244838E-006  0.9118800E+02  0.7816164E-02  0.1184000E+00
        -11   -1    0    0    0    0  0.00000000000E+00  0.00000000000E+00  0.45593999997E+02  0.45594000000E+02  0.51100000000E-03 0.  1.
         11   -1    0    0    0    0 -0.00000000000E+00 -0.00000000000E+00 -0.45593999997E+02  0.45594000000E+02  0.51100000000E-03 0. -1.
         23    2    1    2    0    0  0.00000000000E+00  0.88817841970E-15 -0.35527136788E-14  0.91188000000E+02  0.91188000000E+02 0.  0.
    9900012    2    3    3    0    0 -0.23682624575E+02 -0.51451619638E+01 -0.27720767762E+02  0.54367077093E+02  0.39999983849E+02 0.  0.
        -12    1    3    3    0    0  0.23682624575E+02  0.51451619638E+01  0.27720767762E+02  0.36820922907E+02  0.00000000000E+00 0.  1.
         11    1    4    4    0    0 -0.13699730570E+02  0.12224199606E+02 -0.87620962387E+01  0.20344237623E+02  0.51100000000E-03 0. -1.
        -11    1    4    4    0    0 -0.17951054302E+01 -0.64806321494E+00  0.40188918313E+01  0.44490314956E+01  0.51100000000E-03 0.  1.
         12    1    4    4    0    0 -0.81877885745E+01 -0.16721298355E+02 -0.22977563355E+02  0.29573807975E+02  0.00000000000E+00 0. -1.
</event>
<event>
 8    1  0.1244838E-006  0.9118800E+02  0.7816164E-02  0.1184000E+00
        -11   -1    0    0    0    0  0.00000000000E+00  0.00000000000E+00  0.45593999997E+02  0.45594000000E+02  0.51100000000E-03 0. -1.
         11   -1    0    0    0    0 -0.00000000000E+00 -0.00000000000E+00 -0.45593999997E+02  0.45594000000E+02  0.51100000000E-03 0.  1.
         23    2    1    2    0    0 -0.13322676296E-14  0.00000000000E+00  0.00000000000E+00  0.91188000000E+02  0.91188000000E+02 0.  0.
    9900012    2    3    3    0    0 -0.38390140801E+01 -0.14594992679E+02 -0.33586131783E+02  0.54367080830E+02  0.39999992367E+02 0.  0.
         12    1    3    3    0    0  0.38390140801E+01  0.14594992679E+02  0.33586131783E+02  0.36820919170E+02  0.00000000000E+00 0. -1.
         11    1    4    4    0    0 -0.10945735068E+02 -0.16084697640E+00 -0.15942952708E+02  0.19339408710E+02  0.51100000000E-03 0. -1.
        -11    1    4    4    0    0 -0.93371733253E+01 -0.68177463112E+01 -0.36243210669E+01  0.12116112162E+02  0.51100000000E-03 0.  1.
        -12    1    4    4    0    0  0.16443894313E+02 -0.76163993911E+01 -0.14018858008E+02  0.22911559958E+02  0.00000000000E+00 0.  1.
</event>
<event>
 8    1  0.1244838E-006  0.9118800E+02  0.7816164E-02  0.1184000E+00
        -11   -1    0    0    0    0  0.00000000000E+00  0.00000000000E+00  0.45593999997E+02  0.45594000000E+02  0.51100000000E-03 0. -1.
         11   -1    0    0    0    0 -0.00000000000E+00 -0.00000000000E+00 -0.45593999997E+02  0.45594000000E+02  0.51100000000E-03 0.  1.
         23    2    1    2    0    0  0.00000000000E+00  0.00000000000E+00  0.88817841970E-15  0.91188000000E+02  0.91188000000E+02 0.  0.
    9900012    2    3    3    0    0  0.30945408446E+02  0.18954055941E+02 -0.62374309065E+01  0.54367080880E+02  0.39999992482E+02 0.  0.
        -12    1    3    3    0    0 -0.30945408446E+02 -0.18954055941E+02  0.62374309065E+01  0.36820919120E+02  0.00000000000E+00 0.  1.
         11    1    4    4    0    0  0.68578110860E+01  0.63873994132E+01 -0.88743148677E+01  0.12906661411E+02  0.51100000000E-03 0. -1.
        -11    1    4    4    0    0  0.12710364625E+01  0.15316257247E+02 -0.65553966944E+01  0.16708575518E+02  0.51100000000E-03 0.  1.
         12    1    4    4    0    0  0.22816560898E+02 -0.27496007188E+01  0.91922806556E+01  0.24751843951E+02  0.00000000000E+00 0. -1.
</event>
<event>
 8    1  0.1244838E-006  0.9118800E+02  0.7816164E-02  0.1184000E+00
        -11   -1    0    0    0    0  0.00000000000E+00  0.00000000000E+00  0.45593999997E+02  0.45594000000E+02  0.51100000000E-03 0. -1.
         11   -1    0    0    0    0 -0.00000000000E+00 -0.00000000000E+00 -0.45593999997E+02  0.45594000000E+02  0.51100000000E-03 0.  1.
         23    2    1    2    0    0  0.00000000000E+00  0.00000000000E+00  0.88817841970E-15  0.91188000000E+02  0.91188000000E+02 0.  0.
    9900012    2    3    3    0    0 -0.31096364943E+02  0.18729401511E+02  0.61648342318E+01  0.54367087807E+02  0.40000008274E+02 0.  0.
        -12    1    3    3    0    0  0.31096364943E+02 -0.18729401511E+02 -0.61648342318E+01  0.36820912193E+02  0.00000000000E+00 0.  1.
         11    1    4    4    0    0 -0.31200070899E+01  0.11163713601E+02 -0.50203153727E+01  0.12631963913E+02  0.51100000000E-03 0. -1.
        -11    1    4    4    0    0 -0.10228808035E+01 -0.86263191316E+01  0.13592232607E+01  0.87924487506E+01  0.51100000000E-03 0.  1.
         12    1    4    4    0    0 -0.26953477049E+02  0.16192007042E+02  0.98259263438E+01  0.32942675143E+02  0.00000000000E+00 0. -1.
</event>
<event>
 8    1  0.1244838E-006  0.9118800E+02  0.7816164E-02  0.1184000E+00
        -11   -1    0    0    0    0  0.00000000000E+00  0.00000000000E+00  0.45593999997E+02  0.45594000000E+02  0.51100000000E-03 0. -1.
         11   -1    0    0    0    0 -0.00000000000E+00 -0.00000000000E+00 -0.45593999997E+02  0.45594000000E+02  0.51100000000E-03 0.  1.
         23    2    1    2    0    0  0.00000000000E+00  0.00000000000E+00  0.00000000000E+00  0.91188000000E+02  0.91188000000E+02 0.  0.
    9900012    2    3    3    0    0 -0.35516601349E+02  0.96534549807E+01  0.10781856719E+01  0.54367073222E+02  0.39999975023E+02 0.  0.
         12    1    3    3    0    0  0.35516601349E+02 -0.96534549807E+01 -0.10781856719E+01  0.36820926778E+02  0.00000000000E+00 0. -1.
         11    1    4    4    0    0 -0.70116798911E+01  0.11620358631E+02 -0.71083360592E+01  0.15320732078E+02  0.51100000000E-03 0. -1.
        -11    1    4    4    0    0  0.21071768484E+01  0.60262761203E+01  0.74503018067E-01  0.63844928623E+01  0.51100000000E-03 0.  1.
        -12    1    4    4    0    0 -0.30612098307E+02 -0.79931797702E+01  0.81120187130E+01  0.32661848282E+02  0.00000000000E+00 0.  1.
</event>
<event>
 8    1  0.1244838E-006  0.9118800E+02  0.7816164E-02  0.1184000E+00
        -11   -1    0    0    0    0  0.00000000000E+00  0.00000000000E+00  0.45593999997E+02  0.45594000000E+02  0.51100000000E-03 0.  1.
         11   -1    0    0    0    0 -0.00000000000E+00 -0.00000000000E+00 -0.45593999997E+02  0.45594000000E+02  0.51100000000E-03 0. -1.
         23    2    1    2    0    0 -0.44408920985E-15  0.00000000000E+00  0.00000000000E+00  0.91188000000E+02  0.91188000000E+02 0.  0.
    9900012    2    3    3    0    0 -0.20766265634E+01  0.29902841270E+02 -0.21384274531E+02  0.54367088942E+02  0.40000010861E+02 0.  0.
        -12    1    3    3    0    0  0.20766265634E+01 -0.29902841270E+02  0.21384274531E+02  0.36820911058E+02  0.00000000000E+00 0.  1.
         11    1    4    4    0    0  0.68825307722E+00  0.13111669583E+02 -0.85688835987E+00  0.13157652886E+02  0.51100000000E-03 0. -1.
        -11    1    4    4    0    0  0.12427248140E+02  0.67012731854E+01 -0.17877462106E+02  0.22780412864E+02  0.51100000000E-03 0.  1.
        -12    1    4    4    0    0 -0.15192127780E+02  0.10089898502E+02 -0.26499240649E+01  0.18429023192E+02  0.00000000000E+00 0.  1.
</event>
<event>
 8    1  0.1244838E-006  0.9118800E+02  0.7816164E-02  0.1184000E+00
        -11   -1    0    0    0    0  0.00000000000E+00  0.00000000000E+00  0.45593999997E+02  0.45594000000E+02  0.51100000000E-03 0. -1.
         11   -1    0    0    0    0 -0.00000000000E+00 -0.00000000000E+00 -0.45593999997E+02  0.45594000000E+02  0.51100000000E-03 0.  1.
         23    2    1    2    0    0  0.00000000000E+00  0.00000000000E+00 -0.35527136788E-14  0.91188000000E+02  0.91188000000E+02 0.  0.
    9900012    2    3    3    0    0 -0.17403214419E+02  0.64102787932E+01 -0.31809020029E+02  0.54367118675E+02  0.40000078644E+02 0.  0.
         12    1    3    3    0    0  0.17403214419E+02 -0.64102787932E+01  0.31809020029E+02  0.36820881325E+02  0.00000000000E+00 0. -1.
         11    1    4    4    0    0 -0.62517367338E+01  0.11454306095E+01  0.15394737784E+01  0.65395873910E+01  0.51100000000E-03 0. -1.
        -11    1    4    4    0    0  0.90368154702E+01  0.66084252478E+01 -0.34284210274E+01  0.11708517801E+02  0.51100000000E-03 0.  1.
        -12    1    4    4    0    0 -0.20188293155E+02 -0.13435770640E+01 -0.29920072780E+02  0.36119013483E+02  0.00000000000E+00 0.  1.
</event>
<event>
 8    1  0.1244838E-006  0.9118800E+02  0.7816164E-02  0.1184000E+00
        -11   -1    0    0    0    0  0.00000000000E+00  0.00000000000E+00  0.45593999997E+02  0.45594000000E+02  0.51100000000E-03 0.  1.
         11   -1    0    0    0    0 -0.00000000000E+00 -0.00000000000E+00 -0.45593999997E+02  0.45594000000E+02  0.51100000000E-03 0. -1.
         23    2    1    2    0    0 -0.35527136788E-14 -0.17763568394E-14 -0.35527136788E-14  0.91188000000E+02  0.91188000000E+02 0.  0.
    9900012    2    3    3    0    0  0.28148499022E+02 -0.91207086290E+01  0.21914714048E+02  0.54367081830E+02  0.39999994648E+02 0.  0.
         12    1    3    3    0    0 -0.28148499022E+02  0.91207086290E+01 -0.21914714048E+02  0.36820918170E+02  0.00000000000E+00 0. -1.
         11    1    4    4    0    0 -0.20711080595E+01 -0.54793589237E+01 -0.44272899300E+00  0.58744252512E+01  0.51100000000E-03 0.  1.
        -11    1    4    4    0    0  0.22616748105E+01  0.95107003953E+01 -0.90475933128E+00  0.98176975237E+01  0.51100000000E-03 0. -1.
        -12    1    4    4    0    0  0.27957932271E+02 -0.13152050101E+02  0.23262202372E+02  0.38674959055E+02  0.00000000000E+00 0.  1.
</event>
<event>
 8    1  0.1244838E-006  0.9118800E+02  0.7816164E-02  0.1184000E+00
        -11   -1    0    0    0    0  0.00000000000E+00  0.00000000000E+00  0.45593999997E+02  0.45594000000E+02  0.51100000000E-03 0.  1.
         11   -1    0    0    0    0 -0.00000000000E+00 -0.00000000000E+00 -0.45593999997E+02  0.45594000000E+02  0.51100000000E-03 0. -1.
         23    2    1    2    0    0  0.00000000000E+00  0.00000000000E+00  0.35527136788E-14  0.91188000000E+02  0.91188000000E+02 0.  0.
    9900012    2    3    3    0    0 -0.98176075928E+01  0.33398443062E+02 -0.11997425047E+02  0.54367087116E+02  0.40000006699E+02 0.  0.
        -12    1    3    3    0    0  0.98176075928E+01 -0.33398443062E+02  0.11997425047E+02  0.36820912884E+02  0.00000000000E+00 0.  1.
         11    1    4    4    0    0 -0.14945921684E+02  0.95467218769E+01  0.29319632029E+01  0.17975452208E+02  0.51100000000E-03 0. -1.
        -11    1    4    4    0    0  0.24107591104E+01  0.16139226697E+01  0.54061678894E+01  0.61354019739E+01  0.51100000000E-03 0.  1.
         12    1    4    4    0    0  0.27175549812E+01  0.22237798516E+02 -0.20335556139E+02  0.30256232935E+02  0.00000000000E+00 0. -1.
</event>
<event>
 8    1  0.1244838E-006  0.9118800E+02  0.7816164E-02  0.1184000E+00
        -11   -1    0    0    0    0  0.00000000000E+00  0.00000000000E+00  0.45593999997E+02  0.45594000000E+02  0.51100000000E-03 0. -1.
         11   -1    0    0    0    0 -0.00000000000E+00 -0.00000000000E+00 -0.45593999997E+02  0.45594000000E+02  0.51100000000E-03 0.  1.
         23    2    1    2    0    0 -0.17763568394E-14  0.00000000000E+00  0.00000000000E+00  0.91188000000E+02  0.91188000000E+02 0.  0.
    9900012    2    3    3    0    0 -0.14623695543E+02 -0.29235194190E+02  0.16947921842E+02  0.54367067021E+02  0.39999960889E+02 0.  0.
        -12    1    3    3    0    0  0.14623695543E+02  0.29235194190E+02 -0.16947921842E+02  0.36820932979E+02  0.00000000000E+00 0.  1.
         11    1    4    4    0    0 -0.95061170954E+00  0.20490706061E+01  0.63619212848E+01  0.67510292301E+01  0.51100000000E-03 0. -1.
        -11    1    4    4    0    0 -0.30183078924E+01 -0.11948051059E+01 -0.94070783193E+01  0.99514252518E+01  0.51100000000E-03 0.  1.
        -12    1    4    4    0    0 -0.10654775941E+02 -0.30089459690E+02  0.19993078877E+02  0.37664612540E+02  0.00000000000E+00 0.  1.
</event>
<event>
 8    1  0.1244838E-006  0.9118800E+02  0.7816164E-02  0.1184000E+00
        -11   -1    0    0    0    0  0.00000000000E+00  0.00000000000E+00  0.45593999997E+02  0.45594000000E+02  0.51100000000E-03 0. -1.
         11   -1    0    0    0    0 -0.00000000000E+00 -0.00000000000E+00 -0.45593999997E+02  0.45594000000E+02  0.51100000000E-03 0.  1.
         23    2    1    2    0    0  0.35527136788E-14 -0.11102230246E-15  0.71054273576E-14  0.91188000000E+02  0.91188000000E+02 0.  0.
    9900012    2    3    3    0    0 -0.14919236847E+02  0.46650510172E+00 -0.33659750860E+02  0.54367080904E+02  0.39999992538E+02 0.  0.
         12    1    3    3    0    0  0.14919236847E+02 -0.46650510172E+00  0.33659750860E+02  0.36820919096E+02  0.00000000000E+00 0. -1.
         11    1    4    4    0    0 -0.43951015547E+01  0.53121449152E+01  0.57912080593E+01  0.90041041933E+01  0.51100000000E-03 0. -1.
        -11    1    4    4    0    0  0.53651104401E+01 -0.22531870831E+01 -0.14985495835E+02  0.16075644552E+02  0.51100000000E-03 0.  1.
        -12    1    4    4    0    0 -0.15889245732E+02 -0.25924527304E+01 -0.24465463084E+02  0.29287332159E+02  0.00000000000E+00 0.  1.
</event>
<event>
 8    1  0.1244838E-006  0.9118800E+02  0.7816164E-02  0.1184000E+00
        -11   -1    0    0    0    0  0.00000000000E+00  0.00000000000E+00  0.45593999997E+02  0.45594000000E+02  0.51100000000E-03 0.  1.
         11   -1    0    0    0    0 -0.00000000000E+00 -0.00000000000E+00 -0.45593999997E+02  0.45594000000E+02  0.51100000000E-03 0. -1.
         23    2    1    2    0    0  0.00000000000E+00 -0.35527136788E-14 -0.35527136788E-14  0.91188000000E+02  0.91188000000E+02 0.  0.
    9900012    2    3    3    0    0  0.18716746335E+02 -0.29750917925E+02 -0.10970253905E+02  0.54367079568E+02  0.39999989490E+02 0.  0.
        -12    1    3    3    0    0 -0.18716746335E+02  0.29750917925E+02  0.10970253905E+02  0.36820920432E+02  0.00000000000E+00 0.  1.
         11    1    4    4    0    0  0.85769854068E+01 -0.27018618957E+02 -0.18978996003E+02  0.34114113480E+02  0.51100000000E-03 0. -1.
        -11    1    4    4    0    0  0.24784907988E+01  0.20155087144E+01  0.10439876772E+02  0.10917702107E+02  0.51100000000E-03 0.  1.
        -12    1    4    4    0    0  0.76612701296E+01 -0.47478076826E+01 -0.24311346738E+01  0.93352639808E+01  0.00000000000E+00 0.  1.
</event>
<event>
 8    1  0.1244838E-006  0.9118800E+02  0.7816164E-02  0.1184000E+00
        -11   -1    0    0    0    0  0.00000000000E+00  0.00000000000E+00  0.45593999997E+02  0.45594000000E+02  0.51100000000E-03 0.  1.
         11   -1    0    0    0    0 -0.00000000000E+00 -0.00000000000E+00 -0.45593999997E+02  0.45594000000E+02  0.51100000000E-03 0. -1.
         23    2    1    2    0    0 -0.88817841970E-15  0.17763568394E-14 -0.71054273576E-14  0.91188000000E+02  0.91188000000E+02 0.  0.
    9900012    2    3    3    0    0  0.59478233692E+01 -0.14064818705E+02 -0.33504985212E+02  0.54367085263E+02  0.40000002474E+02 0.  0.
        -12    1    3    3    0    0 -0.59478233692E+01  0.14064818705E+02  0.33504985212E+02  0.36820914737E+02  0.00000000000E+00 0.  1.
         11    1    4    4    0    0 -0.67338083017E+00 -0.25312836340E+01 -0.13943522416E+02  0.14187411893E+02  0.51100000000E-03 0. -1.
        -11    1    4    4    0    0  0.12438629039E+02  0.53489185868E+01  0.20547377166E+00  0.13541515504E+02  0.51100000000E-03 0.  1.
        -12    1    4    4    0    0 -0.58174248391E+01 -0.16882453658E+02 -0.19766936567E+02  0.26638157866E+02  0.00000000000E+00 0.  1.
</event>
<event>
 8    1  0.1244838E-006  0.9118800E+02  0.7816164E-02  0.1184000E+00
        -11   -1    0    0    0    0  0.00000000000E+00  0.00000000000E+00  0.45593999997E+02  0.45594000000E+02  0.51100000000E-03 0.  1.
         11   -1    0    0    0    0 -0.00000000000E+00 -0.00000000000E+00 -0.45593999997E+02  0.45594000000E+02  0.51100000000E-03 0. -1.
         23    2    1    2    0    0  0.00000000000E+00  0.35527136788E-14  0.00000000000E+00  0.91188000000E+02  0.91188000000E+02 0.  0.
    9900012    2    3    3    0    0 -0.22528395999E+02 -0.17183948860E+02  0.23515175077E+02  0.54367079539E+02  0.39999989425E+02 0.  0.
         12    1    3    3    0    0  0.22528395999E+02  0.17183948860E+02 -0.23515175077E+02  0.36820920461E+02  0.00000000000E+00 0. -1.
         11    1    4    4    0    0 -0.31113123438E+01  0.15345391957E+00 -0.64597413877E+01  0.71716156941E+01  0.51100000000E-03 0. -1.
        -11    1    4    4    0    0 -0.23935667744E+02 -0.89400517463E+01  0.27076737323E+02  0.37228892273E+02  0.51100000000E-03 0.  1.
         12    1    4    4    0    0  0.45185840892E+01 -0.83973510337E+01  0.28981791415E+01  0.99665715716E+01  0.00000000000E+00 0. -1.
</event>
<event>
 8    1  0.1244838E-006  0.9118800E+02  0.7816164E-02  0.1184000E+00
        -11   -1    0    0    0    0  0.00000000000E+00  0.00000000000E+00  0.45593999997E+02  0.45594000000E+02  0.51100000000E-03 0.  1.
         11   -1    0    0    0    0 -0.00000000000E+00 -0.00000000000E+00 -0.45593999997E+02  0.45594000000E+02  0.51100000000E-03 0. -1.
         23    2    1    2    0    0  0.00000000000E+00  0.35527136788E-14  0.35527136788E-14  0.91188000000E+02  0.91188000000E+02 0.  0.
    9900012    2    3    3    0    0  0.56774973360E+01 -0.29180672209E+02 -0.21726352491E+02  0.54367082044E+02  0.39999995136E+02 0.  0.
        -12    1    3    3    0    0 -0.56774973360E+01  0.29180672209E+02  0.21726352491E+02  0.36820917956E+02  0.00000000000E+00 0.  1.
         11    1    4    4    0    0  0.79418122353E+01 -0.13474620098E+02 -0.18512445756E+02  0.24235272157E+02  0.51100000000E-03 0. -1.
        -11    1    4    4    0    0  0.50318183570E+01 -0.12163726754E+02 -0.12255630211E+02  0.17985436237E+02  0.51100000000E-03 0.  1.
        -12    1    4    4    0    0 -0.72961332564E+01 -0.35423253568E+01  0.90417234763E+01  0.12146373650E+02  0.00000000000E+00 0.  1.
</event>
<event>
 8    1  0.1244838E-006  0.9118800E+02  0.7816164E-02  0.1184000E+00
        -11   -1    0    0    0    0  0.00000000000E+00  0.00000000000E+00  0.45593999997E+02  0.45594000000E+02  0.51100000000E-03 0.  1.
         11   -1    0    0    0    0 -0.00000000000E+00 -0.00000000000E+00 -0.45593999997E+02  0.45594000000E+02  0.51100000000E-03 0. -1.
         23    2    1    2    0    0  0.00000000000E+00 -0.35527136788E-14 -0.71054273576E-14  0.91188000000E+02  0.91188000000E+02 0.  0.
    9900012    2    3    3    0    0  0.77334796418E+01  0.23471596629E+02  0.27295873663E+02  0.54366983248E+02  0.39999769909E+02 0.  0.
         12    1    3    3    0    0 -0.77334796418E+01 -0.23471596629E+02 -0.27295873663E+02  0.36821016752E+02  0.00000000000E+00 0. -1.
         11    1    4    4    0    0  0.23854605309E+01  0.74195821721E+01 -0.15072194003E+01  0.79380307467E+01  0.51100000000E-03 0. -1.
        -11    1    4    4    0    0 -0.83824769184E+00  0.13432879366E+01 -0.70286807666E+01  0.72048202791E+01  0.51100000000E-03 0.  1.
        -12    1    4    4    0    0  0.61862668027E+01  0.14708726520E+02  0.35831773829E+02  0.39224132222E+02  0.00000000000E+00 0.  1.
</event>
<event>
 8    1  0.1244838E-006  0.9118800E+02  0.7816164E-02  0.1184000E+00
        -11   -1    0    0    0    0  0.00000000000E+00  0.00000000000E+00  0.45593999997E+02  0.45594000000E+02  0.51100000000E-03 0.  1.
         11   -1    0    0    0    0 -0.00000000000E+00 -0.00000000000E+00 -0.45593999997E+02  0.45594000000E+02  0.51100000000E-03 0. -1.
         23    2    1    2    0    0  0.00000000000E+00  0.35527136788E-14  0.00000000000E+00  0.91188000000E+02  0.91188000000E+02 0.  0.
    9900012    2    3    3    0    0 -0.92596966328E+01 -0.31710023878E+02  0.16263819945E+02  0.54367089700E+02  0.40000012590E+02 0.  0.
        -12    1    3    3    0    0  0.92596966328E+01  0.31710023878E+02 -0.16263819945E+02  0.36820910300E+02  0.00000000000E+00 0.  1.
         11    1    4    4    0    0  0.33502326201E+01 -0.11298482637E+00 -0.54410317301E+00  0.33960083486E+01  0.51100000000E-03 0. -1.
        -11    1    4    4    0    0  0.81598074394E+01 -0.90429679943E+01  0.16246602824E+02  0.20305413839E+02  0.51100000000E-03 0.  1.
         12    1    4    4    0    0 -0.20769736692E+02 -0.22554071057E+02  0.56132029441E+00  0.30665667513E+02  0.00000000000E+00 0. -1.
</event>
<event>
 8    1  0.1244838E-006  0.9118800E+02  0.7816164E-02  0.1184000E+00
        -11   -1    0    0    0    0  0.00000000000E+00  0.00000000000E+00  0.45593999997E+02  0.45594000000E+02  0.51100000000E-03 0.  1.
         11   -1    0    0    0    0 -0.00000000000E+00 -0.00000000000E+00 -0.45593999997E+02  0.45594000000E+02  0.51100000000E-03 0. -1.
         23    2    1    2    0    0  0.00000000000E+00 -0.35527136788E-14  0.00000000000E+00  0.91188000000E+02  0.91188000000E+02 0.  0.
    9900012    2    3    3    0    0 -0.18799052559E+02 -0.22899150784E+02 -0.21863321869E+02  0.54367077593E+02  0.39999984989E+02 0.  0.
         12    1    3    3    0    0  0.18799052559E+02  0.22899150784E+02  0.21863321869E+02  0.36820922407E+02  0.00000000000E+00 0. -1.
         11    1    4    4    0    0 -0.12430861854E+02  0.19486049852E+01 -0.59577908324E+01  0.13921877017E+02  0.51100000000E-03 0. -1.
        -11    1    4    4    0    0 -0.88972855800E+01 -0.29003341139E+02 -0.17858159186E+02  0.35203257487E+02  0.51100000000E-03 0.  1.
        -12    1    4    4    0    0  0.25290948747E+01  0.41555853708E+01  0.19526281492E+01  0.52419430890E+01  0.00000000000E+00 0.  1.
</event>
<event>
 8    1  0.1244838E-006  0.9118800E+02  0.7816164E-02  0.1184000E+00
        -11   -1    0    0    0    0  0.00000000000E+00  0.00000000000E+00  0.45593999997E+02  0.45594000000E+02  0.51100000000E-03 0.  1.
         11   -1    0    0    0    0 -0.00000000000E+00 -0.00000000000E+00 -0.45593999997E+02  0.45594000000E+02  0.51100000000E-03 0. -1.
         23    2    1    2    0    0  0.00000000000E+00  0.00000000000E+00  0.00000000000E+00  0.91188000000E+02  0.91188000000E+02 0.  0.
    9900012    2    3    3    0    0 -0.25331523785E+01 -0.34832358973E+02 -0.11664895871E+02  0.54367083549E+02  0.39999998566E+02 0.  0.
        -12    1    3    3    0    0  0.25331523785E+01  0.34832358973E+02  0.11664895871E+02  0.36820916451E+02  0.00000000000E+00 0.  1.
         11    1    4    4    0    0 -0.22086243371E+01 -0.77846652108E+01 -0.11730510432E+02  0.14250751179E+02  0.51100000000E-03 0. -1.
        -11    1    4    4    0    0 -0.12848691989E+02 -0.41957031377E+01  0.31409959386E+01  0.13876550955E+02  0.51100000000E-03 0.  1.
         12    1    4    4    0    0  0.12524163948E+02 -0.22851990625E+02 -0.30753813782E+01  0.26239781415E+02  0.00000000000E+00 0. -1.
</event>
<event>
 8    1  0.1244838E-006  0.9118800E+02  0.7816164E-02  0.1184000E+00
        -11   -1    0    0    0    0  0.00000000000E+00  0.00000000000E+00  0.45593999997E+02  0.45594000000E+02  0.51100000000E-03 0. -1.
         11   -1    0    0    0    0 -0.00000000000E+00 -0.00000000000E+00 -0.45593999997E+02  0.45594000000E+02  0.51100000000E-03 0.  1.
         23    2    1    2    0    0  0.00000000000E+00 -0.35527136788E-14 -0.35527136788E-14  0.91188000000E+02  0.91188000000E+02 0.  0.
    9900012    2    3    3    0    0  0.54563635018E+01  0.20691874619E+02 -0.29964244939E+02  0.54367060948E+02  0.39999947043E+02 0.  0.
         12    1    3    3    0    0 -0.54563635018E+01 -0.20691874619E+02  0.29964244939E+02  0.36820939052E+02  0.00000000000E+00 0. -1.
         11    1    4    4    0    0  0.16564176929E+02  0.29423940248E+01 -0.80664167216E+00  0.16842811849E+02  0.51100000000E-03 0. -1.
        -11    1    4    4    0    0 -0.54385614773E+01  0.91629875722E+01 -0.23451501394E+02  0.25758711343E+02  0.51100000000E-03 0.  1.
         12    1    4    4    0    0 -0.56692519500E+01  0.85864930220E+01 -0.57061018730E+01  0.11765537755E+02  0.00000000000E+00 0. -1.
</event>
<event>
 8    1  0.1244838E-006  0.9118800E+02  0.7816164E-02  0.1184000E+00
        -11   -1    0    0    0    0  0.00000000000E+00  0.00000000000E+00  0.45593999997E+02  0.45594000000E+02  0.51100000000E-03 0. -1.
         11   -1    0    0    0    0 -0.00000000000E+00 -0.00000000000E+00 -0.45593999997E+02  0.45594000000E+02  0.51100000000E-03 0.  1.
         23    2    1    2    0    0  0.00000000000E+00 -0.88817841970E-15 -0.71054273576E-14  0.91188000000E+02  0.91188000000E+02 0.  0.
    9900012    2    3    3    0    0 -0.13094669427E+02  0.65177999373E+01  0.33790953595E+02  0.54367073500E+02  0.39999975659E+02 0.  0.
        -12    1    3    3    0    0  0.13094669427E+02 -0.65177999373E+01 -0.33790953595E+02  0.36820926500E+02  0.00000000000E+00 0.  1.
         11    1    4    4    0    0  0.31112133946E+01 -0.21461544656E+01 -0.49507808529E+01  0.62286322007E+01  0.51100000000E-03 0. -1.
        -11    1    4    4    0    0  0.50920710198E+01 -0.92868151197E+00  0.61044489751E+01  0.80034951222E+01  0.51100000000E-03 0.  1.
         12    1    4    4    0    0 -0.21297953842E+02  0.95926359149E+01  0.32637285473E+02  0.40134946177E+02  0.00000000000E+00 0. -1.
</event>
<event>
 8    1  0.1244838E-006  0.9118800E+02  0.7816164E-02  0.1184000E+00
        -11   -1    0    0    0    0  0.00000000000E+00  0.00000000000E+00  0.45593999997E+02  0.45594000000E+02  0.51100000000E-03 0. -1.
         11   -1    0    0    0    0 -0.00000000000E+00 -0.00000000000E+00 -0.45593999997E+02  0.45594000000E+02  0.51100000000E-03 0.  1.
         23    2    1    2    0    0  0.00000000000E+00 -0.35527136788E-14  0.17763568394E-14  0.91188000000E+02  0.91188000000E+02 0.  0.
    9900012    2    3    3    0    0  0.95595582710E+01  0.31874784012E+02  0.15760513819E+02  0.54367071087E+02  0.39999970157E+02 0.  0.
        -12    1    3    3    0    0 -0.95595582710E+01 -0.31874784012E+02 -0.15760513819E+02  0.36820928913E+02  0.00000000000E+00 0.  1.
         11    1    4    4    0    0  0.86372794438E+00 -0.45112000883E+01 -0.17986574582E+01  0.49327599893E+01  0.51100000000E-03 0. -1.
        -11    1    4    4    0    0 -0.41053458844E+00  0.17227347108E+02 -0.55129500970E+01  0.18092613025E+02  0.51100000000E-03 0.  1.
         12    1    4    4    0    0  0.91063649150E+01  0.19158636992E+02  0.23072121375E+02  0.31341698073E+02  0.00000000000E+00 0. -1.
</event>
<event>
 8    1  0.1244838E-006  0.9118800E+02  0.7816164E-02  0.1184000E+00
        -11   -1    0    0    0    0  0.00000000000E+00  0.00000000000E+00  0.45593999997E+02  0.45594000000E+02  0.51100000000E-03 0. -1.
         11   -1    0    0    0    0 -0.00000000000E+00 -0.00000000000E+00 -0.45593999997E+02  0.45594000000E+02  0.51100000000E-03 0.  1.
         23    2    1    2    0    0  0.00000000000E+00  0.44408920985E-15  0.00000000000E+00  0.91188000000E+02  0.91188000000E+02 0.  0.
    9900012    2    3    3    0    0  0.32990427066E+02  0.26992137021E+01  0.16128369659E+02  0.54367104568E+02  0.40000046483E+02 0.  0.
        -12    1    3    3    0    0 -0.32990427066E+02 -0.26992137021E+01 -0.16128369659E+02  0.36820895432E+02  0.00000000000E+00 0.  1.
         11    1    4    4    0    0  0.18627680933E+02  0.69417342634E+01  0.74728110977E+01  0.21237256826E+02  0.51100000000E-03 0. -1.
        -11    1    4    4    0    0 -0.56360993130E+01 -0.35105138182E+01  0.11135128149E+02  0.12964582596E+02  0.51100000000E-03 0.  1.
        -12    1    4    4    0    0  0.19998845446E+02 -0.73200674320E+00 -0.24795695883E+01  0.20165265146E+02  0.00000000000E+00 0.  1.
</event>
<event>
 8    1  0.1244838E-006  0.9118800E+02  0.7816164E-02  0.1184000E+00
        -11   -1    0    0    0    0  0.00000000000E+00  0.00000000000E+00  0.45593999997E+02  0.45594000000E+02  0.51100000000E-03 0.  1.
         11   -1    0    0    0    0 -0.00000000000E+00 -0.00000000000E+00 -0.45593999997E+02  0.45594000000E+02  0.51100000000E-03 0. -1.
         23    2    1    2    0    0  0.00000000000E+00  0.88817841970E-15  0.39968028887E-14  0.91188000000E+02  0.91188000000E+02 0.  0.
    9900012    2    3    3    0    0  0.36082229051E+02 -0.69761185495E+01  0.22768137313E+01  0.54367117825E+02  0.40000076707E+02 0.  0.
        -12    1    3    3    0    0 -0.36082229051E+02  0.69761185495E+01 -0.22768137313E+01  0.36820882175E+02  0.00000000000E+00 0.  1.
         11    1    4    4    0    0  0.44501549072E+01 -0.61226401587E+01  0.81057936149E+01  0.11090288166E+02  0.51100000000E-03 0.  1.
        -11    1    4    4    0    0  0.26005996593E+02 -0.80801012148E+01 -0.14337442141E+02  0.30775999446E+02  0.51100000000E-03 0. -1.
        -12    1    4    4    0    0  0.56260775509E+01  0.72266228240E+01  0.85084622579E+01  0.12500830214E+02  0.00000000000E+00 0.  1.
</event>
<event>
 8    1  0.1244838E-006  0.9118800E+02  0.7816164E-02  0.1184000E+00
        -11   -1    0    0    0    0  0.00000000000E+00  0.00000000000E+00  0.45593999997E+02  0.45594000000E+02  0.51100000000E-03 0. -1.
         11   -1    0    0    0    0 -0.00000000000E+00 -0.00000000000E+00 -0.45593999997E+02  0.45594000000E+02  0.51100000000E-03 0.  1.
         23    2    1    2    0    0  0.00000000000E+00  0.00000000000E+00  0.26645352591E-14  0.91188000000E+02  0.91188000000E+02 0.  0.
    9900012    2    3    3    0    0  0.29074664561E+02  0.21994810809E+02  0.51648045960E+01  0.54367040910E+02  0.39999901362E+02 0.  0.
         12    1    3    3    0    0 -0.29074664561E+02 -0.21994810809E+02 -0.51648045960E+01  0.36820959090E+02  0.00000000000E+00 0. -1.
         11    1    4    4    0    0  0.76780841820E+01  0.32537647767E+01  0.95119467781E+00  0.83931360947E+01  0.51100000000E-03 0. -1.
        -11    1    4    4    0    0  0.25848614041E+02  0.83649247887E+01  0.14416151848E+02  0.30756271700E+02  0.51100000000E-03 0.  1.
        -12    1    4    4    0    0 -0.44520336623E+01  0.10376121243E+02 -0.10202541930E+02  0.15217633114E+02  0.00000000000E+00 0.  1.
</event>
<event>
 8    1  0.1244838E-006  0.9118800E+02  0.7816164E-02  0.1184000E+00
        -11   -1    0    0    0    0  0.00000000000E+00  0.00000000000E+00  0.45593999997E+02  0.45594000000E+02  0.51100000000E-03 0.  1.
         11   -1    0    0    0    0 -0.00000000000E+00 -0.00000000000E+00 -0.45593999997E+02  0.45594000000E+02  0.51100000000E-03 0. -1.
         23    2    1    2    0    0  0.00000000000E+00 -0.31086244690E-14  0.71054273576E-14  0.91188000000E+02  0.91188000000E+02 0.  0.
    9900012    2    3    3    0    0 -0.17828821526E+02  0.34009844756E+01 -0.32036626945E+02  0.54367095089E+02  0.40000024875E+02 0.  0.
        -12    1    3    3    0    0  0.17828821526E+02 -0.34009844756E+01  0.32036626945E+02  0.36820904911E+02  0.00000000000E+00 0.  1.
         11    1    4    4    0    0 -0.41290345436E+01  0.39693760257E-01 -0.60560637208E+01  0.73298301419E+01  0.51100000000E-03 0.  1.
        -11    1    4    4    0    0 -0.22949980130E+01 -0.15718311372E+02 -0.16400999323E+02  0.22832544916E+02  0.51100000000E-03 0. -1.
        -12    1    4    4    0    0 -0.11404788970E+02  0.19079602088E+02 -0.95795639012E+01  0.24204720031E+02  0.00000000000E+00 0.  1.
</event>
<event>
 8    1  0.1244838E-006  0.9118800E+02  0.7816164E-02  0.1184000E+00
        -11   -1    0    0    0    0  0.00000000000E+00  0.00000000000E+00  0.45593999997E+02  0.45594000000E+02  0.51100000000E-03 0.  1.
         11   -1    0    0    0    0 -0.00000000000E+00 -0.00000000000E+00 -0.45593999997E+02  0.45594000000E+02  0.51100000000E-03 0. -1.
         23    2    1    2    0    0  0.00000000000E+00  0.00000000000E+00  0.00000000000E+00  0.91188000000E+02  0.91188000000E+02 0.  0.
    9900012    2    3    3    0    0  0.22236352320E+02 -0.26550819198E+02  0.12505134953E+02  0.54367085227E+02  0.40000002391E+02 0.  0.
        -12    1    3    3    0    0 -0.22236352320E+02  0.26550819198E+02 -0.12505134953E+02  0.36820914773E+02  0.00000000000E+00 0.  1.
         11    1    4    4    0    0  0.20252377660E+02 -0.21301915182E+02  0.70799623908E+01  0.30233363342E+02  0.51100000000E-03 0. -1.
        -11    1    4    4    0    0  0.10206889433E+02 -0.47625830130E+01  0.96899138969E+01  0.14857900943E+02  0.51100000000E-03 0.  1.
         12    1    4    4    0    0 -0.82229147727E+01 -0.48632100306E+00 -0.42647413349E+01  0.92758209410E+01  0.00000000000E+00 0. -1.
</event>
<event>
 8    1  0.1244838E-006  0.9118800E+02  0.7816164E-02  0.1184000E+00
        -11   -1    0    0    0    0  0.00000000000E+00  0.00000000000E+00  0.45593999997E+02  0.45594000000E+02  0.51100000000E-03 0.  1.
         11   -1    0    0    0    0 -0.00000000000E+00 -0.00000000000E+00 -0.45593999997E+02  0.45594000000E+02  0.51100000000E-03 0. -1.
         23    2    1    2    0    0  0.00000000000E+00  0.00000000000E+00 -0.35527136788E-14  0.91188000000E+02  0.91188000000E+02 0.  0.
    9900012    2    3    3    0    0  0.25726826377E+02 -0.54564238152E+01 -0.25770841275E+02  0.54367103537E+02  0.40000044134E+02 0.  0.
        -12    1    3    3    0    0 -0.25726826377E+02  0.54564238152E+01  0.25770841275E+02  0.36820896463E+02  0.00000000000E+00 0.  1.
         11    1    4    4    0    0  0.82603926577E+01  0.13421393174E+02 -0.22641301319E+02  0.27586163330E+02  0.51100000000E-03 0. -1.
        -11    1    4    4    0    0  0.10048061136E+02 -0.85273566537E+01  0.14273036820E+01  0.13255811561E+02  0.51100000000E-03 0.  1.
        -12    1    4    4    0    0  0.74183725838E+01 -0.10350460336E+02 -0.45568436379E+01  0.13525128646E+02  0.00000000000E+00 0.  1.
</event>
<event>
 8    1  0.1244838E-006  0.9118800E+02  0.7816164E-02  0.1184000E+00
        -11   -1    0    0    0    0  0.00000000000E+00  0.00000000000E+00  0.45593999997E+02  0.45594000000E+02  0.51100000000E-03 0.  1.
         11   -1    0    0    0    0 -0.00000000000E+00 -0.00000000000E+00 -0.45593999997E+02  0.45594000000E+02  0.51100000000E-03 0. -1.
         23    2    1    2    0    0  0.00000000000E+00  0.35527136788E-14  0.11102230246E-14  0.91188000000E+02  0.91188000000E+02 0.  0.
    9900012    2    3    3    0    0 -0.30129759688E+02 -0.21151523702E+02 -0.76829866997E+00  0.54367086695E+02  0.40000005739E+02 0.  0.
        -12    1    3    3    0    0  0.30129759688E+02  0.21151523702E+02  0.76829866997E+00  0.36820913305E+02  0.00000000000E+00 0.  1.
         11    1    4    4    0    0 -0.25373419869E+02 -0.11413718341E+02  0.10176737940E+02  0.29625148061E+02  0.51100000000E-03 0. -1.
        -11    1    4    4    0    0  0.47351210334E+01 -0.31061295961E+01  0.31664621344E+01  0.64881349384E+01  0.51100000000E-03 0.  1.
         12    1    4    4    0    0 -0.94914608518E+01 -0.66316757646E+01 -0.14111498745E+02  0.18253803696E+02  0.00000000000E+00 0. -1.
</event>
<event>
 8    1  0.1244838E-006  0.9118800E+02  0.7816164E-02  0.1184000E+00
        -11   -1    0    0    0    0  0.00000000000E+00  0.00000000000E+00  0.45593999997E+02  0.45594000000E+02  0.51100000000E-03 0.  1.
         11   -1    0    0    0    0 -0.00000000000E+00 -0.00000000000E+00 -0.45593999997E+02  0.45594000000E+02  0.51100000000E-03 0. -1.
         23    2    1    2    0    0  0.00000000000E+00 -0.17763568394E-14  0.00000000000E+00  0.91188000000E+02  0.91188000000E+02 0.  0.
    9900012    2    3    3    0    0 -0.16426524857E+02  0.10736261030E+02 -0.31155791310E+02  0.54367063674E+02  0.39999953257E+02 0.  0.
        -12    1    3    3    0    0  0.16426524857E+02 -0.10736261030E+02  0.31155791310E+02  0.36820936326E+02  0.00000000000E+00 0.  1.
         11    1    4    4    0    0  0.26044486522E+01  0.19275194280E+02 -0.98075835221E+01  0.21783134810E+02  0.51100000000E-03 0. -1.
        -11    1    4    4    0    0 -0.37783615066E+00  0.12381262107E+01 -0.69568258090E+01  0.70762378612E+01  0.51100000000E-03 0.  1.
        -12    1    4    4    0    0 -0.18653137359E+02 -0.97770594615E+01 -0.14391381979E+02  0.25507691003E+02  0.00000000000E+00 0.  1.
</event>
<event>
 8    1  0.1244838E-006  0.9118800E+02  0.7816164E-02  0.1184000E+00
        -11   -1    0    0    0    0  0.00000000000E+00  0.00000000000E+00  0.45593999997E+02  0.45594000000E+02  0.51100000000E-03 0. -1.
         11   -1    0    0    0    0 -0.00000000000E+00 -0.00000000000E+00 -0.45593999997E+02  0.45594000000E+02  0.51100000000E-03 0.  1.
         23    2    1    2    0    0 -0.17763568394E-14  0.35527136788E-14  0.00000000000E+00  0.91188000000E+02  0.91188000000E+02 0.  0.
    9900012    2    3    3    0    0 -0.11266358847E+02  0.24656990676E+02  0.24917425440E+02  0.54367134701E+02  0.40000115177E+02 0.  0.
        -12    1    3    3    0    0  0.11266358847E+02 -0.24656990676E+02 -0.24917425440E+02  0.36820865299E+02  0.00000000000E+00 0.  1.
         11    1    4    4    0    0 -0.46632536404E+01  0.16912056773E+01  0.11999459890E+02  0.12984342458E+02  0.51100000000E-03 0. -1.
        -11    1    4    4    0    0 -0.13198665222E+02  0.69328363227E+00 -0.25698396595E+01  0.13464378262E+02  0.51100000000E-03 0.  1.
         12    1    4    4    0    0  0.65955600158E+01  0.22272501366E+02  0.15487805209E+02  0.27918413981E+02  0.00000000000E+00 0. -1.
</event>
<event>
 8    1  0.1244838E-006  0.9118800E+02  0.7816164E-02  0.1184000E+00
        -11   -1    0    0    0    0  0.00000000000E+00  0.00000000000E+00  0.45593999997E+02  0.45594000000E+02  0.51100000000E-03 0.  1.
         11   -1    0    0    0    0 -0.00000000000E+00 -0.00000000000E+00 -0.45593999997E+02  0.45594000000E+02  0.51100000000E-03 0. -1.
         23    2    1    2    0    0 -0.12281842210E-14  0.00000000000E+00  0.00000000000E+00  0.91188000000E+02  0.91188000000E+02 0.  0.
    9900012    2    3    3    0    0 -0.58051149706E-01  0.27008514791E+02 -0.25026272610E+02  0.54367115140E+02  0.40000070585E+02 0.  0.
        -12    1    3    3    0    0  0.58051149706E-01 -0.27008514791E+02  0.25026272610E+02  0.36820884860E+02  0.00000000000E+00 0.  1.
         11    1    4    4    0    0 -0.55878893665E+01  0.30227972878E+01 -0.24802925733E+01  0.68200925599E+01  0.51100000000E-03 0. -1.
        -11    1    4    4    0    0  0.11264025131E+02  0.21619425356E+02 -0.29473058416E+02  0.38248385424E+02  0.51100000000E-03 0.  1.
        -12    1    4    4    0    0 -0.57341869142E+01  0.23662921470E+01  0.69270783794E+01  0.92986371564E+01  0.00000000000E+00 0.  1.
</event>
<event>
 8    1  0.1244838E-006  0.9118800E+02  0.7816164E-02  0.1184000E+00
        -11   -1    0    0    0    0  0.00000000000E+00  0.00000000000E+00  0.45593999997E+02  0.45594000000E+02  0.51100000000E-03 0.  1.
         11   -1    0    0    0    0 -0.00000000000E+00 -0.00000000000E+00 -0.45593999997E+02  0.45594000000E+02  0.51100000000E-03 0. -1.
         23    2    1    2    0    0  0.35527136788E-14 -0.26645352591E-14  0.00000000000E+00  0.91188000000E+02  0.91188000000E+02 0.  0.
    9900012    2    3    3    0    0  0.27524971714E+02 -0.38821340713E+01 -0.24147158217E+02  0.54367078192E+02  0.39999986355E+02 0.  0.
        -12    1    3    3    0    0 -0.27524971714E+02  0.38821340713E+01  0.24147158217E+02  0.36820921808E+02  0.00000000000E+00 0.  1.
         11    1    4    4    0    0  0.40580026997E+01 -0.27557898542E+01  0.74754113651E+01  0.89411150854E+01  0.51100000000E-03 0.  1.
        -11    1    4    4    0    0  0.88884876084E+00  0.70902215551E+01 -0.22783219434E+01  0.75001363294E+01  0.51100000000E-03 0. -1.
        -12    1    4    4    0    0  0.22578120253E+02 -0.82165657722E+01 -0.29344247639E+02  0.37925826778E+02  0.00000000000E+00 0.  1.
</event>
<event>
 8    1  0.1244838E-006  0.9118800E+02  0.7816164E-02  0.1184000E+00
        -11   -1    0    0    0    0  0.00000000000E+00  0.00000000000E+00  0.45593999997E+02  0.45594000000E+02  0.51100000000E-03 0. -1.
         11   -1    0    0    0    0 -0.00000000000E+00 -0.00000000000E+00 -0.45593999997E+02  0.45594000000E+02  0.51100000000E-03 0.  1.
         23    2    1    2    0    0  0.00000000000E+00  0.00000000000E+00  0.00000000000E+00  0.91188000000E+02  0.91188000000E+02 0.  0.
    9900012    2    3    3    0    0  0.21195538992E+02 -0.29596179841E+02 -0.55305944931E+01  0.54367187817E+02  0.40000236266E+02 0.  0.
        -12    1    3    3    0    0 -0.21195538992E+02  0.29596179841E+02  0.55305944931E+01  0.36820812183E+02  0.00000000000E+00 0.  1.
         11    1    4    4    0    0  0.11459582914E+02 -0.26562558859E+02 -0.81321667623E+01  0.30050352914E+02  0.51100000000E-03 0. -1.
        -11    1    4    4    0    0 -0.29913144968E+01 -0.29448046920E+01 -0.71444784091E+01  0.82863387025E+01  0.51100000000E-03 0.  1.
         12    1    4    4    0    0  0.12727270575E+02 -0.88816289970E-01  0.97460506783E+01  0.16030496201E+02  0.00000000000E+00 0. -1.
</event>
<event>
 8    1  0.1244838E-006  0.9118800E+02  0.7816164E-02  0.1184000E+00
        -11   -1    0    0    0    0  0.00000000000E+00  0.00000000000E+00  0.45593999997E+02  0.45594000000E+02  0.51100000000E-03 0.  1.
         11   -1    0    0    0    0 -0.00000000000E+00 -0.00000000000E+00 -0.45593999997E+02  0.45594000000E+02  0.51100000000E-03 0. -1.
         23    2    1    2    0    0  0.35527136788E-14 -0.35527136788E-14 -0.17763568394E-14  0.91188000000E+02  0.91188000000E+02 0.  0.
    9900012    2    3    3    0    0  0.25255594549E+02 -0.24962304922E+02 -0.97374506156E+01  0.54367086547E+02  0.40000005401E+02 0.  0.
        -12    1    3    3    0    0 -0.25255594549E+02  0.24962304922E+02  0.97374506156E+01  0.36820913453E+02  0.00000000000E+00 0.  1.
         11    1    4    4    0    0  0.16368489582E+02 -0.11695854206E+02 -0.47850025641E+01  0.20678895198E+02  0.51100000000E-03 0. -1.
        -11    1    4    4    0    0  0.31664999382E+01  0.76389004927E+01 -0.83475784348E+01  0.11749961216E+02  0.51100000000E-03 0.  1.
         12    1    4    4    0    0  0.57206050283E+01 -0.20905351209E+02  0.33951303833E+01  0.21938230133E+02  0.00000000000E+00 0. -1.
</event>
<event>
 8    1  0.1244838E-006  0.9118800E+02  0.7816164E-02  0.1184000E+00
        -11   -1    0    0    0    0  0.00000000000E+00  0.00000000000E+00  0.45593999997E+02  0.45594000000E+02  0.51100000000E-03 0. -1.
         11   -1    0    0    0    0 -0.00000000000E+00 -0.00000000000E+00 -0.45593999997E+02  0.45594000000E+02  0.51100000000E-03 0.  1.
         23    2    1    2    0    0  0.00000000000E+00 -0.88817841970E-15  0.00000000000E+00  0.91188000000E+02  0.91188000000E+02 0.  0.
    9900012    2    3    3    0    0 -0.25123473971E+02 -0.32579197704E+01  0.26720335627E+02  0.54367091244E+02  0.40000016109E+02 0.  0.
        -12    1    3    3    0    0  0.25123473971E+02  0.32579197704E+01 -0.26720335627E+02  0.36820908756E+02  0.00000000000E+00 0.  1.
         11    1    4    4    0    0 -0.10260973367E+02 -0.13893880356E+02  0.14495404123E+02  0.22548707873E+02  0.51100000000E-03 0. -1.
        -11    1    4    4    0    0  0.43323293036E+01  0.69481853459E+00  0.89335036527E+01  0.99528557593E+01  0.51100000000E-03 0.  1.
        -12    1    4    4    0    0 -0.19194829907E+02  0.99411420513E+01  0.32914278517E+01  0.21865527612E+02  0.00000000000E+00 0.  1.
</event>
<event>
 8    1  0.1244838E-006  0.9118800E+02  0.7816164E-02  0.1184000E+00
        -11   -1    0    0    0    0  0.00000000000E+00  0.00000000000E+00  0.45593999997E+02  0.45594000000E+02  0.51100000000E-03 0.  1.
         11   -1    0    0    0    0 -0.00000000000E+00 -0.00000000000E+00 -0.45593999997E+02  0.45594000000E+02  0.51100000000E-03 0. -1.
         23    2    1    2    0    0 -0.35527136788E-14  0.35527136788E-14  0.00000000000E+00  0.91188000000E+02  0.91188000000E+02 0.  0.
    9900012    2    3    3    0    0 -0.29324624642E+02  0.21589616536E+02  0.54527897763E+01  0.54367108255E+02  0.40000054888E+02 0.  0.
         12    1    3    3    0    0  0.29324624642E+02 -0.21589616536E+02 -0.54527897763E+01  0.36820891745E+02  0.00000000000E+00 0. -1.
         11    1    4    4    0    0  0.52400578626E+01  0.62732731090E+01  0.41083768537E-01  0.81739739442E+01  0.51100000000E-03 0. -1.
        -11    1    4    4    0    0 -0.33829387157E+02  0.36014675154E+01  0.25785673184E+01  0.34118133204E+02  0.51100000000E-03 0.  1.
        -12    1    4    4    0    0 -0.73529534762E+00  0.11714875912E+02  0.28331386894E+01  0.12075001106E+02  0.00000000000E+00 0.  1.
</event>
<event>
 8    1  0.1244838E-006  0.9118800E+02  0.7816164E-02  0.1184000E+00
        -11   -1    0    0    0    0  0.00000000000E+00  0.00000000000E+00  0.45593999997E+02  0.45594000000E+02  0.51100000000E-03 0.  1.
         11   -1    0    0    0    0 -0.00000000000E+00 -0.00000000000E+00 -0.45593999997E+02  0.45594000000E+02  0.51100000000E-03 0. -1.
         23    2    1    2    0    0 -0.35527136788E-14  0.00000000000E+00  0.00000000000E+00  0.91188000000E+02  0.91188000000E+02 0.  0.
    9900012    2    3    3    0    0 -0.25868786381E+02  0.23582830954E+02 -0.11420885610E+02  0.54367073169E+02  0.39999974902E+02 0.  0.
         12    1    3    3    0    0  0.25868786381E+02 -0.23582830954E+02  0.11420885610E+02  0.36820926831E+02  0.00000000000E+00 0. -1.
         11    1    4    4    0    0 -0.12902993020E+02  0.68783483531E+01 -0.67487345994E+01  0.16104171009E+02  0.51100000000E-03 0. -1.
        -11    1    4    4    0    0  0.64985702032E+00  0.20509420035E+02 -0.10405518920E+02  0.23007247740E+02  0.51100000000E-03 0.  1.
        -12    1    4    4    0    0 -0.13615650381E+02 -0.38049374344E+01  0.57333679092E+01  0.15255654419E+02  0.00000000000E+00 0.  1.
</event>
<event>
 8    1  0.1244838E-006  0.9118800E+02  0.7816164E-02  0.1184000E+00
        -11   -1    0    0    0    0  0.00000000000E+00  0.00000000000E+00  0.45593999997E+02  0.45594000000E+02  0.51100000000E-03 0. -1.
         11   -1    0    0    0    0 -0.00000000000E+00 -0.00000000000E+00 -0.45593999997E+02  0.45594000000E+02  0.51100000000E-03 0.  1.
         23    2    1    2    0    0  0.00000000000E+00  0.00000000000E+00  0.00000000000E+00  0.91188000000E+02  0.91188000000E+02 0.  0.
    9900012    2    3    3    0    0  0.35184677205E+02 -0.96347191079E+01  0.49990614909E+01  0.54367082873E+02  0.39999997025E+02 0.  0.
        -12    1    3    3    0    0 -0.35184677205E+02  0.96347191079E+01 -0.49990614909E+01  0.36820917127E+02  0.00000000000E+00 0.  1.
         11    1    4    4    0    0  0.16396318318E+02  0.39063855976E+01  0.79556643333E+00  0.16874004535E+02  0.51100000000E-03 0. -1.
        -11    1    4    4    0    0 -0.47970093858E+00  0.27764662214E+01  0.10991886368E+02  0.11347265920E+02  0.51100000000E-03 0.  1.
        -12    1    4    4    0    0  0.19268059825E+02 -0.16317570927E+02 -0.67883913109E+01  0.26145812418E+02  0.00000000000E+00 0.  1.
</event>
<event>
 8    1  0.1244838E-006  0.9118800E+02  0.7816164E-02  0.1184000E+00
        -11   -1    0    0    0    0  0.00000000000E+00  0.00000000000E+00  0.45593999997E+02  0.45594000000E+02  0.51100000000E-03 0. -1.
         11   -1    0    0    0    0 -0.00000000000E+00 -0.00000000000E+00 -0.45593999997E+02  0.45594000000E+02  0.51100000000E-03 0.  1.
         23    2    1    2    0    0  0.00000000000E+00 -0.44408920985E-15 -0.35527136788E-14  0.91188000000E+02  0.91188000000E+02 0.  0.
    9900012    2    3    3    0    0  0.27666055268E+02  0.33847783405E+01  0.24060595665E+02  0.54367087433E+02  0.40000007421E+02 0.  0.
        -12    1    3    3    0    0 -0.27666055268E+02 -0.33847783405E+01 -0.24060595665E+02  0.36820912567E+02  0.00000000000E+00 0.  1.
         11    1    4    4    0    0  0.77866561338E+01 -0.44051424529E+01  0.21041223312E+02  0.22864172247E+02  0.51100000000E-03 0. -1.
        -11    1    4    4    0    0  0.11403693364E+02 -0.25082109188E+01  0.10931806298E+02  0.15994990889E+02  0.51100000000E-03 0.  1.
        -12    1    4    4    0    0  0.84757057700E+01  0.10298131712E+02 -0.79124339453E+01  0.15507924297E+02  0.00000000000E+00 0.  1.
</event>
<event>
 8    1  0.1244838E-006  0.9118800E+02  0.7816164E-02  0.1184000E+00
        -11   -1    0    0    0    0  0.00000000000E+00  0.00000000000E+00  0.45593999997E+02  0.45594000000E+02  0.51100000000E-03 0.  1.
         11   -1    0    0    0    0 -0.00000000000E+00 -0.00000000000E+00 -0.45593999997E+02  0.45594000000E+02  0.51100000000E-03 0. -1.
         23    2    1    2    0    0  0.00000000000E+00  0.00000000000E+00  0.17763568394E-14  0.91188000000E+02  0.91188000000E+02 0.  0.
    9900012    2    3    3    0    0  0.20392727258E+02 -0.26261512807E+02  0.15819282733E+02  0.54367080863E+02  0.39999992444E+02 0.  0.
         12    1    3    3    0    0 -0.20392727258E+02  0.26261512807E+02 -0.15819282733E+02  0.36820919137E+02  0.00000000000E+00 0. -1.
         11    1    4    4    0    0 -0.56848521112E+01  0.49068252183E+01  0.51098032387E+01  0.90832024445E+01  0.51100000000E-03 0. -1.
        -11    1    4    4    0    0  0.15828561488E+02 -0.26975013226E+02  0.13177038283E+02  0.33938606858E+02  0.51100000000E-03 0.  1.
        -12    1    4    4    0    0  0.10249017881E+02 -0.41933247991E+01 -0.24675587889E+01  0.11345271560E+02  0.00000000000E+00 0.  1.
</event>
<event>
 8    1  0.1244838E-006  0.9118800E+02  0.7816164E-02  0.1184000E+00
        -11   -1    0    0    0    0  0.00000000000E+00  0.00000000000E+00  0.45593999997E+02  0.45594000000E+02  0.51100000000E-03 0.  1.
         11   -1    0    0    0    0 -0.00000000000E+00 -0.00000000000E+00 -0.45593999997E+02  0.45594000000E+02  0.51100000000E-03 0. -1.
         23    2    1    2    0    0  0.71054273576E-14  0.35527136788E-14  0.00000000000E+00  0.91188000000E+02  0.91188000000E+02 0.  0.
    9900012    2    3    3    0    0 -0.17149560109E+02 -0.20336197915E+02  0.25457993141E+02  0.54367112282E+02  0.40000064069E+02 0.  0.
         12    1    3    3    0    0  0.17149560109E+02  0.20336197915E+02 -0.25457993141E+02  0.36820887718E+02  0.00000000000E+00 0. -1.
         11    1    4    4    0    0  0.89681573325E+01  0.15053702162E+00  0.10664252941E+02  0.13934733524E+02  0.51100000000E-03 0. -1.
        -11    1    4    4    0    0 -0.56877817745E+01 -0.12070580458E+02 -0.83271697719E+00  0.13369487348E+02  0.51100000000E-03 0.  1.
         12    1    4    4    0    0 -0.20429935667E+02 -0.84161544783E+01  0.15626457178E+02  0.27062891410E+02  0.00000000000E+00 0. -1.
</event>
<event>
 8    1  0.1244838E-006  0.9118800E+02  0.7816164E-02  0.1184000E+00
        -11   -1    0    0    0    0  0.00000000000E+00  0.00000000000E+00  0.45593999997E+02  0.45594000000E+02  0.51100000000E-03 0.  1.
         11   -1    0    0    0    0 -0.00000000000E+00 -0.00000000000E+00 -0.45593999997E+02  0.45594000000E+02  0.51100000000E-03 0. -1.
         23    2    1    2    0    0  0.00000000000E+00  0.35527136788E-14  0.00000000000E+00  0.91188000000E+02  0.91188000000E+02 0.  0.
    9900012    2    3    3    0    0 -0.28534287239E+02 -0.23252450870E+02  0.94690808100E+00  0.54367100301E+02  0.40000036757E+02 0.  0.
         12    1    3    3    0    0  0.28534287239E+02  0.23252450870E+02 -0.94690808100E+00  0.36820899699E+02  0.00000000000E+00 0. -1.
         11    1    4    4    0    0  0.67850008910E+01  0.50629760730E+00 -0.61834660918E+01  0.91939016488E+01  0.51100000000E-03 0. -1.
        -11    1    4    4    0    0 -0.12977679846E+02 -0.15078606062E+02 -0.84585702851E+00  0.19912307987E+02  0.51100000000E-03 0.  1.
         12    1    4    4    0    0 -0.22341608284E+02 -0.86801424147E+01  0.79762312013E+01  0.25260890666E+02  0.00000000000E+00 0. -1.
</event>
<event>
 8    1  0.1244838E-006  0.9118800E+02  0.7816164E-02  0.1184000E+00
        -11   -1    0    0    0    0  0.00000000000E+00  0.00000000000E+00  0.45593999997E+02  0.45594000000E+02  0.51100000000E-03 0.  1.
         11   -1    0    0    0    0 -0.00000000000E+00 -0.00000000000E+00 -0.45593999997E+02  0.45594000000E+02  0.51100000000E-03 0. -1.
         23    2    1    2    0    0 -0.35527136788E-14  0.71054273576E-14  0.00000000000E+00  0.91188000000E+02  0.91188000000E+02 0.  0.
    9900012    2    3    3    0    0 -0.16238792342E+02 -0.26827430549E+02 -0.19296896427E+02  0.54367087215E+02  0.40000006925E+02 0.  0.
        -12    1    3    3    0    0  0.16238792342E+02  0.26827430549E+02  0.19296896427E+02  0.36820912785E+02  0.00000000000E+00 0.  1.
         11    1    4    4    0    0 -0.21512302420E+02 -0.29987593352E+02 -0.13915476926E+02  0.39442051275E+02  0.51100000000E-03 0. -1.
        -11    1    4    4    0    0  0.14678358422E+00  0.36501269746E+01 -0.82552321320E+01  0.90273933207E+01  0.51100000000E-03 0.  1.
        -12    1    4    4    0    0  0.51267264938E+01 -0.48996417192E+00  0.28738126315E+01  0.58976426199E+01  0.00000000000E+00 0.  1.
</event>
<event>
 8    1  0.1244838E-006  0.9118800E+02  0.7816164E-02  0.1184000E+00
        -11   -1    0    0    0    0  0.00000000000E+00  0.00000000000E+00  0.45593999997E+02  0.45594000000E+02  0.51100000000E-03 0.  1.
         11   -1    0    0    0    0 -0.00000000000E+00 -0.00000000000E+00 -0.45593999997E+02  0.45594000000E+02  0.51100000000E-03 0. -1.
         23    2    1    2    0    0  0.00000000000E+00  0.35527136788E-14  0.88817841970E-15  0.91188000000E+02  0.91188000000E+02 0.  0.
    9900012    2    3    3    0    0 -0.18463237746E+02  0.31064710645E+02  0.70620535892E+01  0.54367082080E+02  0.39999995219E+02 0.  0.
        -12    1    3    3    0    0  0.18463237746E+02 -0.31064710645E+02 -0.70620535892E+01  0.36820917920E+02  0.00000000000E+00 0.  1.
         11    1    4    4    0    0 -0.73931263022E+01  0.95491381442E+01 -0.62675677808E+01  0.13606129573E+02  0.51100000000E-03 0. -1.
        -11    1    4    4    0    0 -0.74279614676E+01  0.20693603206E+02  0.22133760204E+02  0.31197807074E+02  0.51100000000E-03 0.  1.
        -12    1    4    4    0    0 -0.36421499765E+01  0.82196929511E+00 -0.88041388337E+01  0.95631454332E+01  0.00000000000E+00 0.  1.
</event>
<event>
 8    1  0.1244838E-006  0.9118800E+02  0.7816164E-02  0.1184000E+00
        -11   -1    0    0    0    0  0.00000000000E+00  0.00000000000E+00  0.45593999997E+02  0.45594000000E+02  0.51100000000E-03 0. -1.
         11   -1    0    0    0    0 -0.00000000000E+00 -0.00000000000E+00 -0.45593999997E+02  0.45594000000E+02  0.51100000000E-03 0.  1.
         23    2    1    2    0    0  0.00000000000E+00  0.00000000000E+00  0.00000000000E+00  0.91188000000E+02  0.91188000000E+02 0.  0.
    9900012    2    3    3    0    0  0.13303115670E+02  0.47333022282E+01 -0.34005908528E+02  0.54367097630E+02  0.40000030668E+02 0.  0.
         12    1    3    3    0    0 -0.13303115670E+02 -0.47333022282E+01  0.34005908528E+02  0.36820902370E+02  0.00000000000E+00 0. -1.
         11    1    4    4    0    0  0.19154394633E+02  0.12078712892E+01 -0.86336807840E+01  0.21044957376E+02  0.51100000000E-03 0. -1.
        -11    1    4    4    0    0  0.71887837509E+00  0.17541355363E+01 -0.26375763161E+02  0.26443801924E+02  0.51100000000E-03 0.  1.
        -12    1    4    4    0    0 -0.65701573380E+01  0.17712954026E+01  0.10035354176E+01  0.68783383301E+01  0.00000000000E+00 0.  1.
</event>
<event>
 8    1  0.1244838E-006  0.9118800E+02  0.7816164E-02  0.1184000E+00
        -11   -1    0    0    0    0  0.00000000000E+00  0.00000000000E+00  0.45593999997E+02  0.45594000000E+02  0.51100000000E-03 0. -1.
         11   -1    0    0    0    0 -0.00000000000E+00 -0.00000000000E+00 -0.45593999997E+02  0.45594000000E+02  0.51100000000E-03 0.  1.
         23    2    1    2    0    0 -0.17763568394E-14  0.35527136788E-14  0.71054273576E-14  0.91188000000E+02  0.91188000000E+02 0.  0.
    9900012    2    3    3    0    0 -0.97736659047E+01  0.12109603161E+02  0.33370825056E+02  0.54367095627E+02  0.40000026100E+02 0.  0.
        -12    1    3    3    0    0  0.97736659047E+01 -0.12109603161E+02 -0.33370825056E+02  0.36820904373E+02  0.00000000000E+00 0.  1.
         11    1    4    4    0    0 -0.15162185780E+02  0.65284543219E+00  0.72437355805E+01  0.16816354843E+02  0.51100000000E-03 0. -1.
        -11    1    4    4    0    0 -0.28790129087E+01 -0.37034693613E+01 -0.15398710568E+01  0.49371655604E+01  0.51100000000E-03 0.  1.
         12    1    4    4    0    0  0.82675327837E+01  0.15160227090E+02  0.27666960533E+02  0.32613575223E+02  0.00000000000E+00 0. -1.
</event>
<event>
 8    1  0.1244838E-006  0.9118800E+02  0.7816164E-02  0.1184000E+00
        -11   -1    0    0    0    0  0.00000000000E+00  0.00000000000E+00  0.45593999997E+02  0.45594000000E+02  0.51100000000E-03 0. -1.
         11   -1    0    0    0    0 -0.00000000000E+00 -0.00000000000E+00 -0.45593999997E+02  0.45594000000E+02  0.51100000000E-03 0.  1.
         23    2    1    2    0    0  0.17763568394E-14  0.00000000000E+00  0.00000000000E+00  0.91188000000E+02  0.91188000000E+02 0.  0.
    9900012    2    3    3    0    0 -0.15567193744E+02 -0.28398949845E+02 -0.17519912299E+02  0.54367011416E+02  0.39999834124E+02 0.  0.
         12    1    3    3    0    0  0.15567193744E+02  0.28398949845E+02  0.17519912299E+02  0.36820988584E+02  0.00000000000E+00 0. -1.
         11    1    4    4    0    0 -0.43270235452E+01 -0.26997834791E+01  0.84626385520E+01  0.98806991209E+01  0.51100000000E-03 0. -1.
        -11    1    4    4    0    0  0.68458716348E+01 -0.83737840350E+01 -0.10302166994E+02  0.14937230752E+02  0.51100000000E-03 0.  1.
         12    1    4    4    0    0 -0.18086041834E+02 -0.17325382331E+02 -0.15680383857E+02  0.29549081543E+02  0.00000000000E+00 0. -1.
</event>
<event>
 8    1  0.1244838E-006  0.9118800E+02  0.7816164E-02  0.1184000E+00
        -11   -1    0    0    0    0  0.00000000000E+00  0.00000000000E+00  0.45593999997E+02  0.45594000000E+02  0.51100000000E-03 0.  1.
         11   -1    0    0    0    0 -0.00000000000E+00 -0.00000000000E+00 -0.45593999997E+02  0.45594000000E+02  0.51100000000E-03 0. -1.
         23    2    1    2    0    0 -0.44408920985E-15  0.00000000000E+00  0.00000000000E+00  0.91188000000E+02  0.91188000000E+02 0.  0.
    9900012    2    3    3    0    0 -0.10603932689E+01  0.24837218493E+02 -0.27161863388E+02  0.54367099969E+02  0.40000035999E+02 0.  0.
        -12    1    3    3    0    0  0.10603932689E+01 -0.24837218493E+02  0.27161863388E+02  0.36820900031E+02  0.00000000000E+00 0.  1.
         11    1    4    4    0    0  0.47435419996E+01  0.48114997350E+01 -0.18006340689E+02  0.19232265225E+02  0.51100000000E-03 0. -1.
        -11    1    4    4    0    0  0.97260182023E+01  0.13187466331E+02 -0.13050071696E+01  0.16437996906E+02  0.51100000000E-03 0.  1.
         12    1    4    4    0    0 -0.15529953471E+02  0.68382524272E+01 -0.78505155291E+01  0.18696837838E+02  0.00000000000E+00 0. -1.
</event>
<event>
 8    1  0.1244838E-006  0.9118800E+02  0.7816164E-02  0.1184000E+00
        -11   -1    0    0    0    0  0.00000000000E+00  0.00000000000E+00  0.45593999997E+02  0.45594000000E+02  0.51100000000E-03 0.  1.
         11   -1    0    0    0    0 -0.00000000000E+00 -0.00000000000E+00 -0.45593999997E+02  0.45594000000E+02  0.51100000000E-03 0. -1.
         23    2    1    2    0    0 -0.88817841970E-15  0.00000000000E+00  0.00000000000E+00  0.91188000000E+02  0.91188000000E+02 0.  0.
    9900012    2    3    3    0    0  0.70345234028E+01  0.10643094782E+02 -0.34540133386E+02  0.54367071164E+02  0.39999970332E+02 0.  0.
        -12    1    3    3    0    0 -0.70345234028E+01 -0.10643094782E+02  0.34540133386E+02  0.36820928836E+02  0.00000000000E+00 0.  1.
         11    1    4    4    0    0 -0.14331463607E+02  0.43054870164E+01 -0.62269868316E+01  0.16208128604E+02  0.51100000000E-03 0. -1.
        -11    1    4    4    0    0  0.51141280511E+01  0.73511743740E+01 -0.71678848311E+01  0.11470511916E+02  0.51100000000E-03 0.  1.
         12    1    4    4    0    0  0.16251858959E+02 -0.10135666081E+01 -0.21145261723E+02  0.26688430644E+02  0.00000000000E+00 0. -1.
</event>
<event>
 8    1  0.1244838E-006  0.9118800E+02  0.7816164E-02  0.1184000E+00
        -11   -1    0    0    0    0  0.00000000000E+00  0.00000000000E+00  0.45593999997E+02  0.45594000000E+02  0.51100000000E-03 0. -1.
         11   -1    0    0    0    0 -0.00000000000E+00 -0.00000000000E+00 -0.45593999997E+02  0.45594000000E+02  0.51100000000E-03 0.  1.
         23    2    1    2    0    0 -0.35527136788E-14  0.00000000000E+00  0.00000000000E+00  0.91188000000E+02  0.91188000000E+02 0.  0.
    9900012    2    3    3    0    0  0.21649399260E+02 -0.21362141157E+02 -0.20754363653E+02  0.54367066093E+02  0.39999958773E+02 0.  0.
         12    1    3    3    0    0 -0.21649399260E+02  0.21362141157E+02  0.20754363653E+02  0.36820933907E+02  0.00000000000E+00 0. -1.
         11    1    4    4    0    0  0.86230433922E+01 -0.14854046476E+02  0.10058063212E+01  0.17204976625E+02  0.51100000000E-03 0. -1.
        -11    1    4    4    0    0  0.17813814853E+02 -0.83767474566E+01 -0.59909031793E+01  0.20576511336E+02  0.51100000000E-03 0.  1.
         12    1    4    4    0    0 -0.47874589860E+01  0.18686527751E+01 -0.15769266795E+02  0.16585578132E+02  0.00000000000E+00 0. -1.
</event>
<event>
 8    1  0.1244838E-006  0.9118800E+02  0.7816164E-02  0.1184000E+00
        -11   -1    0    0    0    0  0.00000000000E+00  0.00000000000E+00  0.45593999997E+02  0.45594000000E+02  0.51100000000E-03 0.  1.
         11   -1    0    0    0    0 -0.00000000000E+00 -0.00000000000E+00 -0.45593999997E+02  0.45594000000E+02  0.51100000000E-03 0. -1.
         23    2    1    2    0    0  0.71054273576E-14  0.66613381478E-15 -0.88817841970E-15  0.91188000000E+02  0.91188000000E+02 0.  0.
    9900012    2    3    3    0    0  0.36145988321E+02  0.14419696298E+01 -0.68676107908E+01  0.54367138711E+02  0.40000124319E+02 0.  0.
        -12    1    3    3    0    0 -0.36145988321E+02 -0.14419696298E+01  0.68676107908E+01  0.36820861289E+02  0.00000000000E+00 0.  1.
         11    1    4    4    0    0  0.96155131139E+01 -0.55271347456E+00  0.65113495860E+01  0.11625887421E+02  0.51100000000E-03 0. -1.
        -11    1    4    4    0    0  0.76338896319E+01 -0.10612026538E+02  0.45084204942E+01  0.13828131970E+02  0.51100000000E-03 0.  1.
         12    1    4    4    0    0  0.18896585575E+02  0.12606709643E+02 -0.17887380871E+02  0.28913119320E+02  0.00000000000E+00 0. -1.
</event>
<event>
 8    1  0.1244838E-006  0.9118800E+02  0.7816164E-02  0.1184000E+00
        -11   -1    0    0    0    0  0.00000000000E+00  0.00000000000E+00  0.45593999997E+02  0.45594000000E+02  0.51100000000E-03 0.  1.
         11   -1    0    0    0    0 -0.00000000000E+00 -0.00000000000E+00 -0.45593999997E+02  0.45594000000E+02  0.51100000000E-03 0. -1.
         23    2    1    2    0    0  0.00000000000E+00  0.35527136788E-14  0.00000000000E+00  0.91188000000E+02  0.91188000000E+02 0.  0.
    9900012    2    3    3    0    0 -0.35054846396E+02 -0.65029457746E+01  0.92004578835E+01  0.54367095817E+02  0.40000026535E+02 0.  0.
         12    1    3    3    0    0  0.35054846396E+02  0.65029457746E+01 -0.92004578835E+01  0.36820904183E+02  0.00000000000E+00 0. -1.
         11    1    4    4    0    0 -0.30707101920E+01  0.53070346920E+01  0.93883660014E+01  0.11213175052E+02  0.51100000000E-03 0. -1.
        -11    1    4    4    0    0 -0.88895505365E+01  0.77459312881E+01  0.43212624289E+01  0.12557741417E+02  0.51100000000E-03 0.  1.
         12    1    4    4    0    0 -0.23094585667E+02 -0.19555911755E+02 -0.45091705468E+01  0.30596179348E+02  0.00000000000E+00 0. -1.
</event>
<event>
 8    1  0.1244838E-006  0.9118800E+02  0.7816164E-02  0.1184000E+00
        -11   -1    0    0    0    0  0.00000000000E+00  0.00000000000E+00  0.45593999997E+02  0.45594000000E+02  0.51100000000E-03 0. -1.
         11   -1    0    0    0    0 -0.00000000000E+00 -0.00000000000E+00 -0.45593999997E+02  0.45594000000E+02  0.51100000000E-03 0.  1.
         23    2    1    2    0    0  0.00000000000E+00  0.00000000000E+00  0.00000000000E+00  0.91188000000E+02  0.91188000000E+02 0.  0.
    9900012    2    3    3    0    0 -0.77010300244E+01 -0.16167013633E+02 -0.32172964547E+02  0.54367111350E+02  0.40000061944E+02 0.  0.
         12    1    3    3    0    0  0.77010300244E+01  0.16167013633E+02  0.32172964547E+02  0.36820888650E+02  0.00000000000E+00 0. -1.
         11    1    4    4    0    0  0.61963217675E+01 -0.12670282428E+01 -0.13762949297E+02  0.15146568510E+02  0.51100000000E-03 0. -1.
        -11    1    4    4    0    0 -0.10934088279E+02 -0.10903699290E+02 -0.25944282535E+02  0.30191898603E+02  0.51100000000E-03 0.  1.
         12    1    4    4    0    0 -0.29632635125E+01 -0.39962861004E+01  0.75342672853E+01  0.90286442375E+01  0.00000000000E+00 0. -1.
</event>
<event>
 8    1  0.1244838E-006  0.9118800E+02  0.7816164E-02  0.1184000E+00
        -11   -1    0    0    0    0  0.00000000000E+00  0.00000000000E+00  0.45593999997E+02  0.45594000000E+02  0.51100000000E-03 0.  1.
         11   -1    0    0    0    0 -0.00000000000E+00 -0.00000000000E+00 -0.45593999997E+02  0.45594000000E+02  0.51100000000E-03 0. -1.
         23    2    1    2    0    0 -0.17763568394E-14 -0.35527136788E-14  0.35527136788E-14  0.91188000000E+02  0.91188000000E+02 0.  0.
    9900012    2    3    3    0    0  0.13439452193E+02  0.17178941359E+02 -0.29665566189E+02  0.54367072272E+02  0.39999972858E+02 0.  0.
        -12    1    3    3    0    0 -0.13439452193E+02 -0.17178941359E+02  0.29665566189E+02  0.36820927728E+02  0.00000000000E+00 0.  1.
         11    1    4    4    0    0 -0.10758441533E+02 -0.46361020455E+01 -0.90638860020E+01  0.14811871459E+02  0.51100000000E-03 0. -1.
        -11    1    4    4    0    0 -0.16485760195E-01  0.32593917595E+01 -0.20618911152E+01  0.38568512617E+01  0.51100000000E-03 0.  1.
        -12    1    4    4    0    0  0.24214379486E+02  0.18555651645E+02 -0.18539789072E+02  0.35698349551E+02  0.00000000000E+00 0.  1.
</event>
<event>
 8    1  0.1244838E-006  0.9118800E+02  0.7816164E-02  0.1184000E+00
        -11   -1    0    0    0    0  0.00000000000E+00  0.00000000000E+00  0.45593999997E+02  0.45594000000E+02  0.51100000000E-03 0.  1.
         11   -1    0    0    0    0 -0.00000000000E+00 -0.00000000000E+00 -0.45593999997E+02  0.45594000000E+02  0.51100000000E-03 0. -1.
         23    2    1    2    0    0  0.00000000000E+00 -0.35527136788E-14  0.00000000000E+00  0.91188000000E+02  0.91188000000E+02 0.  0.
    9900012    2    3    3    0    0 -0.12233526975E+02 -0.20580540912E+02 -0.27974279243E+02  0.54367107213E+02  0.40000052514E+02 0.  0.
        -12    1    3    3    0    0  0.12233526975E+02  0.20580540912E+02  0.27974279243E+02  0.36820892787E+02  0.00000000000E+00 0.  1.
         11    1    4    4    0    0  0.12499316738E+00 -0.11309414356E+02 -0.55942426047E+01  0.12618004080E+02  0.51100000000E-03 0. -1.
        -11    1    4    4    0    0  0.62762256669E+01 -0.11002320578E+02 -0.11998879205E+00  0.12667141126E+02  0.51100000000E-03 0.  1.
         12    1    4    4    0    0 -0.18634745809E+02  0.17311940225E+01 -0.22260047846E+02  0.29081962008E+02  0.00000000000E+00 0. -1.
</event>
<event>
 8    1  0.1244838E-006  0.9118800E+02  0.7816164E-02  0.1184000E+00
        -11   -1    0    0    0    0  0.00000000000E+00  0.00000000000E+00  0.45593999997E+02  0.45594000000E+02  0.51100000000E-03 0. -1.
         11   -1    0    0    0    0 -0.00000000000E+00 -0.00000000000E+00 -0.45593999997E+02  0.45594000000E+02  0.51100000000E-03 0.  1.
         23    2    1    2    0    0 -0.35527136788E-14 -0.22204460493E-15  0.00000000000E+00  0.91188000000E+02  0.91188000000E+02 0.  0.
    9900012    2    3    3    0    0  0.23955339921E+02  0.19001350130E+01  0.27898263892E+02  0.54367055526E+02  0.39999934683E+02 0.  0.
        -12    1    3    3    0    0 -0.23955339921E+02 -0.19001350130E+01 -0.27898263892E+02  0.36820944474E+02  0.00000000000E+00 0.  1.
         11    1    4    4    0    0  0.11060192523E+02 -0.48247005640E+01  0.19880244902E+01  0.12229384114E+02  0.51100000000E-03 0. -1.
        -11    1    4    4    0    0  0.10348221399E+02 -0.10272236047E+02  0.18146223908E+02  0.23278530064E+02  0.51100000000E-03 0.  1.
        -12    1    4    4    0    0  0.25469259990E+01  0.16997071624E+02  0.77640154930E+01  0.18859141349E+02  0.00000000000E+00 0.  1.
</event>
<event>
 8    1  0.1244838E-006  0.9118800E+02  0.7816164E-02  0.1184000E+00
        -11   -1    0    0    0    0  0.00000000000E+00  0.00000000000E+00  0.45593999997E+02  0.45594000000E+02  0.51100000000E-03 0. -1.
         11   -1    0    0    0    0 -0.00000000000E+00 -0.00000000000E+00 -0.45593999997E+02  0.45594000000E+02  0.51100000000E-03 0.  1.
         23    2    1    2    0    0  0.00000000000E+00 -0.35527136788E-14  0.88817841970E-15  0.91188000000E+02  0.91188000000E+02 0.  0.
    9900012    2    3    3    0    0 -0.32526655829E+02  0.17204436209E+02 -0.13431855389E+01  0.54367080510E+02  0.39999991638E+02 0.  0.
        -12    1    3    3    0    0  0.32526655829E+02 -0.17204436209E+02  0.13431855389E+01  0.36820919490E+02  0.00000000000E+00 0.  1.
         11    1    4    4    0    0 -0.16394676183E+02  0.12625704882E+02  0.44169442802E+01  0.21158998747E+02  0.51100000000E-03 0. -1.
        -11    1    4    4    0    0  0.29065015722E+00  0.70272500226E+01 -0.13243691295E+02  0.14995401954E+02  0.51100000000E-03 0.  1.
        -12    1    4    4    0    0 -0.16422629803E+02 -0.24485186955E+01  0.74835614759E+01  0.18212679809E+02  0.00000000000E+00 0.  1.
</event>
<event>
 8    1  0.1244838E-006  0.9118800E+02  0.7816164E-02  0.1184000E+00
        -11   -1    0    0    0    0  0.00000000000E+00  0.00000000000E+00  0.45593999997E+02  0.45594000000E+02  0.51100000000E-03 0.  1.
         11   -1    0    0    0    0 -0.00000000000E+00 -0.00000000000E+00 -0.45593999997E+02  0.45594000000E+02  0.51100000000E-03 0. -1.
         23    2    1    2    0    0 -0.44408920985E-15  0.17763568394E-14  0.00000000000E+00  0.91188000000E+02  0.91188000000E+02 0.  0.
    9900012    2    3    3    0    0  0.33115489754E+01 -0.15116267067E+02 -0.33411286535E+02  0.54367055491E+02  0.39999934602E+02 0.  0.
        -12    1    3    3    0    0 -0.33115489754E+01  0.15116267067E+02  0.33411286535E+02  0.36820944509E+02  0.00000000000E+00 0.  1.
         11    1    4    4    0    0  0.15381874120E+01 -0.49758617378E+01 -0.28291431493E+02  0.28766826671E+02  0.51100000000E-03 0. -1.
        -11    1    4    4    0    0  0.44610266728E+01 -0.79723173838E+01  0.79324544740E+01  0.12098861008E+02  0.51100000000E-03 0.  1.
        -12    1    4    4    0    0 -0.26876651094E+01 -0.21680879452E+01 -0.13052309516E+02  0.13501367811E+02  0.00000000000E+00 0.  1.
</event>
<event>
 8    1  0.1244838E-006  0.9118800E+02  0.7816164E-02  0.1184000E+00
        -11   -1    0    0    0    0  0.00000000000E+00  0.00000000000E+00  0.45593999997E+02  0.45594000000E+02  0.51100000000E-03 0.  1.
         11   -1    0    0    0    0 -0.00000000000E+00 -0.00000000000E+00 -0.45593999997E+02  0.45594000000E+02  0.51100000000E-03 0. -1.
         23    2    1    2    0    0  0.88817841970E-15  0.00000000000E+00  0.35527136788E-14  0.91188000000E+02  0.91188000000E+02 0.  0.
    9900012    2    3    3    0    0 -0.58278092008E+01  0.33370264611E+02 -0.14430528686E+02  0.54367108125E+02  0.40000054593E+02 0.  0.
        -12    1    3    3    0    0  0.58278092008E+01 -0.33370264611E+02  0.14430528686E+02  0.36820891875E+02  0.00000000000E+00 0.  1.
         11    1    4    4    0    0  0.10741218393E+02  0.26712550627E+02 -0.96310938451E+01  0.30359382446E+02  0.51100000000E-03 0. -1.
        -11    1    4    4    0    0 -0.10940870981E+02 -0.14806308217E+01  0.29631198799E+01  0.11431316859E+02  0.51100000000E-03 0.  1.
        -12    1    4    4    0    0 -0.56281566127E+01  0.81383448054E+01 -0.77625547209E+01  0.12576408821E+02  0.00000000000E+00 0.  1.
</event>
<event>
 8    1  0.1244838E-006  0.9118800E+02  0.7816164E-02  0.1184000E+00
        -11   -1    0    0    0    0  0.00000000000E+00  0.00000000000E+00  0.45593999997E+02  0.45594000000E+02  0.51100000000E-03 0.  1.
         11   -1    0    0    0    0 -0.00000000000E+00 -0.00000000000E+00 -0.45593999997E+02  0.45594000000E+02  0.51100000000E-03 0. -1.
         23    2    1    2    0    0  0.35527136788E-14  0.00000000000E+00  0.00000000000E+00  0.91188000000E+02  0.91188000000E+02 0.  0.
    9900012    2    3    3    0    0  0.30408104917E+02 -0.11623462648E+02  0.17205275997E+02  0.54367092207E+02  0.40000018304E+02 0.  0.
         12    1    3    3    0    0 -0.30408104917E+02  0.11623462648E+02 -0.17205275997E+02  0.36820907793E+02  0.00000000000E+00 0. -1.
         11    1    4    4    0    0  0.13352750620E+02 -0.73116384792E+01  0.57790152168E+01  0.16283519997E+02  0.51100000000E-03 0. -1.
        -11    1    4    4    0    0 -0.88878436405E+01  0.10667339452E+01  0.66742994369E+01  0.11165928494E+02  0.51100000000E-03 0.  1.
        -12    1    4    4    0    0  0.25943197938E+02 -0.53785581138E+01  0.47519613430E+01  0.26917643716E+02  0.00000000000E+00 0.  1.
</event>
<event>
 8    1  0.1244838E-006  0.9118800E+02  0.7816164E-02  0.1184000E+00
        -11   -1    0    0    0    0  0.00000000000E+00  0.00000000000E+00  0.45593999997E+02  0.45594000000E+02  0.51100000000E-03 0.  1.
         11   -1    0    0    0    0 -0.00000000000E+00 -0.00000000000E+00 -0.45593999997E+02  0.45594000000E+02  0.51100000000E-03 0. -1.
         23    2    1    2    0    0  0.00000000000E+00 -0.17763568394E-14  0.00000000000E+00  0.91188000000E+02  0.91188000000E+02 0.  0.
    9900012    2    3    3    0    0 -0.10461705719E+02 -0.77798621850E+01 -0.34435535159E+02  0.54367087140E+02  0.40000006752E+02 0.  0.
        -12    1    3    3    0    0  0.10461705719E+02  0.77798621850E+01  0.34435535159E+02  0.36820912860E+02  0.00000000000E+00 0.  1.
         11    1    4    4    0    0  0.29617817097E+01  0.62473000230E+01 -0.19405343826E+02  0.20600200915E+02  0.51100000000E-03 0. -1.
        -11    1    4    4    0    0  0.63211576027E+01 -0.22014220661E+01 -0.61753813486E+01  0.91070647089E+01  0.51100000000E-03 0.  1.
         12    1    4    4    0    0 -0.19744645031E+02 -0.11825740142E+02 -0.88548099847E+01  0.24659821516E+02  0.00000000000E+00 0. -1.
</event>
<event>
 8    1  0.1244838E-006  0.9118800E+02  0.7816164E-02  0.1184000E+00
        -11   -1    0    0    0    0  0.00000000000E+00  0.00000000000E+00  0.45593999997E+02  0.45594000000E+02  0.51100000000E-03 0.  1.
         11   -1    0    0    0    0 -0.00000000000E+00 -0.00000000000E+00 -0.45593999997E+02  0.45594000000E+02  0.51100000000E-03 0. -1.
         23    2    1    2    0    0  0.00000000000E+00 -0.35527136788E-14  0.00000000000E+00  0.91188000000E+02  0.91188000000E+02 0.  0.
    9900012    2    3    3    0    0 -0.24431367034E+02  0.18332829401E+02  0.20562086001E+02  0.54367031657E+02  0.39999880267E+02 0.  0.
         12    1    3    3    0    0  0.24431367034E+02 -0.18332829401E+02 -0.20562086001E+02  0.36820968343E+02  0.00000000000E+00 0. -1.
         11    1    4    4    0    0  0.20581701980E+01  0.88396394419E+01  0.33602772882E+01  0.96781585925E+01  0.51100000000E-03 0. -1.
        -11    1    4    4    0    0 -0.85006712724E+01  0.46148321029E+01  0.23178262759E+02  0.25115532091E+02  0.51100000000E-03 0.  1.
        -12    1    4    4    0    0 -0.17988865960E+02  0.48783578566E+01 -0.59764540459E+01  0.19573340973E+02  0.00000000000E+00 0.  1.
</event>
<event>
 8    1  0.1244838E-006  0.9118800E+02  0.7816164E-02  0.1184000E+00
        -11   -1    0    0    0    0  0.00000000000E+00  0.00000000000E+00  0.45593999997E+02  0.45594000000E+02  0.51100000000E-03 0.  1.
         11   -1    0    0    0    0 -0.00000000000E+00 -0.00000000000E+00 -0.45593999997E+02  0.45594000000E+02  0.51100000000E-03 0. -1.
         23    2    1    2    0    0  0.26645352591E-14  0.35527136788E-14 -0.35527136788E-14  0.91188000000E+02  0.91188000000E+02 0.  0.
    9900012    2    3    3    0    0  0.77833481069E+01  0.30300546949E+02 -0.19418445772E+02  0.54367086250E+02  0.40000004724E+02 0.  0.
        -12    1    3    3    0    0 -0.77833481069E+01 -0.30300546949E+02  0.19418445772E+02  0.36820913750E+02  0.00000000000E+00 0.  1.
         11    1    4    4    0    0  0.97179185502E+01  0.25267796020E+02 -0.95902885044E+00  0.27089097313E+02  0.51100000000E-03 0. -1.
        -11    1    4    4    0    0 -0.73641160725E+01 -0.37679693456E+01 -0.13443976088E+02  0.15785065468E+02  0.51100000000E-03 0.  1.
        -12    1    4    4    0    0  0.54295456292E+01  0.88007202751E+01 -0.50154408333E+01  0.11492923468E+02  0.00000000000E+00 0.  1.
</event>
<event>
 8    1  0.1244838E-006  0.9118800E+02  0.7816164E-02  0.1184000E+00
        -11   -1    0    0    0    0  0.00000000000E+00  0.00000000000E+00  0.45593999997E+02  0.45594000000E+02  0.51100000000E-03 0. -1.
         11   -1    0    0    0    0 -0.00000000000E+00 -0.00000000000E+00 -0.45593999997E+02  0.45594000000E+02  0.51100000000E-03 0.  1.
         23    2    1    2    0    0  0.00000000000E+00  0.17763568394E-14  0.17763568394E-14  0.91188000000E+02  0.91188000000E+02 0.  0.
    9900012    2    3    3    0    0  0.32126736199E+02  0.15054616252E+02  0.98494588862E+01  0.54367075383E+02  0.39999979950E+02 0.  0.
        -12    1    3    3    0    0 -0.32126736199E+02 -0.15054616252E+02 -0.98494588862E+01  0.36820924617E+02  0.00000000000E+00 0.  1.
         11    1    4    4    0    0 -0.38251465729E+01  0.25477651483E+01  0.30981836065E+01  0.55427065118E+01  0.51100000000E-03 0. -1.
        -11    1    4    4    0    0  0.18496041268E+02  0.69687343811E+01 -0.11584141589E+02  0.22909804410E+02  0.51100000000E-03 0.  1.
         12    1    4    4    0    0  0.17455841504E+02  0.55381167225E+01  0.18335416869E+02  0.25914564461E+02  0.00000000000E+00 0. -1.
</event>
<event>
 8    1  0.1244838E-006  0.9118800E+02  0.7816164E-02  0.1184000E+00
        -11   -1    0    0    0    0  0.00000000000E+00  0.00000000000E+00  0.45593999997E+02  0.45594000000E+02  0.51100000000E-03 0.  1.
         11   -1    0    0    0    0 -0.00000000000E+00 -0.00000000000E+00 -0.45593999997E+02  0.45594000000E+02  0.51100000000E-03 0. -1.
         23    2    1    2    0    0  0.17763568394E-14  0.00000000000E+00  0.00000000000E+00  0.91188000000E+02  0.91188000000E+02 0.  0.
    9900012    2    3    3    0    0 -0.56138253114E+01  0.33423155423E+02  0.14392927963E+02  0.54367099299E+02  0.40000034473E+02 0.  0.
         12    1    3    3    0    0  0.56138253114E+01 -0.33423155423E+02 -0.14392927963E+02  0.36820900701E+02  0.00000000000E+00 0. -1.
         11    1    4    4    0    0 -0.84829214979E-01 -0.34990720669E+01 -0.15203540540E+01  0.38160421952E+01  0.51100000000E-03 0. -1.
        -11    1    4    4    0    0 -0.15677883155E+02  0.16191797566E+02  0.39790786240E-01  0.22538232234E+02  0.51100000000E-03 0.  1.
        -12    1    4    4    0    0  0.10148887059E+02  0.20730429924E+02  0.15873491231E+02  0.28012824870E+02  0.00000000000E+00 0.  1.
</event>
<event>
 8    1  0.1244838E-006  0.9118800E+02  0.7816164E-02  0.1184000E+00
        -11   -1    0    0    0    0  0.00000000000E+00  0.00000000000E+00  0.45593999997E+02  0.45594000000E+02  0.51100000000E-03 0. -1.
         11   -1    0    0    0    0 -0.00000000000E+00 -0.00000000000E+00 -0.45593999997E+02  0.45594000000E+02  0.51100000000E-03 0.  1.
         23    2    1    2    0    0  0.00000000000E+00 -0.35527136788E-14  0.17763568394E-14  0.91188000000E+02  0.91188000000E+02 0.  0.
    9900012    2    3    3    0    0 -0.21324464689E+02 -0.28258672986E+02 -0.10123944278E+02  0.54367086908E+02  0.40000006224E+02 0.  0.
         12    1    3    3    0    0  0.21324464689E+02  0.28258672986E+02  0.10123944278E+02  0.36820913092E+02  0.00000000000E+00 0. -1.
         11    1    4    4    0    0  0.40128159020E+01 -0.77292653104E+01 -0.88929483302E+01  0.12447038361E+02  0.51100000000E-03 0. -1.
        -11    1    4    4    0    0 -0.13998170775E+02 -0.22713722798E+02  0.71847530999E+01  0.27631190090E+02  0.51100000000E-03 0.  1.
         12    1    4    4    0    0 -0.11339109816E+02  0.21843151231E+01 -0.84157490480E+01  0.14288858457E+02  0.00000000000E+00 0. -1.
</event>
<event>
 8    1  0.1244838E-006  0.9118800E+02  0.7816164E-02  0.1184000E+00
        -11   -1    0    0    0    0  0.00000000000E+00  0.00000000000E+00  0.45593999997E+02  0.45594000000E+02  0.51100000000E-03 0.  1.
         11   -1    0    0    0    0 -0.00000000000E+00 -0.00000000000E+00 -0.45593999997E+02  0.45594000000E+02  0.51100000000E-03 0. -1.
         23    2    1    2    0    0  0.44408920985E-15  0.00000000000E+00  0.35527136788E-14  0.91188000000E+02  0.91188000000E+02 0.  0.
    9900012    2    3    3    0    0 -0.34367080165E+01 -0.18417772782E+02 -0.31697873061E+02  0.54367075612E+02  0.39999980472E+02 0.  0.
        -12    1    3    3    0    0  0.34367080165E+01  0.18417772782E+02  0.31697873061E+02  0.36820924388E+02  0.00000000000E+00 0.  1.
         11    1    4    4    0    0 -0.16022888178E+02 -0.31889598639E+01 -0.11078259702E+02  0.19739053900E+02  0.51100000000E-03 0. -1.
        -11    1    4    4    0    0  0.45488186752E+01 -0.65731399627E+01  0.27413826031E+01  0.84506271452E+01  0.51100000000E-03 0.  1.
         12    1    4    4    0    0  0.80373614861E+01 -0.86556729552E+01 -0.23360995962E+02  0.26177394566E+02  0.00000000000E+00 0. -1.
</event>
<event>
 8    1  0.1244838E-006  0.9118800E+02  0.7816164E-02  0.1184000E+00
        -11   -1    0    0    0    0  0.00000000000E+00  0.00000000000E+00  0.45593999997E+02  0.45594000000E+02  0.51100000000E-03 0. -1.
         11   -1    0    0    0    0 -0.00000000000E+00 -0.00000000000E+00 -0.45593999997E+02  0.45594000000E+02  0.51100000000E-03 0.  1.
         23    2    1    2    0    0  0.35527136788E-14  0.88817841970E-15  0.00000000000E+00  0.91188000000E+02  0.91188000000E+02 0.  0.
    9900012    2    3    3    0    0  0.14719664030E+02  0.13665180678E+01 -0.33723061480E+02  0.54367071762E+02  0.39999971695E+02 0.  0.
         12    1    3    3    0    0 -0.14719664030E+02 -0.13665180678E+01  0.33723061480E+02  0.36820928238E+02  0.00000000000E+00 0. -1.
         11    1    4    4    0    0  0.18866979264E+02  0.64257700020E+01 -0.80562037644E+01  0.21497810261E+02  0.51100000000E-03 0. -1.
        -11    1    4    4    0    0  0.70901984910E+01  0.18618565300E+01 -0.94960434469E+01  0.11996343851E+02  0.51100000000E-03 0.  1.
        -12    1    4    4    0    0 -0.11237513725E+02 -0.69211084642E+01 -0.16170814268E+02  0.20872917650E+02  0.00000000000E+00 0.  1.
</event>
<event>
 8    1  0.1244838E-006  0.9118800E+02  0.7816164E-02  0.1184000E+00
        -11   -1    0    0    0    0  0.00000000000E+00  0.00000000000E+00  0.45593999997E+02  0.45594000000E+02  0.51100000000E-03 0. -1.
         11   -1    0    0    0    0 -0.00000000000E+00 -0.00000000000E+00 -0.45593999997E+02  0.45594000000E+02  0.51100000000E-03 0.  1.
         23    2    1    2    0    0  0.00000000000E+00  0.00000000000E+00  0.00000000000E+00  0.91188000000E+02  0.91188000000E+02 0.  0.
    9900012    2    3    3    0    0 -0.18415895819E+02 -0.18934115903E+02  0.25654196738E+02  0.54367030783E+02  0.39999878275E+02 0.  0.
        -12    1    3    3    0    0  0.18415895819E+02  0.18934115903E+02 -0.25654196738E+02  0.36820969217E+02  0.00000000000E+00 0.  1.
         11    1    4    4    0    0 -0.28458580757E+01 -0.14904114549E+02  0.20306643405E+02  0.25349384712E+02  0.51100000000E-03 0. -1.
        -11    1    4    4    0    0 -0.21457001523E+02 -0.11520319108E+01  0.17923048452E+01  0.21562524175E+02  0.51100000000E-03 0.  1.
        -12    1    4    4    0    0  0.58869637797E+01 -0.28779694435E+01  0.35552484874E+01  0.74551218950E+01  0.00000000000E+00 0.  1.
</event>
<event>
 8    1  0.1244838E-006  0.9118800E+02  0.7816164E-02  0.1184000E+00
        -11   -1    0    0    0    0  0.00000000000E+00  0.00000000000E+00  0.45593999997E+02  0.45594000000E+02  0.51100000000E-03 0.  1.
         11   -1    0    0    0    0 -0.00000000000E+00 -0.00000000000E+00 -0.45593999997E+02  0.45594000000E+02  0.51100000000E-03 0. -1.
         23    2    1    2    0    0  0.00000000000E+00 -0.35527136788E-14 -0.88817841970E-15  0.91188000000E+02  0.91188000000E+02 0.  0.
    9900012    2    3    3    0    0 -0.22240310290E+02  0.28548990923E+02  0.67894441538E+01  0.54367179308E+02  0.40000216867E+02 0.  0.
         12    1    3    3    0    0  0.22240310290E+02 -0.28548990923E+02 -0.67894441538E+01  0.36820820692E+02  0.00000000000E+00 0. -1.
         11    1    4    4    0    0 -0.21954131750E+02  0.10349507054E+02 -0.48287115595E+00  0.24276106812E+02  0.51100000000E-03 0. -1.
        -11    1    4    4    0    0 -0.98715882592E+01  0.27125315422E+01  0.59239202041E+01  0.11827887088E+02  0.51100000000E-03 0.  1.
         12    1    4    4    0    0  0.95854097185E+01  0.15486952327E+02  0.13483951057E+01  0.18263185407E+02  0.00000000000E+00 0. -1.
</event>
<event>
 8    1  0.1244838E-006  0.9118800E+02  0.7816164E-02  0.1184000E+00
        -11   -1    0    0    0    0  0.00000000000E+00  0.00000000000E+00  0.45593999997E+02  0.45594000000E+02  0.51100000000E-03 0.  1.
         11   -1    0    0    0    0 -0.00000000000E+00 -0.00000000000E+00 -0.45593999997E+02  0.45594000000E+02  0.51100000000E-03 0. -1.
         23    2    1    2    0    0 -0.35527136788E-14  0.00000000000E+00 -0.35527136788E-14  0.91188000000E+02  0.91188000000E+02 0.  0.
    9900012    2    3    3    0    0 -0.25390261804E+02 -0.17759609263E+02 -0.19892487409E+02  0.54367079711E+02  0.39999989816E+02 0.  0.
        -12    1    3    3    0    0  0.25390261804E+02  0.17759609263E+02  0.19892487409E+02  0.36820920289E+02  0.00000000000E+00 0.  1.
         11    1    4    4    0    0 -0.36088979290E+01  0.23782893491E+01  0.13829933466E+01  0.45379593815E+01  0.51100000000E-03 0. -1.
        -11    1    4    4    0    0 -0.11039175347E+02 -0.25173409151E+02 -0.24755509772E+01  0.27598773044E+02  0.51100000000E-03 0.  1.
         12    1    4    4    0    0 -0.10742188528E+02  0.50355105388E+01 -0.18799929779E+02  0.22230347285E+02  0.00000000000E+00 0. -1.
</event>
<event>
 8    1  0.1244838E-006  0.9118800E+02  0.7816164E-02  0.1184000E+00
        -11   -1    0    0    0    0  0.00000000000E+00  0.00000000000E+00  0.45593999997E+02  0.45594000000E+02  0.51100000000E-03 0.  1.
         11   -1    0    0    0    0 -0.00000000000E+00 -0.00000000000E+00 -0.45593999997E+02  0.45594000000E+02  0.51100000000E-03 0. -1.
         23    2    1    2    0    0  0.00000000000E+00  0.00000000000E+00  0.66613381478E-15  0.91188000000E+02  0.91188000000E+02 0.  0.
    9900012    2    3    3    0    0 -0.16039486733E+02 -0.33107213264E+02  0.15566830263E+01  0.54367136800E+02  0.40000119963E+02 0.  0.
         12    1    3    3    0    0  0.16039486733E+02  0.33107213264E+02 -0.15566830263E+01  0.36820863200E+02  0.00000000000E+00 0. -1.
         11    1    4    4    0    0 -0.53739254092E+01 -0.18432314375E+02 -0.29943595803E+01  0.19431816103E+02  0.51100000000E-03 0. -1.
        -11    1    4    4    0    0 -0.70072703561E+01 -0.76653325932E+01  0.17156659200E+02  0.20055176807E+02  0.51100000000E-03 0.  1.
         12    1    4    4    0    0 -0.36582909676E+01 -0.70095662956E+01 -0.12605616594E+02  0.14880143889E+02  0.00000000000E+00 0. -1.
</event>
<event>
 8    1  0.1244838E-006  0.9118800E+02  0.7816164E-02  0.1184000E+00
        -11   -1    0    0    0    0  0.00000000000E+00  0.00000000000E+00  0.45593999997E+02  0.45594000000E+02  0.51100000000E-03 0.  1.
         11   -1    0    0    0    0 -0.00000000000E+00 -0.00000000000E+00 -0.45593999997E+02  0.45594000000E+02  0.51100000000E-03 0. -1.
         23    2    1    2    0    0  0.00000000000E+00  0.00000000000E+00 -0.22204460493E-15  0.91188000000E+02  0.91188000000E+02 0.  0.
    9900012    2    3    3    0    0  0.36306350946E+02  0.61281710809E+01  0.27035999738E+00  0.54367099762E+02  0.40000035527E+02 0.  0.
         12    1    3    3    0    0 -0.36306350946E+02 -0.61281710809E+01 -0.27035999738E+00  0.36820900238E+02  0.00000000000E+00 0. -1.
         11    1    4    4    0    0  0.14170306562E+01 -0.48190942838E+01 -0.11078332730E+02  0.12163926255E+02  0.51100000000E-03 0. -1.
        -11    1    4    4    0    0  0.25035872015E+02  0.12387427747E+02  0.11609359912E+01  0.27956949519E+02  0.51100000000E-03 0.  1.
        -12    1    4    4    0    0  0.98534482745E+01 -0.14401623822E+01  0.10187756737E+02  0.14246223988E+02  0.00000000000E+00 0.  1.
</event>
<event>
 8    1  0.1244838E-006  0.9118800E+02  0.7816164E-02  0.1184000E+00
        -11   -1    0    0    0    0  0.00000000000E+00  0.00000000000E+00  0.45593999997E+02  0.45594000000E+02  0.51100000000E-03 0. -1.
         11   -1    0    0    0    0 -0.00000000000E+00 -0.00000000000E+00 -0.45593999997E+02  0.45594000000E+02  0.51100000000E-03 0.  1.
         23    2    1    2    0    0  0.00000000000E+00 -0.35527136788E-14  0.00000000000E+00  0.91188000000E+02  0.91188000000E+02 0.  0.
    9900012    2    3    3    0    0  0.29554936529E+02 -0.18793443714E+02 -0.11361890224E+02  0.54367077289E+02  0.39999984295E+02 0.  0.
        -12    1    3    3    0    0 -0.29554936529E+02  0.18793443714E+02  0.11361890224E+02  0.36820922711E+02  0.00000000000E+00 0.  1.
         11    1    4    4    0    0  0.99156841286E+01 -0.78370238294E+01  0.50704119934E+01  0.13617959182E+02  0.51100000000E-03 0.  1.
        -11    1    4    4    0    0 -0.30058649859E+01 -0.71900085164E+01  0.50686068426E+01  0.92963553270E+01  0.51100000000E-03 0. -1.
        -12    1    4    4    0    0  0.22645117386E+02 -0.37664113677E+01 -0.21500909060E+02  0.31452762779E+02  0.00000000000E+00 0.  1.
</event>
<event>
 8    1  0.1244838E-006  0.9118800E+02  0.7816164E-02  0.1184000E+00
        -11   -1    0    0    0    0  0.00000000000E+00  0.00000000000E+00  0.45593999997E+02  0.45594000000E+02  0.51100000000E-03 0.  1.
         11   -1    0    0    0    0 -0.00000000000E+00 -0.00000000000E+00 -0.45593999997E+02  0.45594000000E+02  0.51100000000E-03 0. -1.
         23    2    1    2    0    0 -0.35527136788E-14  0.35527136788E-14  0.35527136788E-14  0.91188000000E+02  0.91188000000E+02 0.  0.
    9900012    2    3    3    0    0 -0.20890357463E+02  0.20021203927E+02  0.22771118756E+02  0.54367088944E+02  0.40000010865E+02 0.  0.
         12    1    3    3    0    0  0.20890357463E+02 -0.20021203927E+02 -0.22771118756E+02  0.36820911056E+02  0.00000000000E+00 0. -1.
         11    1    4    4    0    0 -0.14456892369E+02  0.17898036610E+02  0.97353589579E+01  0.24982367097E+02  0.51100000000E-03 0. -1.
        -11    1    4    4    0    0 -0.12634565565E+01  0.71116834207E+01 -0.57755428843E+01  0.92482030371E+01  0.51100000000E-03 0.  1.
        -12    1    4    4    0    0 -0.51700085376E+01 -0.49885161036E+01  0.18811302682E+02  0.20136518810E+02  0.00000000000E+00 0.  1.
</event>
<event>
 8    1  0.1244838E-006  0.9118800E+02  0.7816164E-02  0.1184000E+00
        -11   -1    0    0    0    0  0.00000000000E+00  0.00000000000E+00  0.45593999997E+02  0.45594000000E+02  0.51100000000E-03 0.  1.
         11   -1    0    0    0    0 -0.00000000000E+00 -0.00000000000E+00 -0.45593999997E+02  0.45594000000E+02  0.51100000000E-03 0. -1.
         23    2    1    2    0    0 -0.53290705182E-14 -0.71054273576E-14  0.00000000000E+00  0.91188000000E+02  0.91188000000E+02 0.  0.
    9900012    2    3    3    0    0  0.12632753136E+02  0.33853629851E+02 -0.70799196362E+01  0.54367082468E+02  0.39999996102E+02 0.  0.
        -12    1    3    3    0    0 -0.12632753136E+02 -0.33853629851E+02  0.70799196362E+01  0.36820917532E+02  0.00000000000E+00 0.  1.
         11    1    4    4    0    0  0.87733024312E+01  0.71675750520E+01 -0.29433165402E+01  0.11705045074E+02  0.51100000000E-03 0. -1.
        -11    1    4    4    0    0 -0.11063294625E+02  0.23622026508E+02 -0.73344565056E+01  0.27095956835E+02  0.51100000000E-03 0.  1.
        -12    1    4    4    0    0  0.14922745329E+02  0.30640282905E+01  0.31978534096E+01  0.15566080559E+02  0.00000000000E+00 0.  1.
</event>
<event>
 8    1  0.1244838E-006  0.9118800E+02  0.7816164E-02  0.1184000E+00
        -11   -1    0    0    0    0  0.00000000000E+00  0.00000000000E+00  0.45593999997E+02  0.45594000000E+02  0.51100000000E-03 0.  1.
         11   -1    0    0    0    0 -0.00000000000E+00 -0.00000000000E+00 -0.45593999997E+02  0.45594000000E+02  0.51100000000E-03 0. -1.
         23    2    1    2    0    0 -0.88817841970E-15  0.17763568394E-14  0.00000000000E+00  0.91188000000E+02  0.91188000000E+02 0.  0.
    9900012    2    3    3    0    0 -0.48922796267E+01 -0.15387322034E+01 -0.36461928737E+02  0.54367158837E+02  0.40000170199E+02 0.  0.
        -12    1    3    3    0    0  0.48922796267E+01  0.15387322034E+01  0.36461928737E+02  0.36820841163E+02  0.00000000000E+00 0.  1.
         11    1    4    4    0    0 -0.68708077497E+01  0.68703070325E+01  0.33375374436E+01  0.10273668980E+02  0.51100000000E-03 0. -1.
        -11    1    4    4    0    0 -0.32558244773E+01 -0.55979995338E+01 -0.35992728103E+01  0.74089646261E+01  0.51100000000E-03 0.  1.
         12    1    4    4    0    0  0.52343526003E+01 -0.28110397020E+01 -0.36200193371E+02  0.36684525231E+02  0.00000000000E+00 0. -1.
</event>
<event>
 8    1  0.1244838E-006  0.9118800E+02  0.7816164E-02  0.1184000E+00
        -11   -1    0    0    0    0  0.00000000000E+00  0.00000000000E+00  0.45593999997E+02  0.45594000000E+02  0.51100000000E-03 0.  1.
         11   -1    0    0    0    0 -0.00000000000E+00 -0.00000000000E+00 -0.45593999997E+02  0.45594000000E+02  0.51100000000E-03 0. -1.
         23    2    1    2    0    0  0.00000000000E+00  0.35527136788E-14  0.00000000000E+00  0.91188000000E+02  0.91188000000E+02 0.  0.
    9900012    2    3    3    0    0 -0.93500316392E+01  0.24928691900E+02 -0.25434531270E+02  0.54367107121E+02  0.40000052303E+02 0.  0.
        -12    1    3    3    0    0  0.93500316392E+01 -0.24928691900E+02  0.25434531270E+02  0.36820892879E+02  0.00000000000E+00 0.  1.
         11    1    4    4    0    0  0.42315042557E+01  0.11143914964E+02 -0.11483421420E+01  0.11975439822E+02  0.51100000000E-03 0. -1.
        -11    1    4    4    0    0 -0.10453529630E+02 -0.61023085743E+01 -0.18453620676E+01  0.12244174659E+02  0.51100000000E-03 0.  1.
         12    1    4    4    0    0 -0.31280062650E+01  0.19887085511E+02 -0.22440827060E+02  0.30147492640E+02  0.00000000000E+00 0. -1.
</event>
<event>
 8    1  0.1244838E-006  0.9118800E+02  0.7816164E-02  0.1184000E+00
        -11   -1    0    0    0    0  0.00000000000E+00  0.00000000000E+00  0.45593999997E+02  0.45594000000E+02  0.51100000000E-03 0. -1.
         11   -1    0    0    0    0 -0.00000000000E+00 -0.00000000000E+00 -0.45593999997E+02  0.45594000000E+02  0.51100000000E-03 0.  1.
         23    2    1    2    0    0  0.35527136788E-14  0.00000000000E+00 -0.88817841970E-15  0.91188000000E+02  0.91188000000E+02 0.  0.
    9900012    2    3    3    0    0  0.26955451275E+02  0.24121781469E+02 -0.68792496564E+01  0.54367071569E+02  0.39999971256E+02 0.  0.
         12    1    3    3    0    0 -0.26955451275E+02 -0.24121781469E+02  0.68792496564E+01  0.36820928431E+02  0.00000000000E+00 0. -1.
         11    1    4    4    0    0 -0.24947238907E+01  0.15202299265E+02 -0.13344606117E+02  0.20381659965E+02  0.51100000000E-03 0. -1.
        -11    1    4    4    0    0  0.64019331757E+01  0.48443074391E+01 -0.32266501712E+01  0.86523600560E+01  0.51100000000E-03 0.  1.
         12    1    4    4    0    0  0.23048241990E+02  0.40751747649E+01  0.96920066318E+01  0.25333051548E+02  0.00000000000E+00 0. -1.
</event>
<event>
 8    1  0.1244838E-006  0.9118800E+02  0.7816164E-02  0.1184000E+00
        -11   -1    0    0    0    0  0.00000000000E+00  0.00000000000E+00  0.45593999997E+02  0.45594000000E+02  0.51100000000E-03 0. -1.
         11   -1    0    0    0    0 -0.00000000000E+00 -0.00000000000E+00 -0.45593999997E+02  0.45594000000E+02  0.51100000000E-03 0.  1.
         23    2    1    2    0    0  0.35527136788E-14  0.35527136788E-14  0.17763568394E-14  0.91188000000E+02  0.91188000000E+02 0.  0.
    9900012    2    3    3    0    0  0.18632977521E+02  0.30119408757E+02  0.10070413027E+02  0.54367084018E+02  0.39999999637E+02 0.  0.
        -12    1    3    3    0    0 -0.18632977521E+02 -0.30119408757E+02 -0.10070413027E+02  0.36820915982E+02  0.00000000000E+00 0.  1.
         11    1    4    4    0    0  0.11455432050E+02 -0.40346658050E+01  0.62313856088E+01  0.13650480522E+02  0.51100000000E-03 0. -1.
        -11    1    4    4    0    0 -0.12483567527E+01  0.16091439459E+02 -0.74873172759E+01  0.17791929033E+02  0.51100000000E-03 0.  1.
         12    1    4    4    0    0  0.84259022242E+01  0.18062635103E+02  0.11326344694E+02  0.22924674464E+02  0.00000000000E+00 0. -1.
</event>
<event>
 8    1  0.1244838E-006  0.9118800E+02  0.7816164E-02  0.1184000E+00
        -11   -1    0    0    0    0  0.00000000000E+00  0.00000000000E+00  0.45593999997E+02  0.45594000000E+02  0.51100000000E-03 0.  1.
         11   -1    0    0    0    0 -0.00000000000E+00 -0.00000000000E+00 -0.45593999997E+02  0.45594000000E+02  0.51100000000E-03 0. -1.
         23    2    1    2    0    0 -0.35527136788E-14 -0.35527136788E-14 -0.99920072216E-15  0.91188000000E+02  0.91188000000E+02 0.  0.
    9900012    2    3    3    0    0 -0.27823340030E+02 -0.24097855459E+02  0.96732573494E+00  0.54367073786E+02  0.39999976311E+02 0.  0.
         12    1    3    3    0    0  0.27823340030E+02  0.24097855459E+02 -0.96732573494E+00  0.36820926214E+02  0.00000000000E+00 0. -1.
         11    1    4    4    0    0 -0.94279142893E+01 -0.53366200045E+01 -0.17339472551E+02  0.20445595846E+02  0.51100000000E-03 0. -1.
        -11    1    4    4    0    0 -0.11487121936E+02 -0.17139503912E+02  0.97953764466E+01  0.22840007984E+02  0.51100000000E-03 0.  1.
        -12    1    4    4    0    0 -0.69083038050E+01 -0.16217315423E+01  0.85114218391E+01  0.11081469956E+02  0.00000000000E+00 0.  1.
</event>
<event>
 8    1  0.1244838E-006  0.9118800E+02  0.7816164E-02  0.1184000E+00
        -11   -1    0    0    0    0  0.00000000000E+00  0.00000000000E+00  0.45593999997E+02  0.45594000000E+02  0.51100000000E-03 0.  1.
         11   -1    0    0    0    0 -0.00000000000E+00 -0.00000000000E+00 -0.45593999997E+02  0.45594000000E+02  0.51100000000E-03 0. -1.
         23    2    1    2    0    0  0.17763568394E-14  0.44408920985E-15  0.00000000000E+00  0.91188000000E+02  0.91188000000E+02 0.  0.
    9900012    2    3    3    0    0  0.97516128962E+01  0.38394557444E+01  0.35297924694E+02  0.54367097482E+02  0.40000030331E+02 0.  0.
         12    1    3    3    0    0 -0.97516128962E+01 -0.38394557444E+01 -0.35297924694E+02  0.36820902518E+02  0.00000000000E+00 0. -1.
         11    1    4    4    0    0 -0.66448721140E+01  0.54213243520E+01 -0.17823054924E+00  0.85776948844E+01  0.51100000000E-03 0. -1.
        -11    1    4    4    0    0  0.22895688832E+01  0.10253671179E+02  0.13895274887E+02  0.17420062077E+02  0.51100000000E-03 0.  1.
         12    1    4    4    0    0  0.14106916127E+02 -0.11835539786E+02  0.21580880357E+02  0.28369340521E+02  0.00000000000E+00 0. -1.
</event>
<event>
 8    1  0.1244838E-006  0.9118800E+02  0.7816164E-02  0.1184000E+00
        -11   -1    0    0    0    0  0.00000000000E+00  0.00000000000E+00  0.45593999997E+02  0.45594000000E+02  0.51100000000E-03 0. -1.
         11   -1    0    0    0    0 -0.00000000000E+00 -0.00000000000E+00 -0.45593999997E+02  0.45594000000E+02  0.51100000000E-03 0.  1.
         23    2    1    2    0    0  0.00000000000E+00  0.00000000000E+00  0.00000000000E+00  0.91188000000E+02  0.91188000000E+02 0.  0.
    9900012    2    3    3    0    0 -0.89164989746E+01  0.11640775942E+02 -0.33775260320E+02  0.54367084365E+02  0.40000000428E+02 0.  0.
         12    1    3    3    0    0  0.89164989746E+01 -0.11640775942E+02  0.33775260320E+02  0.36820915635E+02  0.00000000000E+00 0. -1.
         11    1    4    4    0    0  0.21767602707E+01  0.15369536551E+02  0.38499854496E+00  0.15527690208E+02  0.51100000000E-03 0. -1.
        -11    1    4    4    0    0 -0.12472897117E+02 -0.23266534955E+00 -0.15970228320E+02  0.20265129866E+02  0.51100000000E-03 0.  1.
        -12    1    4    4    0    0  0.13796378718E+01 -0.34960952590E+01 -0.18190030545E+02  0.18574264291E+02  0.00000000000E+00 0.  1.
</event>
<event>
 8    1  0.1244838E-006  0.9118800E+02  0.7816164E-02  0.1184000E+00
        -11   -1    0    0    0    0  0.00000000000E+00  0.00000000000E+00  0.45593999997E+02  0.45594000000E+02  0.51100000000E-03 0. -1.
         11   -1    0    0    0    0 -0.00000000000E+00 -0.00000000000E+00 -0.45593999997E+02  0.45594000000E+02  0.51100000000E-03 0.  1.
         23    2    1    2    0    0  0.00000000000E+00  0.00000000000E+00  0.00000000000E+00  0.91188000000E+02  0.91188000000E+02 0.  0.
    9900012    2    3    3    0    0 -0.18974815920E+02  0.26606714168E+02  0.16965214641E+02  0.54367090372E+02  0.40000014122E+02 0.  0.
        -12    1    3    3    0    0  0.18974815920E+02 -0.26606714168E+02 -0.16965214641E+02  0.36820909628E+02  0.00000000000E+00 0.  1.
         11    1    4    4    0    0 -0.26308238816E+02  0.23965847309E+02  0.20450568558E+02  0.41045231409E+02  0.51100000000E-03 0. -1.
        -11    1    4    4    0    0  0.88827323243E+01  0.31604468296E+01  0.48640102823E-01  0.94283468237E+01  0.51100000000E-03 0.  1.
         12    1    4    4    0    0 -0.15493094282E+01 -0.51957997125E+00 -0.35339940195E+01  0.38935121395E+01  0.00000000000E+00 0. -1.
</event>
<event>
 8    1  0.1244838E-006  0.9118800E+02  0.7816164E-02  0.1184000E+00
        -11   -1    0    0    0    0  0.00000000000E+00  0.00000000000E+00  0.45593999997E+02  0.45594000000E+02  0.51100000000E-03 0. -1.
         11   -1    0    0    0    0 -0.00000000000E+00 -0.00000000000E+00 -0.45593999997E+02  0.45594000000E+02  0.51100000000E-03 0.  1.
         23    2    1    2    0    0  0.88817841970E-15 -0.71054273576E-14  0.00000000000E+00  0.91188000000E+02  0.91188000000E+02 0.  0.
    9900012    2    3    3    0    0  0.29641250141E+01  0.36284875924E+02  0.55135928119E+01  0.54367109685E+02  0.40000058149E+02 0.  0.
        -12    1    3    3    0    0 -0.29641250141E+01 -0.36284875924E+02 -0.55135928119E+01  0.36820890315E+02  0.00000000000E+00 0.  1.
         11    1    4    4    0    0 -0.12740981476E+02  0.14316822397E+02 -0.28326286850E+01  0.19373378592E+02  0.51100000000E-03 0. -1.
        -11    1    4    4    0    0  0.60575851811E+01  0.96728370261E+01  0.14276721700E+02  0.18277934706E+02  0.51100000000E-03 0.  1.
        -12    1    4    4    0    0  0.96475213094E+01  0.12295216500E+02 -0.59305002028E+01  0.16715796387E+02  0.00000000000E+00 0.  1.
</event>
<event>
 8    1  0.1244838E-006  0.9118800E+02  0.7816164E-02  0.1184000E+00
        -11   -1    0    0    0    0  0.00000000000E+00  0.00000000000E+00  0.45593999997E+02  0.45594000000E+02  0.51100000000E-03 0.  1.
         11   -1    0    0    0    0 -0.00000000000E+00 -0.00000000000E+00 -0.45593999997E+02  0.45594000000E+02  0.51100000000E-03 0. -1.
         23    2    1    2    0    0  0.00000000000E+00  0.00000000000E+00  0.00000000000E+00  0.91188000000E+02  0.91188000000E+02 0.  0.
    9900012    2    3    3    0    0 -0.98423563400E+01  0.14862427252E+02 -0.32218247091E+02  0.54367093334E+02  0.40000020873E+02 0.  0.
        -12    1    3    3    0    0  0.98423563400E+01 -0.14862427252E+02  0.32218247091E+02  0.36820906666E+02  0.00000000000E+00 0.  1.
         11    1    4    4    0    0 -0.11400424007E+01  0.96168831700E+01 -0.51829682995E+01  0.10983956447E+02  0.51100000000E-03 0. -1.
        -11    1    4    4    0    0 -0.41772679533E+01  0.41361618409E+01  0.69370278611E+01  0.90928410376E+01  0.51100000000E-03 0.  1.
         12    1    4    4    0    0 -0.45250459861E+01  0.11093822411E+01 -0.33972306652E+02  0.34290295849E+02  0.00000000000E+00 0. -1.
</event>
<event>
 8    1  0.1244838E-006  0.9118800E+02  0.7816164E-02  0.1184000E+00
        -11   -1    0    0    0    0  0.00000000000E+00  0.00000000000E+00  0.45593999997E+02  0.45594000000E+02  0.51100000000E-03 0.  1.
         11   -1    0    0    0    0 -0.00000000000E+00 -0.00000000000E+00 -0.45593999997E+02  0.45594000000E+02  0.51100000000E-03 0. -1.
         23    2    1    2    0    0 -0.44408920985E-15  0.00000000000E+00  0.35527136788E-14  0.91188000000E+02  0.91188000000E+02 0.  0.
    9900012    2    3    3    0    0  0.31000655890E+01 -0.19277945315E+02 -0.31217340718E+02  0.54367191430E+02  0.40000244503E+02 0.  0.
        -12    1    3    3    0    0 -0.31000655890E+01  0.19277945315E+02  0.31217340718E+02  0.36820808570E+02  0.00000000000E+00 0.  1.
         11    1    4    4    0    0  0.96262369347E+01 -0.68138003473E+01 -0.26118982941E+02  0.28658220161E+02  0.51100000000E-03 0. -1.
        -11    1    4    4    0    0 -0.92090250037E+01 -0.16922915693E+02 -0.13846635360E+01  0.19316016940E+02  0.51100000000E-03 0.  1.
        -12    1    4    4    0    0  0.26828536580E+01  0.44587707254E+01 -0.37136942417E+01  0.63929543290E+01  0.00000000000E+00 0.  1.
</event>
<event>
 8    1  0.1244838E-006  0.9118800E+02  0.7816164E-02  0.1184000E+00
        -11   -1    0    0    0    0  0.00000000000E+00  0.00000000000E+00  0.45593999997E+02  0.45594000000E+02  0.51100000000E-03 0.  1.
         11   -1    0    0    0    0 -0.00000000000E+00 -0.00000000000E+00 -0.45593999997E+02  0.45594000000E+02  0.51100000000E-03 0. -1.
         23    2    1    2    0    0  0.00000000000E+00 -0.26645352591E-14  0.00000000000E+00  0.91188000000E+02  0.91188000000E+02 0.  0.
    9900012    2    3    3    0    0 -0.16872867016E+02  0.61147664390E+01 -0.32151230810E+02  0.54367005275E+02  0.39999820125E+02 0.  0.
        -12    1    3    3    0    0  0.16872867016E+02 -0.61147664390E+01  0.32151230810E+02  0.36820994725E+02  0.00000000000E+00 0.  1.
         11    1    4    4    0    0 -0.15141416685E+02  0.81250965059E+01 -0.23457427310E+02  0.29078008679E+02  0.51100000000E-03 0. -1.
        -11    1    4    4    0    0  0.85604875498E+01 -0.80872322056E+01 -0.38079885700E+01  0.12376835179E+02  0.51100000000E-03 0.  1.
        -12    1    4    4    0    0 -0.10291937880E+02  0.60769021387E+01 -0.48858149301E+01  0.12912161417E+02  0.00000000000E+00 0.  1.
</event>
<event>
 8    1  0.1244838E-006  0.9118800E+02  0.7816164E-02  0.1184000E+00
        -11   -1    0    0    0    0  0.00000000000E+00  0.00000000000E+00  0.45593999997E+02  0.45594000000E+02  0.51100000000E-03 0. -1.
         11   -1    0    0    0    0 -0.00000000000E+00 -0.00000000000E+00 -0.45593999997E+02  0.45594000000E+02  0.51100000000E-03 0.  1.
         23    2    1    2    0    0  0.00000000000E+00  0.17763568394E-14  0.71054273576E-14  0.91188000000E+02  0.91188000000E+02 0.  0.
    9900012    2    3    3    0    0  0.16749160279E+02 -0.11087175002E+02  0.30859645417E+02  0.54367115507E+02  0.40000071421E+02 0.  0.
        -12    1    3    3    0    0 -0.16749160279E+02  0.11087175002E+02 -0.30859645417E+02  0.36820884493E+02  0.00000000000E+00 0.  1.
         11    1    4    4    0    0  0.90666507599E+01  0.64576109977E+01  0.29395857403E+02  0.31432806564E+02  0.51100000000E-03 0. -1.
        -11    1    4    4    0    0 -0.25238937896E+01 -0.64737997037E+00  0.18404934730E+01  0.31900716563E+01  0.51100000000E-03 0.  1.
        -12    1    4    4    0    0  0.10206403308E+02 -0.16897406029E+02 -0.37670545831E+00  0.19744237286E+02  0.00000000000E+00 0.  1.
</event>
<event>
 8    1  0.1244838E-006  0.9118800E+02  0.7816164E-02  0.1184000E+00
        -11   -1    0    0    0    0  0.00000000000E+00  0.00000000000E+00  0.45593999997E+02  0.45594000000E+02  0.51100000000E-03 0. -1.
         11   -1    0    0    0    0 -0.00000000000E+00 -0.00000000000E+00 -0.45593999997E+02  0.45594000000E+02  0.51100000000E-03 0.  1.
         23    2    1    2    0    0 -0.35527136788E-14  0.00000000000E+00  0.00000000000E+00  0.91188000000E+02  0.91188000000E+02 0.  0.
    9900012    2    3    3    0    0  0.27104215300E+02 -0.18026588386E+02  0.17209983060E+02  0.54367083488E+02  0.39999998427E+02 0.  0.
         12    1    3    3    0    0 -0.27104215300E+02  0.18026588386E+02 -0.17209983060E+02  0.36820916512E+02  0.00000000000E+00 0. -1.
         11    1    4    4    0    0 -0.52109575633E+01 -0.62538961414E+01  0.24358399513E+01  0.84969766507E+01  0.51100000000E-03 0. -1.
        -11    1    4    4    0    0  0.17918799723E+02 -0.19850259006E+02  0.71139765344E+01  0.27671733385E+02  0.51100000000E-03 0.  1.
        -12    1    4    4    0    0  0.14396373140E+02  0.80775667613E+01  0.76601665739E+01  0.18198373453E+02  0.00000000000E+00 0.  1.
</event>
<event>
 8    1  0.1244838E-006  0.9118800E+02  0.7816164E-02  0.1184000E+00
        -11   -1    0    0    0    0  0.00000000000E+00  0.00000000000E+00  0.45593999997E+02  0.45594000000E+02  0.51100000000E-03 0.  1.
         11   -1    0    0    0    0 -0.00000000000E+00 -0.00000000000E+00 -0.45593999997E+02  0.45594000000E+02  0.51100000000E-03 0. -1.
         23    2    1    2    0    0  0.00000000000E+00  0.35527136788E-14  0.71054273576E-14  0.91188000000E+02  0.91188000000E+02 0.  0.
    9900012    2    3    3    0    0 -0.11762959361E+02  0.27705738953E+02  0.21208497988E+02  0.54367142178E+02  0.40000132222E+02 0.  0.
         12    1    3    3    0    0  0.11762959361E+02 -0.27705738953E+02 -0.21208497988E+02  0.36820857822E+02  0.00000000000E+00 0. -1.
         11    1    4    4    0    0 -0.34782188781E+01  0.60636898033E+01  0.80762035496E+01  0.10681357808E+02  0.51100000000E-03 0. -1.
        -11    1    4    4    0    0  0.11409198666E+01  0.14704777457E+02  0.23701806852E+02  0.27916085444E+02  0.51100000000E-03 0.  1.
         12    1    4    4    0    0 -0.94256603492E+01  0.69372716921E+01 -0.10569512413E+02  0.15769698925E+02  0.00000000000E+00 0. -1.
</event>
<event>
 8    1  0.1244838E-006  0.9118800E+02  0.7816164E-02  0.1184000E+00
        -11   -1    0    0    0    0  0.00000000000E+00  0.00000000000E+00  0.45593999997E+02  0.45594000000E+02  0.51100000000E-03 0.  1.
         11   -1    0    0    0    0 -0.00000000000E+00 -0.00000000000E+00 -0.45593999997E+02  0.45594000000E+02  0.51100000000E-03 0. -1.
         23    2    1    2    0    0  0.00000000000E+00  0.00000000000E+00 -0.88817841970E-15  0.91188000000E+02  0.91188000000E+02 0.  0.
    9900012    2    3    3    0    0  0.12251142975E+02 -0.34319237665E+02  0.52800921424E+01  0.54367082696E+02  0.39999996622E+02 0.  0.
         12    1    3    3    0    0 -0.12251142975E+02  0.34319237665E+02 -0.52800921424E+01  0.36820917304E+02  0.00000000000E+00 0. -1.
         11    1    4    4    0    0 -0.20653388500E+01 -0.41882373013E+01 -0.27230577974E+01  0.54057377190E+01  0.51100000000E-03 0. -1.
        -11    1    4    4    0    0  0.25580472431E+02 -0.15774524296E+02  0.51787730288E+01  0.30496161675E+02  0.51100000000E-03 0.  1.
        -12    1    4    4    0    0 -0.11263990606E+02 -0.14356476067E+02  0.28243769110E+01  0.18465183302E+02  0.00000000000E+00 0.  1.
</event>
<event>
 8    1  0.1244838E-006  0.9118800E+02  0.7816164E-02  0.1184000E+00
        -11   -1    0    0    0    0  0.00000000000E+00  0.00000000000E+00  0.45593999997E+02  0.45594000000E+02  0.51100000000E-03 0.  1.
         11   -1    0    0    0    0 -0.00000000000E+00 -0.00000000000E+00 -0.45593999997E+02  0.45594000000E+02  0.51100000000E-03 0. -1.
         23    2    1    2    0    0  0.00000000000E+00  0.71054273576E-14  0.35527136788E-14  0.91188000000E+02  0.91188000000E+02 0.  0.
    9900012    2    3    3    0    0  0.84350652006E+01  0.34024183249E+02  0.11268664647E+02  0.54367106833E+02  0.40000051647E+02 0.  0.
         12    1    3    3    0    0 -0.84350652006E+01 -0.34024183249E+02 -0.11268664647E+02  0.36820893167E+02  0.00000000000E+00 0. -1.
         11    1    4    4    0    0 -0.11397272235E+02  0.10425220408E+02 -0.51193158443E+01  0.16272382429E+02  0.51100000000E-03 0. -1.
        -11    1    4    4    0    0  0.12390073567E+02  0.38884833956E+01  0.37092533037E+01  0.13505287351E+02  0.51100000000E-03 0.  1.
         12    1    4    4    0    0  0.74422638687E+01  0.19710479445E+02  0.12678727188E+02  0.24589437053E+02  0.00000000000E+00 0. -1.
</event>
<event>
 8    1  0.1244838E-006  0.9118800E+02  0.7816164E-02  0.1184000E+00
        -11   -1    0    0    0    0  0.00000000000E+00  0.00000000000E+00  0.45593999997E+02  0.45594000000E+02  0.51100000000E-03 0. -1.
         11   -1    0    0    0    0 -0.00000000000E+00 -0.00000000000E+00 -0.45593999997E+02  0.45594000000E+02  0.51100000000E-03 0.  1.
         23    2    1    2    0    0  0.00000000000E+00 -0.44408920985E-15  0.00000000000E+00  0.91188000000E+02  0.91188000000E+02 0.  0.
    9900012    2    3    3    0    0  0.34935128220E+02 -0.32290314280E+01  0.11175474178E+02  0.54367067763E+02  0.39999962579E+02 0.  0.
        -12    1    3    3    0    0 -0.34935128220E+02  0.32290314280E+01 -0.11175474178E+02  0.36820932237E+02  0.00000000000E+00 0.  1.
         11    1    4    4    0    0  0.18683210986E+02  0.92070485122E+01 -0.26753076008E+01  0.20999747286E+02  0.51100000000E-03 0. -1.
        -11    1    4    4    0    0  0.12915518170E+02 -0.13915041238E+02 -0.60467374984E-01  0.18985326935E+02  0.51100000000E-03 0.  1.
         12    1    4    4    0    0  0.33363990645E+01  0.14789612980E+01  0.13911249154E+02  0.14381993543E+02  0.00000000000E+00 0. -1.
</event>
<event>
 8    1  0.1244838E-006  0.9118800E+02  0.7816164E-02  0.1184000E+00
        -11   -1    0    0    0    0  0.00000000000E+00  0.00000000000E+00  0.45593999997E+02  0.45594000000E+02  0.51100000000E-03 0. -1.
         11   -1    0    0    0    0 -0.00000000000E+00 -0.00000000000E+00 -0.45593999997E+02  0.45594000000E+02  0.51100000000E-03 0.  1.
         23    2    1    2    0    0  0.00000000000E+00  0.00000000000E+00  0.00000000000E+00  0.91188000000E+02  0.91188000000E+02 0.  0.
    9900012    2    3    3    0    0  0.68551834493E+01  0.35027716009E+02  0.90468430386E+01  0.54367084777E+02  0.40000001366E+02 0.  0.
        -12    1    3    3    0    0 -0.68551834493E+01 -0.35027716009E+02 -0.90468430386E+01  0.36820915223E+02  0.00000000000E+00 0.  1.
         11    1    4    4    0    0  0.49990286894E+01  0.25946003119E+02  0.55312712195E+01  0.26995931680E+02  0.51100000000E-03 0. -1.
        -11    1    4    4    0    0 -0.96567150646E+01  0.92952656873E+01 -0.35444944115E+01  0.13864254431E+02  0.51100000000E-03 0.  1.
         12    1    4    4    0    0  0.11512869825E+02 -0.21355279789E+00  0.70600662306E+01  0.13506898666E+02  0.00000000000E+00 0. -1.
</event>
<event>
 8    1  0.1244838E-006  0.9118800E+02  0.7816164E-02  0.1184000E+00
        -11   -1    0    0    0    0  0.00000000000E+00  0.00000000000E+00  0.45593999997E+02  0.45594000000E+02  0.51100000000E-03 0.  1.
         11   -1    0    0    0    0 -0.00000000000E+00 -0.00000000000E+00 -0.45593999997E+02  0.45594000000E+02  0.51100000000E-03 0. -1.
         23    2    1    2    0    0  0.71054273576E-14  0.00000000000E+00  0.00000000000E+00  0.91188000000E+02  0.91188000000E+02 0.  0.
    9900012    2    3    3    0    0  0.29864355104E+02  0.16741673830E+02  0.13550528838E+02  0.54367079585E+02  0.39999989530E+02 0.  0.
         12    1    3    3    0    0 -0.29864355104E+02 -0.16741673830E+02 -0.13550528838E+02  0.36820920415E+02  0.00000000000E+00 0. -1.
         11    1    4    4    0    0  0.10499890790E+02 -0.58552234230E+01  0.10510975858E+02  0.15969093953E+02  0.51100000000E-03 0. -1.
        -11    1    4    4    0    0 -0.12640480535E+01  0.15911602465E+02 -0.21363651790E+01  0.16104066782E+02  0.51100000000E-03 0.  1.
         12    1    4    4    0    0  0.20628512367E+02  0.66852947889E+01  0.51759181585E+01  0.22293918850E+02  0.00000000000E+00 0. -1.
</event>
<event>
 8    1  0.1244838E-006  0.9118800E+02  0.7816164E-02  0.1184000E+00
        -11   -1    0    0    0    0  0.00000000000E+00  0.00000000000E+00  0.45593999997E+02  0.45594000000E+02  0.51100000000E-03 0. -1.
         11   -1    0    0    0    0 -0.00000000000E+00 -0.00000000000E+00 -0.45593999997E+02  0.45594000000E+02  0.51100000000E-03 0.  1.
         23    2    1    2    0    0  0.00000000000E+00 -0.11102230246E-14 -0.71054273576E-14  0.91188000000E+02  0.91188000000E+02 0.  0.
    9900012    2    3    3    0    0  0.31366295807E+02  0.19068981097E+01  0.19191109324E+02  0.54367089498E+02  0.40000012130E+02 0.  0.
        -12    1    3    3    0    0 -0.31366295807E+02 -0.19068981097E+01 -0.19191109324E+02  0.36820910502E+02  0.00000000000E+00 0.  1.
         11    1    4    4    0    0 -0.24147558189E+01  0.15788598848E+01  0.82589536352E+00  0.30009911052E+01  0.51100000000E-03 0. -1.
        -11    1    4    4    0    0  0.89765664908E+01  0.87342625469E+01 -0.74655579607E+01  0.14580831394E+02  0.51100000000E-03 0.  1.
         12    1    4    4    0    0  0.24804485135E+02 -0.84062243220E+01  0.25830771921E+02  0.36785267000E+02  0.00000000000E+00 0. -1.
</event>
<event>
 8    1  0.1244838E-006  0.9118800E+02  0.7816164E-02  0.1184000E+00
        -11   -1    0    0    0    0  0.00000000000E+00  0.00000000000E+00  0.45593999997E+02  0.45594000000E+02  0.51100000000E-03 0.  1.
         11   -1    0    0    0    0 -0.00000000000E+00 -0.00000000000E+00 -0.45593999997E+02  0.45594000000E+02  0.51100000000E-03 0. -1.
         23    2    1    2    0    0 -0.35527136788E-14 -0.35527136788E-14  0.35527136788E-14  0.91188000000E+02  0.91188000000E+02 0.  0.
    9900012    2    3    3    0    0  0.18025536226E+02  0.26029538041E+02  0.18796875885E+02  0.54367090860E+02  0.40000015233E+02 0.  0.
         12    1    3    3    0    0 -0.18025536226E+02 -0.26029538041E+02 -0.18796875885E+02  0.36820909140E+02  0.00000000000E+00 0. -1.
         11    1    4    4    0    0 -0.15332368148E+01  0.48744704694E+00 -0.28463124899E+00  0.16338405561E+01  0.51100000000E-03 0. -1.
        -11    1    4    4    0    0 -0.10220987302E+02  0.13293212716E+01  0.11527681379E+01  0.10371333141E+02  0.51100000000E-03 0.  1.
        -12    1    4    4    0    0  0.29779760343E+02  0.24212769723E+02  0.17928738996E+02  0.42361917163E+02  0.00000000000E+00 0.  1.
</event>
<event>
 8    1  0.1244838E-006  0.9118800E+02  0.7816164E-02  0.1184000E+00
        -11   -1    0    0    0    0  0.00000000000E+00  0.00000000000E+00  0.45593999997E+02  0.45594000000E+02  0.51100000000E-03 0. -1.
         11   -1    0    0    0    0 -0.00000000000E+00 -0.00000000000E+00 -0.45593999997E+02  0.45594000000E+02  0.51100000000E-03 0.  1.
         23    2    1    2    0    0  0.00000000000E+00 -0.35527136788E-14 -0.35527136788E-14  0.91188000000E+02  0.91188000000E+02 0.  0.
    9900012    2    3    3    0    0  0.19752888007E+02  0.26025738223E+02  0.16978425991E+02  0.54367046946E+02  0.39999915122E+02 0.  0.
         12    1    3    3    0    0 -0.19752888007E+02 -0.26025738223E+02 -0.16978425991E+02  0.36820953054E+02  0.00000000000E+00 0. -1.
         11    1    4    4    0    0  0.35768363025E+01  0.25572673888E+02  0.21472763302E+02  0.33583254336E+02  0.51100000000E-03 0. -1.
        -11    1    4    4    0    0  0.67299398959E+01  0.61750277009E+00 -0.82082826769E+01  0.10632464693E+02  0.51100000000E-03 0.  1.
         12    1    4    4    0    0  0.94461118089E+01 -0.16443843496E+00  0.37139453660E+01  0.10151327917E+02  0.00000000000E+00 0. -1.
</event>
<event>
 8    1  0.1244838E-006  0.9118800E+02  0.7816164E-02  0.1184000E+00
        -11   -1    0    0    0    0  0.00000000000E+00  0.00000000000E+00  0.45593999997E+02  0.45594000000E+02  0.51100000000E-03 0. -1.
         11   -1    0    0    0    0 -0.00000000000E+00 -0.00000000000E+00 -0.45593999997E+02  0.45594000000E+02  0.51100000000E-03 0.  1.
         23    2    1    2    0    0  0.35527136788E-14  0.00000000000E+00  0.00000000000E+00  0.91188000000E+02  0.91188000000E+02 0.  0.
    9900012    2    3    3    0    0  0.21907015803E+02  0.17574732591E+02  0.23811564126E+02  0.54367093532E+02  0.40000021325E+02 0.  0.
        -12    1    3    3    0    0 -0.21907015803E+02 -0.17574732591E+02 -0.23811564126E+02  0.36820906468E+02  0.00000000000E+00 0.  1.
         11    1    4    4    0    0 -0.40870232940E+01 -0.41150124106E+00  0.99793814199E+01  0.10791716567E+02  0.51100000000E-03 0. -1.
        -11    1    4    4    0    0  0.19909239062E+02  0.45686353168E+01 -0.36104586181E+01  0.20743327611E+02  0.51100000000E-03 0.  1.
        -12    1    4    4    0    0  0.60848000348E+01  0.13417598515E+02  0.17442641324E+02  0.22832049354E+02  0.00000000000E+00 0.  1.
</event>
<event>
 8    1  0.1244838E-006  0.9118800E+02  0.7816164E-02  0.1184000E+00
        -11   -1    0    0    0    0  0.00000000000E+00  0.00000000000E+00  0.45593999997E+02  0.45594000000E+02  0.51100000000E-03 0.  1.
         11   -1    0    0    0    0 -0.00000000000E+00 -0.00000000000E+00 -0.45593999997E+02  0.45594000000E+02  0.51100000000E-03 0. -1.
         23    2    1    2    0    0  0.17763568394E-14  0.00000000000E+00  0.00000000000E+00  0.91188000000E+02  0.91188000000E+02 0.  0.
    9900012    2    3    3    0    0 -0.87654290267E+01 -0.52808938876E+01 -0.35370272980E+02  0.54367125527E+02  0.40000094264E+02 0.  0.
        -12    1    3    3    0    0  0.87654290267E+01  0.52808938876E+01  0.35370272980E+02  0.36820874473E+02  0.00000000000E+00 0.  1.
         11    1    4    4    0    0 -0.59905867855E+01 -0.11149732310E+02 -0.93797431998E+00  0.12691865769E+02  0.51100000000E-03 0. -1.
        -11    1    4    4    0    0 -0.92870796162E+01  0.29260766106E+01 -0.41904738763E+01  0.10600558650E+02  0.51100000000E-03 0.  1.
        -12    1    4    4    0    0  0.65122373749E+01  0.29427618113E+01 -0.30241824784E+02  0.31074701108E+02  0.00000000000E+00 0.  1.
</event>
<event>
 8    1  0.1244838E-006  0.9118800E+02  0.7816164E-02  0.1184000E+00
        -11   -1    0    0    0    0  0.00000000000E+00  0.00000000000E+00  0.45593999997E+02  0.45594000000E+02  0.51100000000E-03 0.  1.
         11   -1    0    0    0    0 -0.00000000000E+00 -0.00000000000E+00 -0.45593999997E+02  0.45594000000E+02  0.51100000000E-03 0. -1.
         23    2    1    2    0    0  0.35527136788E-14 -0.88817841970E-15  0.00000000000E+00  0.91188000000E+02  0.91188000000E+02 0.  0.
    9900012    2    3    3    0    0  0.25945890507E+02 -0.54264605670E+01  0.25556663923E+02  0.54367098607E+02  0.40000032895E+02 0.  0.
         12    1    3    3    0    0 -0.25945890507E+02  0.54264605670E+01 -0.25556663923E+02  0.36820901393E+02  0.00000000000E+00 0. -1.
         11    1    4    4    0    0  0.85922898062E+01  0.48988584804E+00 -0.95180396261E+01  0.12832011177E+02  0.51100000000E-03 0. -1.
        -11    1    4    4    0    0  0.14745827342E+02 -0.86140469736E+01  0.33213563674E+02  0.37346780872E+02  0.51100000000E-03 0.  1.
        -12    1    4    4    0    0  0.26077733587E+01  0.26977005586E+01  0.18611398750E+01  0.41883065586E+01  0.00000000000E+00 0.  1.
</event>
<event>
 8    1  0.1244838E-006  0.9118800E+02  0.7816164E-02  0.1184000E+00
        -11   -1    0    0    0    0  0.00000000000E+00  0.00000000000E+00  0.45593999997E+02  0.45594000000E+02  0.51100000000E-03 0.  1.
         11   -1    0    0    0    0 -0.00000000000E+00 -0.00000000000E+00 -0.45593999997E+02  0.45594000000E+02  0.51100000000E-03 0. -1.
         23    2    1    2    0    0  0.00000000000E+00  0.44408920985E-15 -0.88817841970E-15  0.91188000000E+02  0.91188000000E+02 0.  0.
    9900012    2    3    3    0    0  0.36065140014E+02  0.17903571631E+01  0.72028047177E+01  0.54367080690E+02  0.39999992049E+02 0.  0.
         12    1    3    3    0    0 -0.36065140014E+02 -0.17903571631E+01 -0.72028047177E+01  0.36820919310E+02  0.00000000000E+00 0. -1.
         11    1    4    4    0    0 -0.45582707547E+01  0.63478285228E+01  0.20733619332E+01  0.80852698901E+01  0.51100000000E-03 0. -1.
        -11    1    4    4    0    0  0.39490287527E+02 -0.70753506546E+01  0.93913656852E+01  0.41203654517E+02  0.51100000000E-03 0.  1.
        -12    1    4    4    0    0  0.11331232420E+01  0.25178792949E+01 -0.42619229006E+01  0.50781562831E+01  0.00000000000E+00 0.  1.
</event>
<event>
 8    1  0.1244838E-006  0.9118800E+02  0.7816164E-02  0.1184000E+00
        -11   -1    0    0    0    0  0.00000000000E+00  0.00000000000E+00  0.45593999997E+02  0.45594000000E+02  0.51100000000E-03 0.  1.
         11   -1    0    0    0    0 -0.00000000000E+00 -0.00000000000E+00 -0.45593999997E+02  0.45594000000E+02  0.51100000000E-03 0. -1.
         23    2    1    2    0    0  0.00000000000E+00  0.17763568394E-14  0.00000000000E+00  0.91188000000E+02  0.91188000000E+02 0.  0.
    9900012    2    3    3    0    0  0.14858204093E+02  0.64113210234E+01 -0.33074288376E+02  0.54367084507E+02  0.40000000750E+02 0.  0.
        -12    1    3    3    0    0 -0.14858204093E+02 -0.64113210234E+01  0.33074288376E+02  0.36820915493E+02  0.00000000000E+00 0.  1.
         11    1    4    4    0    0  0.30556794323E+01  0.11318989303E+02 -0.59585582725E+01  0.13151468077E+02  0.51100000000E-03 0. -1.
        -11    1    4    4    0    0 -0.24727392785E+01  0.98018138738E+01 -0.12316574982E+02  0.15933863760E+02  0.51100000000E-03 0.  1.
        -12    1    4    4    0    0  0.14275263940E+02 -0.14709482153E+02 -0.14799155121E+02  0.25281752670E+02  0.00000000000E+00 0.  1.
</event>
<event>
 8    1  0.1244838E-006  0.9118800E+02  0.7816164E-02  0.1184000E+00
        -11   -1    0    0    0    0  0.00000000000E+00  0.00000000000E+00  0.45593999997E+02  0.45594000000E+02  0.51100000000E-03 0.  1.
         11   -1    0    0    0    0 -0.00000000000E+00 -0.00000000000E+00 -0.45593999997E+02  0.45594000000E+02  0.51100000000E-03 0. -1.
         23    2    1    2    0    0  0.00000000000E+00  0.00000000000E+00  0.00000000000E+00  0.91188000000E+02  0.91188000000E+02 0.  0.
    9900012    2    3    3    0    0 -0.22032530189E+02  0.28310757708E+02 -0.82973824282E+01  0.54367109955E+02  0.40000058765E+02 0.  0.
        -12    1    3    3    0    0  0.22032530189E+02 -0.28310757708E+02  0.82973824282E+01  0.36820890045E+02  0.00000000000E+00 0.  1.
         11    1    4    4    0    0 -0.20845480729E+02  0.15685081865E+02 -0.11199437901E+02  0.28389844478E+02  0.51100000000E-03 0. -1.
        -11    1    4    4    0    0 -0.57622795780E+00 -0.28555256023E+01 -0.70055043002E+01  0.75870386770E+01  0.51100000000E-03 0.  1.
         12    1    4    4    0    0 -0.61082150188E+00  0.15481201446E+02  0.99075597728E+01  0.18390226800E+02  0.00000000000E+00 0. -1.
</event>
<event>
 8    1  0.1244838E-006  0.9118800E+02  0.7816164E-02  0.1184000E+00
        -11   -1    0    0    0    0  0.00000000000E+00  0.00000000000E+00  0.45593999997E+02  0.45594000000E+02  0.51100000000E-03 0. -1.
         11   -1    0    0    0    0 -0.00000000000E+00 -0.00000000000E+00 -0.45593999997E+02  0.45594000000E+02  0.51100000000E-03 0.  1.
         23    2    1    2    0    0  0.17763568394E-14  0.17763568394E-14  0.00000000000E+00  0.91188000000E+02  0.91188000000E+02 0.  0.
    9900012    2    3    3    0    0  0.15085509621E+02  0.11796056186E+02 -0.31449343275E+02  0.54367072058E+02  0.39999972370E+02 0.  0.
         12    1    3    3    0    0 -0.15085509621E+02 -0.11796056186E+02  0.31449343275E+02  0.36820927942E+02  0.00000000000E+00 0. -1.
         11    1    4    4    0    0  0.26669163328E+02  0.11769814202E+02 -0.18908803028E+02  0.34746447749E+02  0.51100000000E-03 0. -1.
        -11    1    4    4    0    0 -0.67702634428E+01  0.37287691314E+01 -0.10841776054E+02  0.13314814854E+02  0.51100000000E-03 0.  1.
         12    1    4    4    0    0 -0.48133902637E+01 -0.37025271468E+01 -0.16987641931E+01  0.63058094554E+01  0.00000000000E+00 0. -1.
</event>
<event>
 8    1  0.1244838E-006  0.9118800E+02  0.7816164E-02  0.1184000E+00
        -11   -1    0    0    0    0  0.00000000000E+00  0.00000000000E+00  0.45593999997E+02  0.45594000000E+02  0.51100000000E-03 0.  1.
         11   -1    0    0    0    0 -0.00000000000E+00 -0.00000000000E+00 -0.45593999997E+02  0.45594000000E+02  0.51100000000E-03 0. -1.
         23    2    1    2    0    0 -0.71054273576E-14  0.00000000000E+00  0.00000000000E+00  0.91188000000E+02  0.91188000000E+02 0.  0.
    9900012    2    3    3    0    0 -0.25720209991E+02 -0.26289054232E+02  0.17709306538E+01  0.54367085158E+02  0.40000002235E+02 0.  0.
        -12    1    3    3    0    0  0.25720209991E+02  0.26289054232E+02 -0.17709306538E+01  0.36820914842E+02  0.00000000000E+00 0.  1.
         11    1    4    4    0    0  0.13161757861E+01 -0.33030264791E+01  0.15865552473E+01  0.38935151772E+01  0.51100000000E-03 0. -1.
        -11    1    4    4    0    0 -0.13241672000E+01  0.90868189942E+01  0.16991246349E+01  0.93386681595E+01  0.51100000000E-03 0.  1.
         12    1    4    4    0    0 -0.25712218577E+02 -0.32072846747E+02 -0.15147492283E+01  0.41134901821E+02  0.00000000000E+00 0. -1.
</event>
<event>
 8    1  0.1244838E-006  0.9118800E+02  0.7816164E-02  0.1184000E+00
        -11   -1    0    0    0    0  0.00000000000E+00  0.00000000000E+00  0.45593999997E+02  0.45594000000E+02  0.51100000000E-03 0.  1.
         11   -1    0    0    0    0 -0.00000000000E+00 -0.00000000000E+00 -0.45593999997E+02  0.45594000000E+02  0.51100000000E-03 0. -1.
         23    2    1    2    0    0  0.00000000000E+00  0.35527136788E-14 -0.13322676296E-14  0.91188000000E+02  0.91188000000E+02 0.  0.
    9900012    2    3    3    0    0  0.31379116822E+02  0.18881245744E+02 -0.38243465191E+01  0.54367135811E+02  0.40000117707E+02 0.  0.
        -12    1    3    3    0    0 -0.31379116822E+02 -0.18881245744E+02  0.38243465191E+01  0.36820864189E+02  0.00000000000E+00 0.  1.
         11    1    4    4    0    0  0.20539589821E+02  0.18089192263E+01 -0.58609238864E+01  0.21435889714E+02  0.51100000000E-03 0. -1.
        -11    1    4    4    0    0  0.46574164548E+00  0.15308556221E+02 -0.89332040645E+01  0.17730508847E+02  0.51100000000E-03 0.  1.
        -12    1    4    4    0    0  0.10373785355E+02  0.17637702964E+01  0.10969781432E+02  0.15200737249E+02  0.00000000000E+00 0.  1.
</event>
<event>
 8    1  0.1244838E-006  0.9118800E+02  0.7816164E-02  0.1184000E+00
        -11   -1    0    0    0    0  0.00000000000E+00  0.00000000000E+00  0.45593999997E+02  0.45594000000E+02  0.51100000000E-03 0. -1.
         11   -1    0    0    0    0 -0.00000000000E+00 -0.00000000000E+00 -0.45593999997E+02  0.45594000000E+02  0.51100000000E-03 0.  1.
         23    2    1    2    0    0  0.00000000000E+00  0.35527136788E-14  0.00000000000E+00  0.91188000000E+02  0.91188000000E+02 0.  0.
    9900012    2    3    3    0    0 -0.20516028829E+02  0.26796383864E+02  0.14725026177E+02  0.54367081719E+02  0.39999994395E+02 0.  0.
        -12    1    3    3    0    0  0.20516028829E+02 -0.26796383864E+02 -0.14725026177E+02  0.36820918281E+02  0.00000000000E+00 0.  1.
         11    1    4    4    0    0 -0.29418993657E+02  0.82914581529E+01  0.74838588754E+01  0.31467977533E+02  0.51100000000E-03 0. -1.
        -11    1    4    4    0    0  0.35127877314E+01  0.33066763470E+01 -0.78266584253E+00  0.48873665907E+01  0.51100000000E-03 0.  1.
         12    1    4    4    0    0  0.53901770967E+01  0.15198249364E+02  0.80238331446E+01  0.18011737596E+02  0.00000000000E+00 0. -1.
</event>
<event>
 8    1  0.1244838E-006  0.9118800E+02  0.7816164E-02  0.1184000E+00
        -11   -1    0    0    0    0  0.00000000000E+00  0.00000000000E+00  0.45593999997E+02  0.45594000000E+02  0.51100000000E-03 0. -1.
         11   -1    0    0    0    0 -0.00000000000E+00 -0.00000000000E+00 -0.45593999997E+02  0.45594000000E+02  0.51100000000E-03 0.  1.
         23    2    1    2    0    0 -0.17763568394E-14 -0.71054273576E-14  0.00000000000E+00  0.91188000000E+02  0.91188000000E+02 0.  0.
    9900012    2    3    3    0    0 -0.14867178626E+02 -0.33447328403E+02 -0.40027163302E+01  0.54367102189E+02  0.40000041061E+02 0.  0.
         12    1    3    3    0    0  0.14867178626E+02  0.33447328403E+02  0.40027163302E+01  0.36820897811E+02  0.00000000000E+00 0. -1.
         11    1    4    4    0    0  0.79563266028E+01 -0.14900461317E+02 -0.64284350988E+01  0.18073507090E+02  0.51100000000E-03 0.  1.
        -11    1    4    4    0    0 -0.89737980206E+01  0.35389850819E+01 -0.19997117782E+01  0.98515132737E+01  0.51100000000E-03 0. -1.
         12    1    4    4    0    0 -0.13849707208E+02 -0.22085852168E+02  0.44254305468E+01  0.26442081825E+02  0.00000000000E+00 0. -1.
</event>
<event>
 8    1  0.1244838E-006  0.9118800E+02  0.7816164E-02  0.1184000E+00
        -11   -1    0    0    0    0  0.00000000000E+00  0.00000000000E+00  0.45593999997E+02  0.45594000000E+02  0.51100000000E-03 0.  1.
         11   -1    0    0    0    0 -0.00000000000E+00 -0.00000000000E+00 -0.45593999997E+02  0.45594000000E+02  0.51100000000E-03 0. -1.
         23    2    1    2    0    0  0.35527136788E-14  0.00000000000E+00 -0.35527136788E-14  0.91188000000E+02  0.91188000000E+02 0.  0.
    9900012    2    3    3    0    0 -0.25844594946E+02  0.16680310520E+02  0.20238663085E+02  0.54367091124E+02  0.40000015836E+02 0.  0.
         12    1    3    3    0    0  0.25844594946E+02 -0.16680310520E+02 -0.20238663085E+02  0.36820908876E+02  0.00000000000E+00 0. -1.
         11    1    4    4    0    0 -0.16433271099E+02  0.12656384391E+02 -0.82828878608E+01  0.22334786689E+02  0.51100000000E-03 0. -1.
        -11    1    4    4    0    0  0.16873272749E+00 -0.27049034853E+01  0.74404858647E+01  0.79186996257E+01  0.51100000000E-03 0.  1.
        -12    1    4    4    0    0 -0.95800565744E+01  0.67288296144E+01  0.21081065081E+02  0.24113604810E+02  0.00000000000E+00 0.  1.
</event>
<event>
 8    1  0.1244838E-006  0.9118800E+02  0.7816164E-02  0.1184000E+00
        -11   -1    0    0    0    0  0.00000000000E+00  0.00000000000E+00  0.45593999997E+02  0.45594000000E+02  0.51100000000E-03 0. -1.
         11   -1    0    0    0    0 -0.00000000000E+00 -0.00000000000E+00 -0.45593999997E+02  0.45594000000E+02  0.51100000000E-03 0.  1.
         23    2    1    2    0    0 -0.35527136788E-14  0.17763568394E-14  0.35527136788E-14  0.91188000000E+02  0.91188000000E+02 0.  0.
    9900012    2    3    3    0    0 -0.20368655221E+02  0.95410728662E+01  0.29152443890E+02  0.54367093279E+02  0.40000020749E+02 0.  0.
        -12    1    3    3    0    0  0.20368655221E+02 -0.95410728662E+01 -0.29152443890E+02  0.36820906721E+02  0.00000000000E+00 0.  1.
         11    1    4    4    0    0 -0.11016404788E+02 -0.12168865393E+02  0.13577379494E+02  0.21302293154E+02  0.51100000000E-03 0. -1.
        -11    1    4    4    0    0  0.33369053805E+01  0.14193295168E+00  0.47338240293E+01  0.57934594745E+01  0.51100000000E-03 0.  1.
         12    1    4    4    0    0 -0.12689155814E+02  0.21568005308E+02  0.10841240367E+02  0.27271340651E+02  0.00000000000E+00 0. -1.
</event>
<event>
 8    1  0.1244838E-006  0.9118800E+02  0.7816164E-02  0.1184000E+00
        -11   -1    0    0    0    0  0.00000000000E+00  0.00000000000E+00  0.45593999997E+02  0.45594000000E+02  0.51100000000E-03 0. -1.
         11   -1    0    0    0    0 -0.00000000000E+00 -0.00000000000E+00 -0.45593999997E+02  0.45594000000E+02  0.51100000000E-03 0.  1.
         23    2    1    2    0    0  0.71054273576E-14 -0.16098233857E-14 -0.17763568394E-14  0.91188000000E+02  0.91188000000E+02 0.  0.
    9900012    2    3    3    0    0  0.33602623825E+02  0.27942975115E+00 -0.15052090617E+02  0.54367084193E+02  0.40000000035E+02 0.  0.
        -12    1    3    3    0    0 -0.33602623825E+02 -0.27942975115E+00  0.15052090617E+02  0.36820915807E+02  0.00000000000E+00 0.  1.
         11    1    4    4    0    0  0.23838020966E+02 -0.15000061357E+02 -0.82959717512E+01  0.29361134716E+02  0.51100000000E-03 0. -1.
        -11    1    4    4    0    0  0.56565945181E+01 -0.22322530072E+01 -0.19832468121E+01  0.63963492095E+01  0.51100000000E-03 0.  1.
        -12    1    4    4    0    0  0.41080083409E+01  0.17511744115E+02 -0.47728720541E+01  0.18609600268E+02  0.00000000000E+00 0.  1.
</event>
<event>
 8    1  0.1244838E-006  0.9118800E+02  0.7816164E-02  0.1184000E+00
        -11   -1    0    0    0    0  0.00000000000E+00  0.00000000000E+00  0.45593999997E+02  0.45594000000E+02  0.51100000000E-03 0. -1.
         11   -1    0    0    0    0 -0.00000000000E+00 -0.00000000000E+00 -0.45593999997E+02  0.45594000000E+02  0.51100000000E-03 0.  1.
         23    2    1    2    0    0  0.00000000000E+00  0.00000000000E+00 -0.35527136788E-14  0.91188000000E+02  0.91188000000E+02 0.  0.
    9900012    2    3    3    0    0  0.19719254257E+02 -0.14937182935E+02 -0.27272935259E+02  0.54367062748E+02  0.39999951147E+02 0.  0.
         12    1    3    3    0    0 -0.19719254257E+02  0.14937182935E+02  0.27272935259E+02  0.36820937252E+02  0.00000000000E+00 0. -1.
         11    1    4    4    0    0 -0.24910556650E-01  0.22363482409E+01 -0.17151827927E+01  0.28184616840E+01  0.51100000000E-03 0. -1.
        -11    1    4    4    0    0 -0.87456407468E+01 -0.20680579396E+01 -0.15238477254E+02  0.17691079249E+02  0.51100000000E-03 0.  1.
        -12    1    4    4    0    0  0.28489805560E+02 -0.15105473236E+02 -0.10319275212E+02  0.33857521815E+02  0.00000000000E+00 0.  1.
</event>
<event>
 8    1  0.1244838E-006  0.9118800E+02  0.7816164E-02  0.1184000E+00
        -11   -1    0    0    0    0  0.00000000000E+00  0.00000000000E+00  0.45593999997E+02  0.45594000000E+02  0.51100000000E-03 0.  1.
         11   -1    0    0    0    0 -0.00000000000E+00 -0.00000000000E+00 -0.45593999997E+02  0.45594000000E+02  0.51100000000E-03 0. -1.
         23    2    1    2    0    0  0.35527136788E-14  0.35527136788E-14 -0.35527136788E-14  0.91188000000E+02  0.91188000000E+02 0.  0.
    9900012    2    3    3    0    0  0.16774226241E+02  0.18844035467E+02 -0.26819952631E+02  0.54367052187E+02  0.39999927072E+02 0.  0.
        -12    1    3    3    0    0 -0.16774226241E+02 -0.18844035467E+02  0.26819952631E+02  0.36820947813E+02  0.00000000000E+00 0.  1.
         11    1    4    4    0    0  0.19425355258E+02  0.11517581554E+02 -0.34772599895E+00  0.22585836831E+02  0.51100000000E-03 0. -1.
        -11    1    4    4    0    0  0.28187185974E+00 -0.58591955272E-01 -0.23177173457E+02  0.23178961463E+02  0.51100000000E-03 0.  1.
        -12    1    4    4    0    0 -0.29330008762E+01  0.73850458688E+01 -0.32950531747E+01  0.86022538935E+01  0.00000000000E+00 0.  1.
</event>
<event>
 8    1  0.1244838E-006  0.9118800E+02  0.7816164E-02  0.1184000E+00
        -11   -1    0    0    0    0  0.00000000000E+00  0.00000000000E+00  0.45593999997E+02  0.45594000000E+02  0.51100000000E-03 0. -1.
         11   -1    0    0    0    0 -0.00000000000E+00 -0.00000000000E+00 -0.45593999997E+02  0.45594000000E+02  0.51100000000E-03 0.  1.
         23    2    1    2    0    0 -0.71054273576E-14  0.22204460493E-15  0.00000000000E+00  0.91188000000E+02  0.91188000000E+02 0.  0.
    9900012    2    3    3    0    0  0.36425715057E+02 -0.10581179048E+01  0.52752613166E+01  0.54367072352E+02  0.39999973041E+02 0.  0.
         12    1    3    3    0    0 -0.36425715057E+02  0.10581179048E+01 -0.52752613166E+01  0.36820927648E+02  0.00000000000E+00 0. -1.
         11    1    4    4    0    0  0.28039491472E+02 -0.17213579862E+01  0.32298696099E+01  0.28277344523E+02  0.51100000000E-03 0. -1.
        -11    1    4    4    0    0  0.10241679337E+02  0.27785681530E+01 -0.94776718422E+01  0.14228095460E+02  0.51100000000E-03 0.  1.
         12    1    4    4    0    0 -0.18554557518E+01 -0.21153280715E+01  0.11523063549E+02  0.11861632369E+02  0.00000000000E+00 0. -1.
</event>
<event>
 8    1  0.1244838E-006  0.9118800E+02  0.7816164E-02  0.1184000E+00
        -11   -1    0    0    0    0  0.00000000000E+00  0.00000000000E+00  0.45593999997E+02  0.45594000000E+02  0.51100000000E-03 0.  1.
         11   -1    0    0    0    0 -0.00000000000E+00 -0.00000000000E+00 -0.45593999997E+02  0.45594000000E+02  0.51100000000E-03 0. -1.
         23    2    1    2    0    0  0.26645352591E-14  0.00000000000E+00  0.00000000000E+00  0.91188000000E+02  0.91188000000E+02 0.  0.
    9900012    2    3    3    0    0  0.53321831301E+01  0.10726247662E+02 -0.34818029827E+02  0.54367085198E+02  0.40000002326E+02 0.  0.
        -12    1    3    3    0    0 -0.53321831301E+01 -0.10726247662E+02  0.34818029827E+02  0.36820914802E+02  0.00000000000E+00 0.  1.
         11    1    4    4    0    0  0.15910539394E+02 -0.38401159486E+01 -0.19758156895E+02  0.25656900016E+02  0.51100000000E-03 0. -1.
        -11    1    4    4    0    0 -0.25052025968E+01  0.95577055233E+01  0.11234030234E+01  0.99442349900E+01  0.51100000000E-03 0.  1.
         12    1    4    4    0    0 -0.80731536668E+01  0.50086580876E+01 -0.16183275955E+02  0.18765950192E+02  0.00000000000E+00 0. -1.
</event>
<event>
 8    1  0.1244838E-006  0.9118800E+02  0.7816164E-02  0.1184000E+00
        -11   -1    0    0    0    0  0.00000000000E+00  0.00000000000E+00  0.45593999997E+02  0.45594000000E+02  0.51100000000E-03 0. -1.
         11   -1    0    0    0    0 -0.00000000000E+00 -0.00000000000E+00 -0.45593999997E+02  0.45594000000E+02  0.51100000000E-03 0.  1.
         23    2    1    2    0    0  0.17763568394E-14  0.00000000000E+00 -0.88817841970E-15  0.91188000000E+02  0.91188000000E+02 0.  0.
    9900012    2    3    3    0    0 -0.14642039247E+02 -0.33440801625E+02 -0.48064718340E+01  0.54367099710E+02  0.40000035410E+02 0.  0.
         12    1    3    3    0    0  0.14642039247E+02  0.33440801625E+02  0.48064718340E+01  0.36820900290E+02  0.00000000000E+00 0. -1.
         11    1    4    4    0    0 -0.23628970279E+01 -0.23046425668E+02 -0.86849201139E+01  0.24741642146E+02  0.51100000000E-03 0.  1.
        -11    1    4    4    0    0 -0.12889166516E+01 -0.16646934340E+02  0.15504883811E+01  0.16768593964E+02  0.51100000000E-03 0. -1.
         12    1    4    4    0    0 -0.10990225567E+02  0.62525583825E+01  0.23279598987E+01  0.12856863600E+02  0.00000000000E+00 0. -1.
</event>
<event>
 8    1  0.1244838E-006  0.9118800E+02  0.7816164E-02  0.1184000E+00
        -11   -1    0    0    0    0  0.00000000000E+00  0.00000000000E+00  0.45593999997E+02  0.45594000000E+02  0.51100000000E-03 0.  1.
         11   -1    0    0    0    0 -0.00000000000E+00 -0.00000000000E+00 -0.45593999997E+02  0.45594000000E+02  0.51100000000E-03 0. -1.
         23    2    1    2    0    0  0.00000000000E+00  0.00000000000E+00  0.13322676296E-14  0.91188000000E+02  0.91188000000E+02 0.  0.
    9900012    2    3    3    0    0  0.35528542268E+01 -0.36541667117E+02 -0.28042383375E+01  0.54367082555E+02  0.39999996300E+02 0.  0.
         12    1    3    3    0    0 -0.35528542268E+01  0.36541667117E+02  0.28042383375E+01  0.36820917445E+02  0.00000000000E+00 0. -1.
         11    1    4    4    0    0 -0.33352767916E+01 -0.10067588933E+02 -0.13779245735E+02  0.17388157794E+02  0.51100000000E-03 0. -1.
        -11    1    4    4    0    0  0.40091375972E+01  0.63691019058E-01  0.94227126222E+01  0.10240349322E+02  0.51100000000E-03 0.  1.
        -12    1    4    4    0    0  0.28789934212E+01 -0.26537769203E+02  0.15522947752E+01  0.26738575438E+02  0.00000000000E+00 0.  1.
</event>
<event>
 8    1  0.1244838E-006  0.9118800E+02  0.7816164E-02  0.1184000E+00
        -11   -1    0    0    0    0  0.00000000000E+00  0.00000000000E+00  0.45593999997E+02  0.45594000000E+02  0.51100000000E-03 0.  1.
         11   -1    0    0    0    0 -0.00000000000E+00 -0.00000000000E+00 -0.45593999997E+02  0.45594000000E+02  0.51100000000E-03 0. -1.
         23    2    1    2    0    0 -0.35527136788E-14 -0.35527136788E-14  0.88817841970E-15  0.91188000000E+02  0.91188000000E+02 0.  0.
    9900012    2    3    3    0    0  0.25464176492E+02  0.26383197358E+02 -0.33588569898E+01  0.54367091435E+02  0.40000016545E+02 0.  0.
        -12    1    3    3    0    0 -0.25464176492E+02 -0.26383197358E+02  0.33588569898E+01  0.36820908565E+02  0.00000000000E+00 0.  1.
         11    1    4    4    0    0  0.15670344306E+02 -0.55224833801E+00 -0.12377674406E+01  0.15728850479E+02  0.51100000000E-03 0. -1.
        -11    1    4    4    0    0  0.73102399661E+01  0.25577546318E+02 -0.11396810793E+02  0.28940244997E+02  0.51100000000E-03 0.  1.
         12    1    4    4    0    0  0.24835922202E+01  0.13578993788E+01  0.92757212436E+01  0.96979959594E+01  0.00000000000E+00 0. -1.
</event>
<event>
 8    1  0.1244838E-006  0.9118800E+02  0.7816164E-02  0.1184000E+00
        -11   -1    0    0    0    0  0.00000000000E+00  0.00000000000E+00  0.45593999997E+02  0.45594000000E+02  0.51100000000E-03 0.  1.
         11   -1    0    0    0    0 -0.00000000000E+00 -0.00000000000E+00 -0.45593999997E+02  0.45594000000E+02  0.51100000000E-03 0. -1.
         23    2    1    2    0    0  0.88817841970E-15  0.00000000000E+00  0.17763568394E-14  0.91188000000E+02  0.91188000000E+02 0.  0.
    9900012    2    3    3    0    0 -0.36795259096E+01  0.35252959688E+02 -0.99734734620E+01  0.54367078629E+02  0.39999987350E+02 0.  0.
         12    1    3    3    0    0  0.36795259096E+01 -0.35252959688E+02  0.99734734620E+01  0.36820921371E+02  0.00000000000E+00 0. -1.
         11    1    4    4    0    0 -0.18243785945E+01 -0.89647406407E+00  0.18631116201E+01  0.27573915525E+01  0.51100000000E-03 0. -1.
        -11    1    4    4    0    0  0.38680092487E+01  0.41871008186E+02 -0.87607625524E+01  0.42952226751E+02  0.51100000000E-03 0.  1.
        -12    1    4    4    0    0 -0.57231565638E+01 -0.57215744339E+01 -0.30758225297E+01  0.86574603256E+01  0.00000000000E+00 0.  1.
</event>
<event>
 8    1  0.1244838E-006  0.9118800E+02  0.7816164E-02  0.1184000E+00
        -11   -1    0    0    0    0  0.00000000000E+00  0.00000000000E+00  0.45593999997E+02  0.45594000000E+02  0.51100000000E-03 0. -1.
         11   -1    0    0    0    0 -0.00000000000E+00 -0.00000000000E+00 -0.45593999997E+02  0.45594000000E+02  0.51100000000E-03 0.  1.
         23    2    1    2    0    0 -0.35527136788E-14  0.22204460493E-15  0.00000000000E+00  0.91188000000E+02  0.91188000000E+02 0.  0.
    9900012    2    3    3    0    0  0.14941247754E+02 -0.10867267968E+01  0.33635667810E+02  0.54367081915E+02  0.39999994842E+02 0.  0.
        -12    1    3    3    0    0 -0.14941247754E+02  0.10867267968E+01 -0.33635667810E+02  0.36820918085E+02  0.00000000000E+00 0.  1.
         11    1    4    4    0    0  0.21259782904E+02  0.88848116698E+01  0.34880836608E+02  0.41804198477E+02  0.51100000000E-03 0. -1.
        -11    1    4    4    0    0  0.29839989145E+00 -0.25118239814E+01 -0.24309741098E+00  0.25411412438E+01  0.51100000000E-03 0.  1.
         12    1    4    4    0    0 -0.66169350420E+01 -0.74597144853E+01 -0.10020713867E+01  0.10021742195E+02  0.00000000000E+00 0. -1.
</event>
<event>
 8    1  0.1244838E-006  0.9118800E+02  0.7816164E-02  0.1184000E+00
        -11   -1    0    0    0    0  0.00000000000E+00  0.00000000000E+00  0.45593999997E+02  0.45594000000E+02  0.51100000000E-03 0. -1.
         11   -1    0    0    0    0 -0.00000000000E+00 -0.00000000000E+00 -0.45593999997E+02  0.45594000000E+02  0.51100000000E-03 0.  1.
         23    2    1    2    0    0  0.00000000000E+00  0.00000000000E+00  0.00000000000E+00  0.91188000000E+02  0.91188000000E+02 0.  0.
    9900012    2    3    3    0    0 -0.29182422188E+02 -0.13238279624E+02 -0.18135843883E+02  0.54367154742E+02  0.40000160866E+02 0.  0.
         12    1    3    3    0    0  0.29182422188E+02  0.13238279624E+02  0.18135843883E+02  0.36820845258E+02  0.00000000000E+00 0. -1.
         11    1    4    4    0    0 -0.21117252012E+02 -0.24722234612E+02 -0.50053555613E+01  0.32896516553E+02  0.51100000000E-03 0. -1.
        -11    1    4    4    0    0 -0.31900904794E+01 -0.11925953896E+01 -0.25886510092E+01  0.42778587329E+01  0.51100000000E-03 0.  1.
         12    1    4    4    0    0 -0.48750796962E+01  0.12676550378E+02 -0.10541837313E+02  0.17192779457E+02  0.00000000000E+00 0. -1.
</event>
<event>
 8    1  0.1244838E-006  0.9118800E+02  0.7816164E-02  0.1184000E+00
        -11   -1    0    0    0    0  0.00000000000E+00  0.00000000000E+00  0.45593999997E+02  0.45594000000E+02  0.51100000000E-03 0. -1.
         11   -1    0    0    0    0 -0.00000000000E+00 -0.00000000000E+00 -0.45593999997E+02  0.45594000000E+02  0.51100000000E-03 0.  1.
         23    2    1    2    0    0  0.00000000000E+00 -0.17763568394E-14  0.00000000000E+00  0.91188000000E+02  0.91188000000E+02 0.  0.
    9900012    2    3    3    0    0 -0.22770030099E+02 -0.10613135267E+02 -0.26919623246E+02  0.54367095250E+02  0.40000025241E+02 0.  0.
         12    1    3    3    0    0  0.22770030099E+02  0.10613135267E+02  0.26919623246E+02  0.36820904750E+02  0.00000000000E+00 0. -1.
         11    1    4    4    0    0 -0.65732162812E+01 -0.16091188386E+02  0.31248428439E+00  0.17384796882E+02  0.51100000000E-03 0. -1.
        -11    1    4    4    0    0 -0.15501022300E+02  0.11201568776E+02 -0.22448921708E+02  0.29490861661E+02  0.51100000000E-03 0.  1.
        -12    1    4    4    0    0 -0.69579151753E+00 -0.57235156569E+01 -0.47831858232E+01  0.74914367067E+01  0.00000000000E+00 0.  1.
</event>
<event>
 8    1  0.1244838E-006  0.9118800E+02  0.7816164E-02  0.1184000E+00
        -11   -1    0    0    0    0  0.00000000000E+00  0.00000000000E+00  0.45593999997E+02  0.45594000000E+02  0.51100000000E-03 0. -1.
         11   -1    0    0    0    0 -0.00000000000E+00 -0.00000000000E+00 -0.45593999997E+02  0.45594000000E+02  0.51100000000E-03 0.  1.
         23    2    1    2    0    0  0.00000000000E+00  0.00000000000E+00  0.00000000000E+00  0.91188000000E+02  0.91188000000E+02 0.  0.
    9900012    2    3    3    0    0  0.32840766157E+02 -0.15478082368E+02 -0.61394890813E+01  0.54367078207E+02  0.39999986387E+02 0.  0.
         12    1    3    3    0    0 -0.32840766157E+02  0.15478082368E+02  0.61394890813E+01  0.36820921793E+02  0.00000000000E+00 0. -1.
         11    1    4    4    0    0  0.28429995842E+02 -0.40429407444E+01  0.74338340286E+01  0.29662635117E+02  0.51100000000E-03 0. -1.
        -11    1    4    4    0    0  0.10437778762E+02 -0.89580867938E+01 -0.11306022253E+02  0.17805074668E+02  0.51100000000E-03 0.  1.
         12    1    4    4    0    0 -0.60270084468E+01 -0.24770548295E+01 -0.22673008572E+01  0.68993684221E+01  0.00000000000E+00 0. -1.
</event>
<event>
 8    1  0.1244838E-006  0.9118800E+02  0.7816164E-02  0.1184000E+00
        -11   -1    0    0    0    0  0.00000000000E+00  0.00000000000E+00  0.45593999997E+02  0.45594000000E+02  0.51100000000E-03 0.  1.
         11   -1    0    0    0    0 -0.00000000000E+00 -0.00000000000E+00 -0.45593999997E+02  0.45594000000E+02  0.51100000000E-03 0. -1.
         23    2    1    2    0    0  0.00000000000E+00  0.35527136788E-14 -0.35527136788E-14  0.91188000000E+02  0.91188000000E+02 0.  0.
    9900012    2    3    3    0    0  0.14688002325E+02  0.18620127194E+02  0.28166180079E+02  0.54367078647E+02  0.39999987392E+02 0.  0.
         12    1    3    3    0    0 -0.14688002325E+02 -0.18620127194E+02 -0.28166180079E+02  0.36820921353E+02  0.00000000000E+00 0. -1.
         11    1    4    4    0    0  0.17508862910E+01 -0.55624077469E+01 -0.97835869498E+00  0.59129661545E+01  0.51100000000E-03 0. -1.
        -11    1    4    4    0    0  0.17646234212E+02  0.41856920497E+01  0.12723862727E+02  0.22154148206E+02  0.51100000000E-03 0.  1.
         12    1    4    4    0    0 -0.47091181777E+01  0.19996842891E+02  0.16420676047E+02  0.26299964286E+02  0.00000000000E+00 0. -1.
</event>
<event>
 8    1  0.1244838E-006  0.9118800E+02  0.7816164E-02  0.1184000E+00
        -11   -1    0    0    0    0  0.00000000000E+00  0.00000000000E+00  0.45593999997E+02  0.45594000000E+02  0.51100000000E-03 0.  1.
         11   -1    0    0    0    0 -0.00000000000E+00 -0.00000000000E+00 -0.45593999997E+02  0.45594000000E+02  0.51100000000E-03 0. -1.
         23    2    1    2    0    0  0.00000000000E+00  0.00000000000E+00  0.00000000000E+00  0.91188000000E+02  0.91188000000E+02 0.  0.
    9900012    2    3    3    0    0 -0.28529053306E+02  0.32169099401E+01 -0.23054789668E+02  0.54367099431E+02  0.40000034773E+02 0.  0.
        -12    1    3    3    0    0  0.28529053306E+02 -0.32169099401E+01  0.23054789668E+02  0.36820900569E+02  0.00000000000E+00 0.  1.
         11    1    4    4    0    0 -0.29882789222E+01  0.13053669040E+02 -0.49146957911E-01  0.13391433905E+02  0.51100000000E-03 0. -1.
        -11    1    4    4    0    0 -0.15768814749E+02 -0.12857581101E+02 -0.61429866167E+01  0.21253451371E+02  0.51100000000E-03 0.  1.
         12    1    4    4    0    0 -0.97719596343E+01  0.30208220005E+01 -0.16862656093E+02  0.19722214155E+02  0.00000000000E+00 0. -1.
</event>
<event>
 8    1  0.1244838E-006  0.9118800E+02  0.7816164E-02  0.1184000E+00
        -11   -1    0    0    0    0  0.00000000000E+00  0.00000000000E+00  0.45593999997E+02  0.45594000000E+02  0.51100000000E-03 0.  1.
         11   -1    0    0    0    0 -0.00000000000E+00 -0.00000000000E+00 -0.45593999997E+02  0.45594000000E+02  0.51100000000E-03 0. -1.
         23    2    1    2    0    0  0.00000000000E+00 -0.17763568394E-14  0.00000000000E+00  0.91188000000E+02  0.91188000000E+02 0.  0.
    9900012    2    3    3    0    0 -0.82590980571E+01 -0.12972208448E+02 -0.33455794719E+02  0.54367067189E+02  0.39999961271E+02 0.  0.
        -12    1    3    3    0    0  0.82590980571E+01  0.12972208448E+02  0.33455794719E+02  0.36820932811E+02  0.00000000000E+00 0.  1.
         11    1    4    4    0    0 -0.32877777744E+01  0.23516381449E+01 -0.20687041184E+02  0.21078267431E+02  0.51100000000E-03 0. -1.
        -11    1    4    4    0    0 -0.64322019865E+01  0.52528126738E+01 -0.91299816008E+01  0.12341872940E+02  0.51100000000E-03 0.  1.
         12    1    4    4    0    0  0.14608817038E+01 -0.20576659267E+02 -0.36387719344E+01  0.20946926818E+02  0.00000000000E+00 0. -1.
</event>
<event>
 8    1  0.1244838E-006  0.9118800E+02  0.7816164E-02  0.1184000E+00
        -11   -1    0    0    0    0  0.00000000000E+00  0.00000000000E+00  0.45593999997E+02  0.45594000000E+02  0.51100000000E-03 0.  1.
         11   -1    0    0    0    0 -0.00000000000E+00 -0.00000000000E+00 -0.45593999997E+02  0.45594000000E+02  0.51100000000E-03 0. -1.
         23    2    1    2    0    0  0.71054273576E-14  0.35527136788E-14  0.35527136788E-14  0.91188000000E+02  0.91188000000E+02 0.  0.
    9900012    2    3    3    0    0  0.26926675752E+02  0.16811038128E+02  0.18658060921E+02  0.54367080575E+02  0.39999991786E+02 0.  0.
         12    1    3    3    0    0 -0.26926675752E+02 -0.16811038128E+02 -0.18658060921E+02  0.36820919425E+02  0.00000000000E+00 0. -1.
         11    1    4    4    0    0  0.22764597796E+02  0.27932452280E+02  0.13585169645E+02  0.38509812226E+02  0.51100000000E-03 0.  1.
        -11    1    4    4    0    0 -0.18531077334E+01  0.42975772861E+00  0.12794376248E+01  0.22925228186E+01  0.51100000000E-03 0. -1.
        -12    1    4    4    0    0  0.60151856896E+01 -0.11551171880E+02  0.37934536506E+01  0.13564745530E+02  0.00000000000E+00 0.  1.
</event>
<event>
 8    1  0.1244838E-006  0.9118800E+02  0.7816164E-02  0.1184000E+00
        -11   -1    0    0    0    0  0.00000000000E+00  0.00000000000E+00  0.45593999997E+02  0.45594000000E+02  0.51100000000E-03 0. -1.
         11   -1    0    0    0    0 -0.00000000000E+00 -0.00000000000E+00 -0.45593999997E+02  0.45594000000E+02  0.51100000000E-03 0.  1.
         23    2    1    2    0    0  0.35527136788E-14  0.00000000000E+00 -0.17763568394E-14  0.91188000000E+02  0.91188000000E+02 0.  0.
    9900012    2    3    3    0    0  0.28732832118E+02  0.17523389585E+02 -0.14937720134E+02  0.54367077865E+02  0.39999985608E+02 0.  0.
         12    1    3    3    0    0 -0.28732832118E+02 -0.17523389585E+02  0.14937720134E+02  0.36820922135E+02  0.00000000000E+00 0. -1.
         11    1    4    4    0    0 -0.64369729891E+01  0.43790316484E+01 -0.89259395116E+01  0.11844109754E+02  0.51100000000E-03 0. -1.
        -11    1    4    4    0    0  0.14210797632E+02  0.14411350730E+02 -0.72258787801E+01  0.21490628739E+02  0.51100000000E-03 0.  1.
         12    1    4    4    0    0  0.20959007476E+02 -0.12669927930E+01  0.12140981574E+01  0.21032339372E+02  0.00000000000E+00 0. -1.
</event>
<event>
 8    1  0.1244838E-006  0.9118800E+02  0.7816164E-02  0.1184000E+00
        -11   -1    0    0    0    0  0.00000000000E+00  0.00000000000E+00  0.45593999997E+02  0.45594000000E+02  0.51100000000E-03 0.  1.
         11   -1    0    0    0    0 -0.00000000000E+00 -0.00000000000E+00 -0.45593999997E+02  0.45594000000E+02  0.51100000000E-03 0. -1.
         23    2    1    2    0    0  0.17763568394E-14  0.00000000000E+00  0.00000000000E+00  0.91188000000E+02  0.91188000000E+02 0.  0.
    9900012    2    3    3    0    0 -0.45968100415E+01  0.27814172425E+02  0.23685915385E+02  0.54367062507E+02  0.39999950597E+02 0.  0.
         12    1    3    3    0    0  0.45968100415E+01 -0.27814172425E+02 -0.23685915385E+02  0.36820937493E+02  0.00000000000E+00 0. -1.
         11    1    4    4    0    0  0.32819474640E+01  0.35511301054E+02  0.17205484266E+02  0.39596115602E+02  0.51100000000E-03 0.  1.
        -11    1    4    4    0    0 -0.41949673292E+01  0.38052095395E+00  0.32620000410E+01  0.53275877860E+01  0.51100000000E-03 0. -1.
        -12    1    4    4    0    0 -0.36837901763E+01 -0.80776495825E+01  0.32184310775E+01  0.94433591185E+01  0.00000000000E+00 0.  1.
</event>
<event>
 8    1  0.1244838E-006  0.9118800E+02  0.7816164E-02  0.1184000E+00
        -11   -1    0    0    0    0  0.00000000000E+00  0.00000000000E+00  0.45593999997E+02  0.45594000000E+02  0.51100000000E-03 0.  1.
         11   -1    0    0    0    0 -0.00000000000E+00 -0.00000000000E+00 -0.45593999997E+02  0.45594000000E+02  0.51100000000E-03 0. -1.
         23    2    1    2    0    0  0.35527136788E-14  0.00000000000E+00  0.00000000000E+00  0.91188000000E+02  0.91188000000E+02 0.  0.
    9900012    2    3    3    0    0  0.27433633697E+02 -0.24148590015E+02  0.44745056803E+01  0.54367083952E+02  0.39999999485E+02 0.  0.
         12    1    3    3    0    0 -0.27433633697E+02  0.24148590015E+02 -0.44745056803E+01  0.36820916048E+02  0.00000000000E+00 0. -1.
         11    1    4    4    0    0  0.16608563083E+01 -0.20505357990E+02  0.92469926549E+01  0.22555155140E+02  0.51100000000E-03 0. -1.
        -11    1    4    4    0    0  0.14565680390E+02  0.12437883131E+01  0.57226655112E+01  0.15698883890E+02  0.51100000000E-03 0.  1.
         12    1    4    4    0    0  0.11207096999E+02 -0.48870203383E+01 -0.10495152486E+02  0.16113044921E+02  0.00000000000E+00 0. -1.
</event>
<event>
 8    1  0.1244838E-006  0.9118800E+02  0.7816164E-02  0.1184000E+00
        -11   -1    0    0    0    0  0.00000000000E+00  0.00000000000E+00  0.45593999997E+02  0.45594000000E+02  0.51100000000E-03 0.  1.
         11   -1    0    0    0    0 -0.00000000000E+00 -0.00000000000E+00 -0.45593999997E+02  0.45594000000E+02  0.51100000000E-03 0. -1.
         23    2    1    2    0    0  0.00000000000E+00  0.00000000000E+00  0.00000000000E+00  0.91188000000E+02  0.91188000000E+02 0.  0.
    9900012    2    3    3    0    0 -0.79301188913E+01  0.34167884068E+02  0.11200342905E+02  0.54367098755E+02  0.40000033232E+02 0.  0.
         12    1    3    3    0    0  0.79301188913E+01 -0.34167884068E+02 -0.11200342905E+02  0.36820901245E+02  0.00000000000E+00 0. -1.
         11    1    4    4    0    0 -0.13055805799E+02  0.22913538082E+02 -0.64609311301E+01  0.27151941437E+02  0.51100000000E-03 0. -1.
        -11    1    4    4    0    0  0.95276690789E+01  0.70840411401E+01  0.17502414504E+02  0.21149341141E+02  0.51100000000E-03 0.  1.
        -12    1    4    4    0    0 -0.44019821712E+01  0.41703048459E+01  0.15885953073E+00  0.60658161771E+01  0.00000000000E+00 0.  1.
</event>
<event>
 8    1  0.1244838E-006  0.9118800E+02  0.7816164E-02  0.1184000E+00
        -11   -1    0    0    0    0  0.00000000000E+00  0.00000000000E+00  0.45593999997E+02  0.45594000000E+02  0.51100000000E-03 0.  1.
         11   -1    0    0    0    0 -0.00000000000E+00 -0.00000000000E+00 -0.45593999997E+02  0.45594000000E+02  0.51100000000E-03 0. -1.
         23    2    1    2    0    0  0.44408920985E-15  0.00000000000E+00  0.00000000000E+00  0.91188000000E+02  0.91188000000E+02 0.  0.
    9900012    2    3    3    0    0 -0.28142102220E+01  0.25683789427E+02  0.26233672540E+02  0.54367049530E+02  0.39999921014E+02 0.  0.
         12    1    3    3    0    0  0.28142102220E+01 -0.25683789427E+02 -0.26233672540E+02  0.36820950470E+02  0.00000000000E+00 0. -1.
         11    1    4    4    0    0 -0.14838683345E+02 -0.14794904029E+01  0.65710530386E+01  0.16295832398E+02  0.51100000000E-03 0. -1.
        -11    1    4    4    0    0  0.10032502698E+02  0.15547498712E+02  0.18603085001E+02  0.26238342143E+02  0.51100000000E-03 0.  1.
        -12    1    4    4    0    0  0.19919704249E+01  0.11615781118E+02  0.10595345009E+01  0.11832874989E+02  0.00000000000E+00 0.  1.
</event>
<event>
 8    1  0.1244838E-006  0.9118800E+02  0.7816164E-02  0.1184000E+00
        -11   -1    0    0    0    0  0.00000000000E+00  0.00000000000E+00  0.45593999997E+02  0.45594000000E+02  0.51100000000E-03 0. -1.
         11   -1    0    0    0    0 -0.00000000000E+00 -0.00000000000E+00 -0.45593999997E+02  0.45594000000E+02  0.51100000000E-03 0.  1.
         23    2    1    2    0    0  0.00000000000E+00  0.00000000000E+00  0.00000000000E+00  0.91188000000E+02  0.91188000000E+02 0.  0.
    9900012    2    3    3    0    0 -0.16232750861E+02  0.71534283619E+01  0.32266159079E+02  0.54367098876E+02  0.40000033508E+02 0.  0.
        -12    1    3    3    0    0  0.16232750861E+02 -0.71534283619E+01 -0.32266159079E+02  0.36820901124E+02  0.00000000000E+00 0.  1.
         11    1    4    4    0    0 -0.29647578811E+01 -0.60058417456E+01  0.24986801732E+02  0.25868903831E+02  0.51100000000E-03 0. -1.
        -11    1    4    4    0    0  0.25728544050E+00  0.68024063047E+01 -0.55648777849E+01  0.87924281261E+01  0.51100000000E-03 0.  1.
         12    1    4    4    0    0 -0.13525278420E+02  0.63568638028E+01  0.12844235132E+02  0.19705766919E+02  0.00000000000E+00 0. -1.
</event>
<event>
 8    1  0.1244838E-006  0.9118800E+02  0.7816164E-02  0.1184000E+00
        -11   -1    0    0    0    0  0.00000000000E+00  0.00000000000E+00  0.45593999997E+02  0.45594000000E+02  0.51100000000E-03 0. -1.
         11   -1    0    0    0    0 -0.00000000000E+00 -0.00000000000E+00 -0.45593999997E+02  0.45594000000E+02  0.51100000000E-03 0.  1.
         23    2    1    2    0    0  0.00000000000E+00  0.35527136788E-14 -0.17763568394E-14  0.91188000000E+02  0.91188000000E+02 0.  0.
    9900012    2    3    3    0    0  0.12849746628E+02 -0.30996607187E+02  0.15161602257E+02  0.54367084361E+02  0.40000000417E+02 0.  0.
        -12    1    3    3    0    0 -0.12849746628E+02  0.30996607187E+02 -0.15161602257E+02  0.36820915639E+02  0.00000000000E+00 0.  1.
         11    1    4    4    0    0 -0.49636966798E+01 -0.46332218926E+01  0.81269958599E+01  0.10590235682E+02  0.51100000000E-03 0. -1.
        -11    1    4    4    0    0  0.15621039467E+02 -0.24585986204E+02  0.16790057978E+02  0.33621327142E+02  0.51100000000E-03 0.  1.
        -12    1    4    4    0    0  0.21924038408E+01 -0.17773990908E+01 -0.97554515807E+01  0.10155521536E+02  0.00000000000E+00 0.  1.
</event>
<event>
 8    1  0.1244838E-006  0.9118800E+02  0.7816164E-02  0.1184000E+00
        -11   -1    0    0    0    0  0.00000000000E+00  0.00000000000E+00  0.45593999997E+02  0.45594000000E+02  0.51100000000E-03 0.  1.
         11   -1    0    0    0    0 -0.00000000000E+00 -0.00000000000E+00 -0.45593999997E+02  0.45594000000E+02  0.51100000000E-03 0. -1.
         23    2    1    2    0    0  0.00000000000E+00  0.00000000000E+00  0.00000000000E+00  0.91188000000E+02  0.91188000000E+02 0.  0.
    9900012    2    3    3    0    0 -0.12552894055E+02 -0.33759637424E+02 -0.76480297028E+01  0.54367073525E+02  0.39999975715E+02 0.  0.
         12    1    3    3    0    0  0.12552894055E+02  0.33759637424E+02  0.76480297028E+01  0.36820926475E+02  0.00000000000E+00 0. -1.
         11    1    4    4    0    0 -0.97330417252E+01 -0.73644300567E+00 -0.12996666956E+02  0.16253854981E+02  0.51100000000E-03 0. -1.
        -11    1    4    4    0    0 -0.33323815975E+01 -0.20082870629E+02  0.11920401135E+02  0.23590727486E+02  0.51100000000E-03 0.  1.
         12    1    4    4    0    0  0.51252926791E+00 -0.12940323789E+02 -0.65717638815E+01  0.14522491058E+02  0.00000000000E+00 0. -1.
</event>
<event>
 8    1  0.1244838E-006  0.9118800E+02  0.7816164E-02  0.1184000E+00
        -11   -1    0    0    0    0  0.00000000000E+00  0.00000000000E+00  0.45593999997E+02  0.45594000000E+02  0.51100000000E-03 0.  1.
         11   -1    0    0    0    0 -0.00000000000E+00 -0.00000000000E+00 -0.45593999997E+02  0.45594000000E+02  0.51100000000E-03 0. -1.
         23    2    1    2    0    0  0.66613381478E-15  0.00000000000E+00  0.88817841970E-15  0.91188000000E+02  0.91188000000E+02 0.  0.
    9900012    2    3    3    0    0  0.15882382539E+01  0.36506171246E+02 -0.45340499040E+01  0.54367073229E+02  0.39999975039E+02 0.  0.
        -12    1    3    3    0    0 -0.15882382539E+01 -0.36506171246E+02  0.45340499040E+01  0.36820926771E+02  0.00000000000E+00 0.  1.
         11    1    4    4    0    0  0.33171274145E+01 -0.25686360052E+01  0.22637180150E+01  0.47671421967E+01  0.51100000000E-03 0.  1.
        -11    1    4    4    0    0 -0.60234425081E+01  0.33419671020E+01 -0.11397278348E+02  0.13317227856E+02  0.51100000000E-03 0. -1.
         12    1    4    4    0    0  0.42945533475E+01  0.35732840149E+02  0.45995104293E+01  0.36282703176E+02  0.00000000000E+00 0. -1.
</event>
<event>
 8    1  0.1244838E-006  0.9118800E+02  0.7816164E-02  0.1184000E+00
        -11   -1    0    0    0    0  0.00000000000E+00  0.00000000000E+00  0.45593999997E+02  0.45594000000E+02  0.51100000000E-03 0.  1.
         11   -1    0    0    0    0 -0.00000000000E+00 -0.00000000000E+00 -0.45593999997E+02  0.45594000000E+02  0.51100000000E-03 0. -1.
         23    2    1    2    0    0  0.00000000000E+00  0.13322676296E-14  0.17763568394E-14  0.91188000000E+02  0.91188000000E+02 0.  0.
    9900012    2    3    3    0    0  0.33946803895E+02  0.25741604439E+01  0.14027405147E+02  0.54367083501E+02  0.39999998456E+02 0.  0.
         12    1    3    3    0    0 -0.33946803895E+02 -0.25741604439E+01 -0.14027405147E+02  0.36820916499E+02  0.00000000000E+00 0. -1.
         11    1    4    4    0    0  0.11575373186E+02  0.59431083077E+01 -0.69001591126E+01  0.14728272023E+02  0.51100000000E-03 0. -1.
        -11    1    4    4    0    0  0.13299230921E+02  0.10485747721E+02  0.12555000377E+02  0.21081946853E+02  0.51100000000E-03 0.  1.
        -12    1    4    4    0    0  0.90721997877E+01 -0.13854695585E+02  0.83725638827E+01  0.18556864625E+02  0.00000000000E+00 0.  1.
</event>
<event>
 8    1  0.1244838E-006  0.9118800E+02  0.7816164E-02  0.1184000E+00
        -11   -1    0    0    0    0  0.00000000000E+00  0.00000000000E+00  0.45593999997E+02  0.45594000000E+02  0.51100000000E-03 0. -1.
         11   -1    0    0    0    0 -0.00000000000E+00 -0.00000000000E+00 -0.45593999997E+02  0.45594000000E+02  0.51100000000E-03 0.  1.
         23    2    1    2    0    0  0.00000000000E+00  0.22204460493E-15 -0.71054273576E-14  0.91188000000E+02  0.91188000000E+02 0.  0.
    9900012    2    3    3    0    0  0.17404991338E+02  0.14855984468E+01 -0.32413595689E+02  0.54367056073E+02  0.39999935929E+02 0.  0.
         12    1    3    3    0    0 -0.17404991338E+02 -0.14855984468E+01  0.32413595689E+02  0.36820943927E+02  0.00000000000E+00 0. -1.
         11    1    4    4    0    0  0.68963031410E+01  0.90833159557E+01 -0.28573690527E+01  0.11757133321E+02  0.51100000000E-03 0.  1.
        -11    1    4    4    0    0  0.52073712179E+01  0.31872019967E+01  0.37752173408E+01  0.71782475438E+01  0.51100000000E-03 0. -1.
        -12    1    4    4    0    0  0.53013169792E+01 -0.10784919506E+02 -0.33331443977E+02  0.35431675208E+02  0.00000000000E+00 0.  1.
</event>
<event>
 8    1  0.1244838E-006  0.9118800E+02  0.7816164E-02  0.1184000E+00
        -11   -1    0    0    0    0  0.00000000000E+00  0.00000000000E+00  0.45593999997E+02  0.45594000000E+02  0.51100000000E-03 0. -1.
         11   -1    0    0    0    0 -0.00000000000E+00 -0.00000000000E+00 -0.45593999997E+02  0.45594000000E+02  0.51100000000E-03 0.  1.
         23    2    1    2    0    0  0.00000000000E+00  0.71054273576E-14  0.88817841970E-15  0.91188000000E+02  0.91188000000E+02 0.  0.
    9900012    2    3    3    0    0 -0.92303494130E+01 -0.35317454270E+02  0.48225836419E+01  0.54367092361E+02  0.40000018654E+02 0.  0.
        -12    1    3    3    0    0  0.92303494130E+01  0.35317454270E+02 -0.48225836419E+01  0.36820907639E+02  0.00000000000E+00 0.  1.
         11    1    4    4    0    0 -0.18147427838E+02 -0.25847078428E+02  0.13392051613E+02  0.34303755583E+02  0.51100000000E-03 0. -1.
        -11    1    4    4    0    0  0.83761665051E+01 -0.30668945094E+01  0.51597097619E+00  0.89348885590E+01  0.51100000000E-03 0.  1.
         12    1    4    4    0    0  0.54091192025E+00 -0.64034813327E+01 -0.90854389476E+01  0.11128448219E+02  0.00000000000E+00 0. -1.
</event>
<event>
 8    1  0.1244838E-006  0.9118800E+02  0.7816164E-02  0.1184000E+00
        -11   -1    0    0    0    0  0.00000000000E+00  0.00000000000E+00  0.45593999997E+02  0.45594000000E+02  0.51100000000E-03 0.  1.
         11   -1    0    0    0    0 -0.00000000000E+00 -0.00000000000E+00 -0.45593999997E+02  0.45594000000E+02  0.51100000000E-03 0. -1.
         23    2    1    2    0    0  0.00000000000E+00  0.00000000000E+00 -0.17763568394E-14  0.91188000000E+02  0.91188000000E+02 0.  0.
    9900012    2    3    3    0    0  0.32586546047E+02  0.11367806868E+02  0.12832347094E+02  0.54367093599E+02  0.40000021478E+02 0.  0.
         12    1    3    3    0    0 -0.32586546047E+02 -0.11367806868E+02 -0.12832347094E+02  0.36820906401E+02  0.00000000000E+00 0. -1.
         11    1    4    4    0    0  0.64131186986E+01 -0.10327784357E+02 -0.11961493580E+01  0.12215645489E+02  0.51100000000E-03 0. -1.
        -11    1    4    4    0    0  0.74394063587E+01  0.11638949665E+02 -0.38843137942E+01  0.14349139702E+02  0.51100000000E-03 0.  1.
        -12    1    4    4    0    0  0.18734020990E+02  0.10056641559E+02  0.17912810246E+02  0.27802308408E+02  0.00000000000E+00 0.  1.
</event>
<event>
 8    1  0.1244838E-006  0.9118800E+02  0.7816164E-02  0.1184000E+00
        -11   -1    0    0    0    0  0.00000000000E+00  0.00000000000E+00  0.45593999997E+02  0.45594000000E+02  0.51100000000E-03 0.  1.
         11   -1    0    0    0    0 -0.00000000000E+00 -0.00000000000E+00 -0.45593999997E+02  0.45594000000E+02  0.51100000000E-03 0. -1.
         23    2    1    2    0    0  0.17763568394E-14  0.35527136788E-14 -0.35527136788E-14  0.91188000000E+02  0.91188000000E+02 0.  0.
    9900012    2    3    3    0    0  0.15170265613E+02  0.29870829470E+02 -0.15276682624E+02  0.54367076003E+02  0.39999981364E+02 0.  0.
        -12    1    3    3    0    0 -0.15170265613E+02 -0.29870829470E+02  0.15276682624E+02  0.36820923997E+02  0.00000000000E+00 0.  1.
         11    1    4    4    0    0  0.21307515026E+02  0.56177694804E+01 -0.32601394506E+01  0.22275503137E+02  0.51100000000E-03 0. -1.
        -11    1    4    4    0    0 -0.48442731280E+00  0.37200610654E+01  0.39700193258E+01  0.54621037943E+01  0.51100000000E-03 0.  1.
        -12    1    4    4    0    0 -0.56528220996E+01  0.20532998924E+02 -0.15986562499E+02  0.26629469072E+02  0.00000000000E+00 0.  1.
</event>
<event>
 8    1  0.1244838E-006  0.9118800E+02  0.7816164E-02  0.1184000E+00
        -11   -1    0    0    0    0  0.00000000000E+00  0.00000000000E+00  0.45593999997E+02  0.45594000000E+02  0.51100000000E-03 0. -1.
         11   -1    0    0    0    0 -0.00000000000E+00 -0.00000000000E+00 -0.45593999997E+02  0.45594000000E+02  0.51100000000E-03 0.  1.
         23    2    1    2    0    0 -0.71054273576E-14  0.00000000000E+00  0.44408920985E-15  0.91188000000E+02  0.91188000000E+02 0.  0.
    9900012    2    3    3    0    0  0.35109473187E+02 -0.10792861787E+02 -0.25728328595E+01  0.54367076031E+02  0.39999981427E+02 0.  0.
        -12    1    3    3    0    0 -0.35109473187E+02  0.10792861787E+02  0.25728328595E+01  0.36820923969E+02  0.00000000000E+00 0.  1.
         11    1    4    4    0    0  0.68175824146E+01 -0.15080657912E+02 -0.66097368374E+01  0.17821175449E+02  0.51100000000E-03 0. -1.
        -11    1    4    4    0    0 -0.38231819944E+01  0.50243755793E+00 -0.51285431047E+00  0.38900107798E+01  0.51100000000E-03 0.  1.
         12    1    4    4    0    0  0.32115072767E+02  0.37853585671E+01  0.45497582884E+01  0.32655889802E+02  0.00000000000E+00 0. -1.
</event>
<event>
 8    1  0.1244838E-006  0.9118800E+02  0.7816164E-02  0.1184000E+00
        -11   -1    0    0    0    0  0.00000000000E+00  0.00000000000E+00  0.45593999997E+02  0.45594000000E+02  0.51100000000E-03 0. -1.
         11   -1    0    0    0    0 -0.00000000000E+00 -0.00000000000E+00 -0.45593999997E+02  0.45594000000E+02  0.51100000000E-03 0.  1.
         23    2    1    2    0    0 -0.35527136788E-14  0.35527136788E-14  0.00000000000E+00  0.91188000000E+02  0.91188000000E+02 0.  0.
    9900012    2    3    3    0    0  0.23945100079E+02 -0.17387545856E+02 -0.21910840798E+02  0.54367088643E+02  0.40000010179E+02 0.  0.
         12    1    3    3    0    0 -0.23945100079E+02  0.17387545856E+02  0.21910840798E+02  0.36820911357E+02  0.00000000000E+00 0. -1.
         11    1    4    4    0    0 -0.72504193719E+00 -0.18133120546E+01  0.72355861774E+01  0.74944975822E+01  0.51100000000E-03 0. -1.
        -11    1    4    4    0    0  0.17258255048E+02 -0.48048885893E+00 -0.23446751804E+02  0.29117493149E+02  0.51100000000E-03 0.  1.
        -12    1    4    4    0    0  0.74118869681E+01 -0.15093744942E+02 -0.56996751717E+01  0.17755097912E+02  0.00000000000E+00 0.  1.
</event>
<event>
 8    1  0.1244838E-006  0.9118800E+02  0.7816164E-02  0.1184000E+00
        -11   -1    0    0    0    0  0.00000000000E+00  0.00000000000E+00  0.45593999997E+02  0.45594000000E+02  0.51100000000E-03 0. -1.
         11   -1    0    0    0    0 -0.00000000000E+00 -0.00000000000E+00 -0.45593999997E+02  0.45594000000E+02  0.51100000000E-03 0.  1.
         23    2    1    2    0    0  0.00000000000E+00  0.00000000000E+00  0.00000000000E+00  0.91188000000E+02  0.91188000000E+02 0.  0.
    9900012    2    3    3    0    0 -0.17279579259E+02 -0.27487982457E+02 -0.17366823977E+02  0.54367087274E+02  0.40000007059E+02 0.  0.
         12    1    3    3    0    0  0.17279579259E+02  0.27487982457E+02  0.17366823977E+02  0.36820912726E+02  0.00000000000E+00 0. -1.
         11    1    4    4    0    0  0.56657498283E-01 -0.61970983780E+01 -0.94971608664E+01  0.11340339640E+02  0.51100000000E-03 0. -1.
        -11    1    4    4    0    0 -0.11538945652E+02 -0.76347958511E+00  0.99321056050E+01  0.15243913206E+02  0.51100000000E-03 0.  1.
        -12    1    4    4    0    0 -0.57972911049E+01 -0.20527404494E+02 -0.17801768716E+02  0.27782834427E+02  0.00000000000E+00 0.  1.
</event>
<event>
 8    1  0.1244838E-006  0.9118800E+02  0.7816164E-02  0.1184000E+00
        -11   -1    0    0    0    0  0.00000000000E+00  0.00000000000E+00  0.45593999997E+02  0.45594000000E+02  0.51100000000E-03 0.  1.
         11   -1    0    0    0    0 -0.00000000000E+00 -0.00000000000E+00 -0.45593999997E+02  0.45594000000E+02  0.51100000000E-03 0. -1.
         23    2    1    2    0    0  0.00000000000E+00  0.00000000000E+00  0.00000000000E+00  0.91188000000E+02  0.91188000000E+02 0.  0.
    9900012    2    3    3    0    0 -0.19552242954E+02 -0.22384993299E+02 -0.21734814475E+02  0.54367078097E+02  0.39999986137E+02 0.  0.
        -12    1    3    3    0    0  0.19552242954E+02  0.22384993299E+02  0.21734814475E+02  0.36820921903E+02  0.00000000000E+00 0.  1.
         11    1    4    4    0    0  0.28034734236E+01 -0.83275621146E+01 -0.83380055715E+01  0.12113219687E+02  0.51100000000E-03 0. -1.
        -11    1    4    4    0    0  0.21695359328E+01 -0.13251374809E+02  0.15572388609E+01  0.13517796182E+02  0.51100000000E-03 0.  1.
         12    1    4    4    0    0 -0.24525252311E+02 -0.80605637504E+00 -0.14954047765E+02  0.28736062227E+02  0.00000000000E+00 0. -1.
</event>
<event>
 8    1  0.1244838E-006  0.9118800E+02  0.7816164E-02  0.1184000E+00
        -11   -1    0    0    0    0  0.00000000000E+00  0.00000000000E+00  0.45593999997E+02  0.45594000000E+02  0.51100000000E-03 0. -1.
         11   -1    0    0    0    0 -0.00000000000E+00 -0.00000000000E+00 -0.45593999997E+02  0.45594000000E+02  0.51100000000E-03 0.  1.
         23    2    1    2    0    0  0.35527136788E-14  0.00000000000E+00 -0.35527136788E-14  0.91188000000E+02  0.91188000000E+02 0.  0.
    9900012    2    3    3    0    0  0.27390327000E+02 -0.17279198708E+02 -0.17520836080E+02  0.54367076355E+02  0.39999982166E+02 0.  0.
         12    1    3    3    0    0 -0.27390327000E+02  0.17279198708E+02  0.17520836080E+02  0.36820923645E+02  0.00000000000E+00 0. -1.
         11    1    4    4    0    0 -0.25495846029E+01 -0.28111214426E+01 -0.86814088696E+01  0.94746844609E+01  0.51100000000E-03 0. -1.
        -11    1    4    4    0    0  0.20909799554E+02 -0.66546359626E+01 -0.19143499224E+02  0.29120052541E+02  0.51100000000E-03 0.  1.
         12    1    4    4    0    0  0.90301120485E+01 -0.78134413029E+01  0.10304072014E+02  0.15772339353E+02  0.00000000000E+00 0. -1.
</event>
<event>
 8    1  0.1244838E-006  0.9118800E+02  0.7816164E-02  0.1184000E+00
        -11   -1    0    0    0    0  0.00000000000E+00  0.00000000000E+00  0.45593999997E+02  0.45594000000E+02  0.51100000000E-03 0.  1.
         11   -1    0    0    0    0 -0.00000000000E+00 -0.00000000000E+00 -0.45593999997E+02  0.45594000000E+02  0.51100000000E-03 0. -1.
         23    2    1    2    0    0 -0.17763568394E-14  0.00000000000E+00 -0.35527136788E-14  0.91188000000E+02  0.91188000000E+02 0.  0.
    9900012    2    3    3    0    0 -0.15447782812E+02 -0.11005913387E+02 -0.31559724321E+02  0.54367077652E+02  0.39999985124E+02 0.  0.
        -12    1    3    3    0    0  0.15447782812E+02  0.11005913387E+02  0.31559724321E+02  0.36820922348E+02  0.00000000000E+00 0.  1.
         11    1    4    4    0    0  0.45091790551E+00 -0.54040072398E+01  0.64797796216E+00  0.54613640152E+01  0.51100000000E-03 0. -1.
        -11    1    4    4    0    0  0.69992057271E+01 -0.11173499774E+02 -0.12813402444E+02  0.18385300119E+02  0.51100000000E-03 0.  1.
        -12    1    4    4    0    0 -0.22897906445E+02  0.55715936263E+01 -0.19394299840E+02  0.30520413519E+02  0.00000000000E+00 0.  1.
</event>
<event>
 8    1  0.1244838E-006  0.9118800E+02  0.7816164E-02  0.1184000E+00
        -11   -1    0    0    0    0  0.00000000000E+00  0.00000000000E+00  0.45593999997E+02  0.45594000000E+02  0.51100000000E-03 0.  1.
         11   -1    0    0    0    0 -0.00000000000E+00 -0.00000000000E+00 -0.45593999997E+02  0.45594000000E+02  0.51100000000E-03 0. -1.
         23    2    1    2    0    0 -0.35527136788E-14 -0.17763568394E-14  0.00000000000E+00  0.91188000000E+02  0.91188000000E+02 0.  0.
    9900012    2    3    3    0    0 -0.19685207432E+02 -0.15274077800E+02  0.27110418471E+02  0.54367087003E+02  0.40000006440E+02 0.  0.
         12    1    3    3    0    0  0.19685207432E+02  0.15274077800E+02 -0.27110418471E+02  0.36820912997E+02  0.00000000000E+00 0. -1.
         11    1    4    4    0    0 -0.21615708029E+02 -0.94509417027E+00  0.70214770122E+01  0.22747157543E+02  0.51100000000E-03 0. -1.
        -11    1    4    4    0    0 -0.18056672406E+01 -0.28765816679E+01  0.19246726428E+02  0.19544094625E+02  0.51100000000E-03 0.  1.
        -12    1    4    4    0    0  0.37361678375E+01 -0.11452401961E+02  0.84221503174E+00  0.12075834835E+02  0.00000000000E+00 0.  1.
</event>
<event>
 8    1  0.1244838E-006  0.9118800E+02  0.7816164E-02  0.1184000E+00
        -11   -1    0    0    0    0  0.00000000000E+00  0.00000000000E+00  0.45593999997E+02  0.45594000000E+02  0.51100000000E-03 0.  1.
         11   -1    0    0    0    0 -0.00000000000E+00 -0.00000000000E+00 -0.45593999997E+02  0.45594000000E+02  0.51100000000E-03 0. -1.
         23    2    1    2    0    0  0.00000000000E+00 -0.17763568394E-14 -0.17763568394E-14  0.91188000000E+02  0.91188000000E+02 0.  0.
    9900012    2    3    3    0    0 -0.32320555342E+02 -0.13623398784E+02  0.11205223119E+02  0.54367186359E+02  0.40000232942E+02 0.  0.
         12    1    3    3    0    0  0.32320555342E+02  0.13623398784E+02 -0.11205223119E+02  0.36820813641E+02  0.00000000000E+00 0. -1.
         11    1    4    4    0    0 -0.16673998822E+02 -0.69918732643E+01 -0.29340914871E+01  0.18317134644E+02  0.51100000000E-03 0. -1.
        -11    1    4    4    0    0 -0.20109826968E+01 -0.68091201929E+01 -0.75919309336E+01  0.10394497812E+02  0.51100000000E-03 0.  1.
         12    1    4    4    0    0 -0.13635573824E+02  0.17759467363E+00  0.21731245540E+02  0.25655553903E+02  0.00000000000E+00 0. -1.
</event>
<event>
 8    1  0.1244838E-006  0.9118800E+02  0.7816164E-02  0.1184000E+00
        -11   -1    0    0    0    0  0.00000000000E+00  0.00000000000E+00  0.45593999997E+02  0.45594000000E+02  0.51100000000E-03 0. -1.
         11   -1    0    0    0    0 -0.00000000000E+00 -0.00000000000E+00 -0.45593999997E+02  0.45594000000E+02  0.51100000000E-03 0.  1.
         23    2    1    2    0    0  0.00000000000E+00  0.00000000000E+00  0.00000000000E+00  0.91188000000E+02  0.91188000000E+02 0.  0.
    9900012    2    3    3    0    0 -0.84868533183E+01 -0.34255391474E+02  0.10503429182E+02  0.54367074579E+02  0.39999978118E+02 0.  0.
        -12    1    3    3    0    0  0.84868533183E+01  0.34255391474E+02 -0.10503429182E+02  0.36820925421E+02  0.00000000000E+00 0.  1.
         11    1    4    4    0    0  0.24718090986E+01 -0.73286086353E+01  0.16078115540E+02  0.17841640741E+02  0.51100000000E-03 0. -1.
        -11    1    4    4    0    0 -0.57005229462E+00 -0.38082834299E+01 -0.10073027405E+02  0.10783963264E+02  0.51100000000E-03 0.  1.
        -12    1    4    4    0    0 -0.10388610122E+02 -0.23118499409E+02  0.44983410467E+01  0.25741470575E+02  0.00000000000E+00 0.  1.
</event>
<event>
 8    1  0.1244838E-006  0.9118800E+02  0.7816164E-02  0.1184000E+00
        -11   -1    0    0    0    0  0.00000000000E+00  0.00000000000E+00  0.45593999997E+02  0.45594000000E+02  0.51100000000E-03 0. -1.
         11   -1    0    0    0    0 -0.00000000000E+00 -0.00000000000E+00 -0.45593999997E+02  0.45594000000E+02  0.51100000000E-03 0.  1.
         23    2    1    2    0    0  0.71054273576E-14  0.00000000000E+00  0.00000000000E+00  0.91188000000E+02  0.91188000000E+02 0.  0.
    9900012    2    3    3    0    0  0.24147682162E+02 -0.24056090552E+02 -0.13927573905E+02  0.54367036388E+02  0.39999891053E+02 0.  0.
         12    1    3    3    0    0 -0.24147682162E+02  0.24056090552E+02  0.13927573905E+02  0.36820963612E+02  0.00000000000E+00 0. -1.
         11    1    4    4    0    0  0.10102846201E+02 -0.98631435758E+01 -0.27869294778E+01  0.14391528020E+02  0.51100000000E-03 0. -1.
        -11    1    4    4    0    0  0.19790581251E+02 -0.20920832151E+02 -0.11758574267E+02  0.31106468671E+02  0.51100000000E-03 0.  1.
         12    1    4    4    0    0 -0.57457452902E+01  0.67278851742E+01  0.61792983973E+00  0.88690396968E+01  0.00000000000E+00 0. -1.
</event>
<event>
 8    1  0.1244838E-006  0.9118800E+02  0.7816164E-02  0.1184000E+00
        -11   -1    0    0    0    0  0.00000000000E+00  0.00000000000E+00  0.45593999997E+02  0.45594000000E+02  0.51100000000E-03 0. -1.
         11   -1    0    0    0    0 -0.00000000000E+00 -0.00000000000E+00 -0.45593999997E+02  0.45594000000E+02  0.51100000000E-03 0.  1.
         23    2    1    2    0    0 -0.71054273576E-14  0.00000000000E+00 -0.88817841970E-15  0.91188000000E+02  0.91188000000E+02 0.  0.
    9900012    2    3    3    0    0  0.33491632298E+02 -0.14845056820E+02  0.37032970238E+01  0.54367088078E+02  0.40000008890E+02 0.  0.
        -12    1    3    3    0    0 -0.33491632298E+02  0.14845056820E+02 -0.37032970238E+01  0.36820911922E+02  0.00000000000E+00 0.  1.
         11    1    4    4    0    0 -0.18204185695E+01 -0.26386329408E+01 -0.36763921544E+01  0.48777215069E+01  0.51100000000E-03 0. -1.
        -11    1    4    4    0    0  0.36471201378E+02 -0.71186592924E+00  0.14580152580E+01  0.36507274506E+02  0.51100000000E-03 0.  1.
        -12    1    4    4    0    0 -0.11591505109E+01 -0.11494557950E+02  0.59216739201E+01  0.12982092065E+02  0.00000000000E+00 0.  1.
</event>
<event>
 8    1  0.1244838E-006  0.9118800E+02  0.7816164E-02  0.1184000E+00
        -11   -1    0    0    0    0  0.00000000000E+00  0.00000000000E+00  0.45593999997E+02  0.45594000000E+02  0.51100000000E-03 0. -1.
         11   -1    0    0    0    0 -0.00000000000E+00 -0.00000000000E+00 -0.45593999997E+02  0.45594000000E+02  0.51100000000E-03 0.  1.
         23    2    1    2    0    0  0.00000000000E+00 -0.35527136788E-14  0.35527136788E-14  0.91188000000E+02  0.91188000000E+02 0.  0.
    9900012    2    3    3    0    0  0.18420191545E+02  0.24681606600E+02  0.20181523582E+02  0.54367094865E+02  0.40000024363E+02 0.  0.
        -12    1    3    3    0    0 -0.18420191545E+02 -0.24681606600E+02 -0.20181523582E+02  0.36820905135E+02  0.00000000000E+00 0.  1.
         11    1    4    4    0    0  0.20537083939E+02  0.22963275737E+02  0.17634041679E+02  0.35497088267E+02  0.51100000000E-03 0. -1.
        -11    1    4    4    0    0  0.45074308870E+01  0.75165677364E+01  0.45006101697E+01  0.98524725779E+01  0.51100000000E-03 0.  1.
        -12    1    4    4    0    0 -0.66243232809E+01 -0.57982368735E+01 -0.19531282667E+01  0.90175340197E+01  0.00000000000E+00 0.  1.
</event>
<event>
 8    1  0.1244838E-006  0.9118800E+02  0.7816164E-02  0.1184000E+00
        -11   -1    0    0    0    0  0.00000000000E+00  0.00000000000E+00  0.45593999997E+02  0.45594000000E+02  0.51100000000E-03 0.  1.
         11   -1    0    0    0    0 -0.00000000000E+00 -0.00000000000E+00 -0.45593999997E+02  0.45594000000E+02  0.51100000000E-03 0. -1.
         23    2    1    2    0    0  0.00000000000E+00  0.00000000000E+00  0.00000000000E+00  0.91188000000E+02  0.91188000000E+02 0.  0.
    9900012    2    3    3    0    0 -0.29462281716E+02 -0.73828463866E+01  0.20814621288E+02  0.54367069484E+02  0.39999966503E+02 0.  0.
         12    1    3    3    0    0  0.29462281716E+02  0.73828463866E+01 -0.20814621288E+02  0.36820930516E+02  0.00000000000E+00 0. -1.
         11    1    4    4    0    0  0.31156450294E+01 -0.84517543059E+01  0.16236975876E+02  0.18568219642E+02  0.51100000000E-03 0. -1.
        -11    1    4    4    0    0 -0.27465428065E+00  0.29530061806E+01 -0.60900521452E+00  0.30276340745E+01  0.51100000000E-03 0.  1.
        -12    1    4    4    0    0 -0.32303272465E+02 -0.18840982613E+01  0.51866506264E+01  0.32771215768E+02  0.00000000000E+00 0.  1.
</event>
<event>
 8    1  0.1244838E-006  0.9118800E+02  0.7816164E-02  0.1184000E+00
        -11   -1    0    0    0    0  0.00000000000E+00  0.00000000000E+00  0.45593999997E+02  0.45594000000E+02  0.51100000000E-03 0. -1.
         11   -1    0    0    0    0 -0.00000000000E+00 -0.00000000000E+00 -0.45593999997E+02  0.45594000000E+02  0.51100000000E-03 0.  1.
         23    2    1    2    0    0  0.00000000000E+00  0.00000000000E+00  0.00000000000E+00  0.91188000000E+02  0.91188000000E+02 0.  0.
    9900012    2    3    3    0    0 -0.31766358407E+02  0.59084925279E+01  0.17657020278E+02  0.54367052490E+02  0.39999927762E+02 0.  0.
         12    1    3    3    0    0  0.31766358407E+02 -0.59084925279E+01 -0.17657020278E+02  0.36820947510E+02  0.00000000000E+00 0. -1.
         11    1    4    4    0    0 -0.27889304908E+02  0.41166098867E+01  0.11782853641E+02  0.30554794148E+02  0.51100000000E-03 0.  1.
        -11    1    4    4    0    0  0.11541281007E+01 -0.96277809435E+01  0.58668640140E+01  0.11333413925E+02  0.51100000000E-03 0. -1.
         12    1    4    4    0    0 -0.50311815995E+01  0.11419663585E+02  0.73026228798E-02  0.12478844418E+02  0.00000000000E+00 0. -1.
</event>
<event>
 8    1  0.1244838E-006  0.9118800E+02  0.7816164E-02  0.1184000E+00
        -11   -1    0    0    0    0  0.00000000000E+00  0.00000000000E+00  0.45593999997E+02  0.45594000000E+02  0.51100000000E-03 0. -1.
         11   -1    0    0    0    0 -0.00000000000E+00 -0.00000000000E+00 -0.45593999997E+02  0.45594000000E+02  0.51100000000E-03 0.  1.
         23    2    1    2    0    0  0.00000000000E+00  0.00000000000E+00  0.00000000000E+00  0.91188000000E+02  0.91188000000E+02 0.  0.
    9900012    2    3    3    0    0 -0.28015195825E+02  0.23018386082E+02  0.64089586653E+01  0.54367190040E+02  0.40000241334E+02 0.  0.
         12    1    3    3    0    0  0.28015195825E+02 -0.23018386082E+02 -0.64089586653E+01  0.36820809960E+02  0.00000000000E+00 0. -1.
         11    1    4    4    0    0 -0.38347705754E+01  0.11113081634E+02  0.78446166419E+01  0.14133083857E+02  0.51100000000E-03 0. -1.
        -11    1    4    4    0    0 -0.79967921138E+01  0.19044781442E+02  0.52699720688E+01  0.21317246308E+02  0.51100000000E-03 0.  1.
        -12    1    4    4    0    0 -0.16183633136E+02 -0.71394769950E+01 -0.67056300454E+01  0.18916859875E+02  0.00000000000E+00 0.  1.
</event>
<event>
 8    1  0.1244838E-006  0.9118800E+02  0.7816164E-02  0.1184000E+00
        -11   -1    0    0    0    0  0.00000000000E+00  0.00000000000E+00  0.45593999997E+02  0.45594000000E+02  0.51100000000E-03 0. -1.
         11   -1    0    0    0    0 -0.00000000000E+00 -0.00000000000E+00 -0.45593999997E+02  0.45594000000E+02  0.51100000000E-03 0.  1.
         23    2    1    2    0    0 -0.35527136788E-14  0.00000000000E+00  0.00000000000E+00  0.91188000000E+02  0.91188000000E+02 0.  0.
    9900012    2    3    3    0    0 -0.26729619579E+02  0.25251634408E+02  0.19141707547E+01  0.54367059589E+02  0.39999943944E+02 0.  0.
         12    1    3    3    0    0  0.26729619579E+02 -0.25251634408E+02 -0.19141707547E+01  0.36820940411E+02  0.00000000000E+00 0. -1.
         11    1    4    4    0    0 -0.44208381794E+01  0.48762988334E+01 -0.80524761142E+01  0.10400215015E+02  0.51100000000E-03 0. -1.
        -11    1    4    4    0    0 -0.25901708608E+02  0.25629260909E+02  0.89466693376E+01  0.37520666519E+02  0.51100000000E-03 0.  1.
         12    1    4    4    0    0  0.35929272089E+01 -0.52539253343E+01  0.10199775313E+01  0.64461780546E+01  0.00000000000E+00 0. -1.
</event>
<event>
 8    1  0.1244838E-006  0.9118800E+02  0.7816164E-02  0.1184000E+00
        -11   -1    0    0    0    0  0.00000000000E+00  0.00000000000E+00  0.45593999997E+02  0.45594000000E+02  0.51100000000E-03 0.  1.
         11   -1    0    0    0    0 -0.00000000000E+00 -0.00000000000E+00 -0.45593999997E+02  0.45594000000E+02  0.51100000000E-03 0. -1.
         23    2    1    2    0    0  0.35527136788E-14  0.00000000000E+00  0.17763568394E-14  0.91188000000E+02  0.91188000000E+02 0.  0.
    9900012    2    3    3    0    0 -0.28122693420E+02  0.17672688802E+02 -0.15892449143E+02  0.54367085367E+02  0.40000002711E+02 0.  0.
        -12    1    3    3    0    0  0.28122693420E+02 -0.17672688802E+02  0.15892449143E+02  0.36820914633E+02  0.00000000000E+00 0.  1.
         11    1    4    4    0    0 -0.19912062893E+02  0.12133222579E+02 -0.76820542696E+01  0.24550342093E+02  0.51100000000E-03 0. -1.
        -11    1    4    4    0    0 -0.15231856693E+02 -0.45085825599E+00 -0.12433216322E+02  0.19667170612E+02  0.51100000000E-03 0.  1.
         12    1    4    4    0    0  0.70212261665E+01  0.59903244784E+01  0.42228214493E+01  0.10149572662E+02  0.00000000000E+00 0. -1.
</event>
<event>
 8    1  0.1244838E-006  0.9118800E+02  0.7816164E-02  0.1184000E+00
        -11   -1    0    0    0    0  0.00000000000E+00  0.00000000000E+00  0.45593999997E+02  0.45594000000E+02  0.51100000000E-03 0.  1.
         11   -1    0    0    0    0 -0.00000000000E+00 -0.00000000000E+00 -0.45593999997E+02  0.45594000000E+02  0.51100000000E-03 0. -1.
         23    2    1    2    0    0  0.00000000000E+00  0.11102230246E-14  0.00000000000E+00  0.91188000000E+02  0.91188000000E+02 0.  0.
    9900012    2    3    3    0    0 -0.36074101473E+02 -0.58494160863E+00 -0.73550539112E+01  0.54367085131E+02  0.40000002173E+02 0.  0.
        -12    1    3    3    0    0  0.36074101473E+02  0.58494160863E+00  0.73550539112E+01  0.36820914869E+02  0.00000000000E+00 0.  1.
         11    1    4    4    0    0 -0.31806736096E+02  0.74783230454E+01 -0.13441374661E+02  0.35330784447E+02  0.51100000000E-03 0. -1.
        -11    1    4    4    0    0 -0.55006735282E+00 -0.12320731064E+02  0.34951101546E+01  0.12818688829E+02  0.51100000000E-03 0.  1.
        -12    1    4    4    0    0 -0.37172980245E+01  0.42574664096E+01  0.25912105948E+01  0.62176118549E+01  0.00000000000E+00 0.  1.
</event>
<event>
 8    1  0.1244838E-006  0.9118800E+02  0.7816164E-02  0.1184000E+00
        -11   -1    0    0    0    0  0.00000000000E+00  0.00000000000E+00  0.45593999997E+02  0.45594000000E+02  0.51100000000E-03 0. -1.
         11   -1    0    0    0    0 -0.00000000000E+00 -0.00000000000E+00 -0.45593999997E+02  0.45594000000E+02  0.51100000000E-03 0.  1.
         23    2    1    2    0    0 -0.35527136788E-14  0.00000000000E+00  0.00000000000E+00  0.91188000000E+02  0.91188000000E+02 0.  0.
    9900012    2    3    3    0    0 -0.28674328168E+02  0.10928794252E+02  0.20350047700E+02  0.54367080931E+02  0.39999992599E+02 0.  0.
        -12    1    3    3    0    0  0.28674328168E+02 -0.10928794252E+02 -0.20350047700E+02  0.36820919069E+02  0.00000000000E+00 0.  1.
         11    1    4    4    0    0 -0.17601364713E+01  0.19583994073E+01  0.11677252270E+02  0.11970448173E+02  0.51100000000E-03 0. -1.
        -11    1    4    4    0    0  0.26554091526E+00  0.11470168512E+02 -0.42013929021E+01  0.12218305130E+02  0.51100000000E-03 0.  1.
        -12    1    4    4    0    0 -0.27179732612E+02 -0.24997736674E+01  0.12874188332E+02  0.30178327628E+02  0.00000000000E+00 0.  1.
</event>
<event>
 8    1  0.1244838E-006  0.9118800E+02  0.7816164E-02  0.1184000E+00
        -11   -1    0    0    0    0  0.00000000000E+00  0.00000000000E+00  0.45593999997E+02  0.45594000000E+02  0.51100000000E-03 0.  1.
         11   -1    0    0    0    0 -0.00000000000E+00 -0.00000000000E+00 -0.45593999997E+02  0.45594000000E+02  0.51100000000E-03 0. -1.
         23    2    1    2    0    0 -0.35527136788E-14 -0.88817841970E-15  0.35527136788E-14  0.91188000000E+02  0.91188000000E+02 0.  0.
    9900012    2    3    3    0    0  0.24530024382E+02 -0.79351736871E+01 -0.26288590487E+02  0.54367094696E+02  0.40000023979E+02 0.  0.
        -12    1    3    3    0    0 -0.24530024382E+02  0.79351736871E+01  0.26288590487E+02  0.36820905304E+02  0.00000000000E+00 0.  1.
         11    1    4    4    0    0  0.15169153488E+02 -0.18082407809E+02 -0.11398023046E+02  0.26210524972E+02  0.51100000000E-03 0. -1.
        -11    1    4    4    0    0  0.12445976290E+02  0.19082812633E+01 -0.23045292858E+01  0.12800574935E+02  0.51100000000E-03 0.  1.
        -12    1    4    4    0    0 -0.30851053960E+01  0.82389528583E+01 -0.12586038156E+02  0.15355994789E+02  0.00000000000E+00 0.  1.
</event>
<event>
 8    1  0.1244838E-006  0.9118800E+02  0.7816164E-02  0.1184000E+00
        -11   -1    0    0    0    0  0.00000000000E+00  0.00000000000E+00  0.45593999997E+02  0.45594000000E+02  0.51100000000E-03 0.  1.
         11   -1    0    0    0    0 -0.00000000000E+00 -0.00000000000E+00 -0.45593999997E+02  0.45594000000E+02  0.51100000000E-03 0. -1.
         23    2    1    2    0    0  0.00000000000E+00  0.00000000000E+00  0.00000000000E+00  0.91188000000E+02  0.91188000000E+02 0.  0.
    9900012    2    3    3    0    0  0.33112238135E+02  0.70539147001E+01  0.14477659972E+02  0.54367072999E+02  0.39999974516E+02 0.  0.
         12    1    3    3    0    0 -0.33112238135E+02 -0.70539147001E+01 -0.14477659972E+02  0.36820927001E+02  0.00000000000E+00 0. -1.
         11    1    4    4    0    0  0.10941191673E+02  0.30202769354E+00  0.78945587634E+01  0.13495367882E+02  0.51100000000E-03 0. -1.
        -11    1    4    4    0    0 -0.74109695471E+01 -0.37542491547E+01  0.44068199293E+01  0.94040905193E+01  0.51100000000E-03 0.  1.
         12    1    4    4    0    0  0.29582016010E+02  0.10506136161E+02  0.21762812797E+01  0.31467614598E+02  0.00000000000E+00 0. -1.
</event>
<event>
 8    1  0.1244838E-006  0.9118800E+02  0.7816164E-02  0.1184000E+00
        -11   -1    0    0    0    0  0.00000000000E+00  0.00000000000E+00  0.45593999997E+02  0.45594000000E+02  0.51100000000E-03 0. -1.
         11   -1    0    0    0    0 -0.00000000000E+00 -0.00000000000E+00 -0.45593999997E+02  0.45594000000E+02  0.51100000000E-03 0.  1.
         23    2    1    2    0    0  0.17763568394E-14  0.00000000000E+00  0.00000000000E+00  0.91188000000E+02  0.91188000000E+02 0.  0.
    9900012    2    3    3    0    0 -0.11036151788E+02  0.13798639440E+02 -0.32304519876E+02  0.54367067080E+02  0.39999961023E+02 0.  0.
         12    1    3    3    0    0  0.11036151788E+02 -0.13798639440E+02  0.32304519876E+02  0.36820932920E+02  0.00000000000E+00 0. -1.
         11    1    4    4    0    0  0.38843063786E+01 -0.64123625914E+01 -0.80074114016E+00  0.75397225865E+01  0.51100000000E-03 0. -1.
        -11    1    4    4    0    0 -0.16777843443E+02  0.23200361178E+02 -0.32357355114E+02  0.43205916488E+02  0.51100000000E-03 0.  1.
        -12    1    4    4    0    0  0.18573852759E+01 -0.29893591460E+01  0.85357637815E+00  0.36214280057E+01  0.00000000000E+00 0.  1.
</event>
<event>
 8    1  0.1244838E-006  0.9118800E+02  0.7816164E-02  0.1184000E+00
        -11   -1    0    0    0    0  0.00000000000E+00  0.00000000000E+00  0.45593999997E+02  0.45594000000E+02  0.51100000000E-03 0. -1.
         11   -1    0    0    0    0 -0.00000000000E+00 -0.00000000000E+00 -0.45593999997E+02  0.45594000000E+02  0.51100000000E-03 0.  1.
         23    2    1    2    0    0  0.35527136788E-14  0.00000000000E+00  0.17763568394E-14  0.91188000000E+02  0.91188000000E+02 0.  0.
    9900012    2    3    3    0    0 -0.27499389929E+02  0.22581745034E+02 -0.94671315346E+01  0.54367106003E+02  0.40000049754E+02 0.  0.
         12    1    3    3    0    0  0.27499389929E+02 -0.22581745034E+02  0.94671315346E+01  0.36820893997E+02  0.00000000000E+00 0. -1.
         11    1    4    4    0    0 -0.33135487810E+01 -0.23113497639E+01 -0.16860782085E+02  0.17338048218E+02  0.51100000000E-03 0. -1.
        -11    1    4    4    0    0 -0.13556576824E+02  0.11293791097E+02 -0.13199810726E+01  0.17693864554E+02  0.51100000000E-03 0.  1.
         12    1    4    4    0    0 -0.10629264324E+02  0.13599303700E+02  0.87136316228E+01  0.19335193231E+02  0.00000000000E+00 0. -1.
</event>
<event>
 8    1  0.1244838E-006  0.9118800E+02  0.7816164E-02  0.1184000E+00
        -11   -1    0    0    0    0  0.00000000000E+00  0.00000000000E+00  0.45593999997E+02  0.45594000000E+02  0.51100000000E-03 0.  1.
         11   -1    0    0    0    0 -0.00000000000E+00 -0.00000000000E+00 -0.45593999997E+02  0.45594000000E+02  0.51100000000E-03 0. -1.
         23    2    1    2    0    0 -0.17763568394E-14  0.00000000000E+00 -0.26645352591E-14  0.91188000000E+02  0.91188000000E+02 0.  0.
    9900012    2    3    3    0    0  0.13000748225E+02 -0.33540754406E+02  0.78599159157E+01  0.54367082864E+02  0.39999997004E+02 0.  0.
         12    1    3    3    0    0 -0.13000748225E+02  0.33540754406E+02 -0.78599159157E+01  0.36820917136E+02  0.00000000000E+00 0. -1.
         11    1    4    4    0    0 -0.23978308855E+01 -0.85669541598E+00  0.98020882971E+01  0.10127411083E+02  0.51100000000E-03 0. -1.
        -11    1    4    4    0    0  0.18489880613E+02 -0.25850632081E+02 -0.99153156963E+01  0.33293307882E+02  0.51100000000E-03 0.  1.
        -12    1    4    4    0    0 -0.30913015024E+01 -0.68334269090E+01  0.79731433149E+01  0.10946363899E+02  0.00000000000E+00 0.  1.
</event>
<event>
 8    1  0.1244838E-006  0.9118800E+02  0.7816164E-02  0.1184000E+00
        -11   -1    0    0    0    0  0.00000000000E+00  0.00000000000E+00  0.45593999997E+02  0.45594000000E+02  0.51100000000E-03 0.  1.
         11   -1    0    0    0    0 -0.00000000000E+00 -0.00000000000E+00 -0.45593999997E+02  0.45594000000E+02  0.51100000000E-03 0. -1.
         23    2    1    2    0    0  0.17763568394E-14  0.12490009027E-14  0.00000000000E+00  0.91188000000E+02  0.91188000000E+02 0.  0.
    9900012    2    3    3    0    0 -0.15450221991E+02 -0.17057202987E+00 -0.33422152391E+02  0.54367099348E+02  0.40000034584E+02 0.  0.
        -12    1    3    3    0    0  0.15450221991E+02  0.17057202987E+00  0.33422152391E+02  0.36820900652E+02  0.00000000000E+00 0.  1.
         11    1    4    4    0    0 -0.18681266817E+02 -0.32634497692E+01 -0.21953097503E+02  0.29009969399E+02  0.51100000000E-03 0.  1.
        -11    1    4    4    0    0  0.62284968147E+01  0.43901801890E+01 -0.17171034298E+02  0.18785959485E+02  0.51100000000E-03 0. -1.
        -12    1    4    4    0    0 -0.29974519886E+01 -0.12973024497E+01  0.57019794106E+01  0.65711704641E+01  0.00000000000E+00 0.  1.
</event>
<event>
 8    1  0.1244838E-006  0.9118800E+02  0.7816164E-02  0.1184000E+00
        -11   -1    0    0    0    0  0.00000000000E+00  0.00000000000E+00  0.45593999997E+02  0.45594000000E+02  0.51100000000E-03 0.  1.
         11   -1    0    0    0    0 -0.00000000000E+00 -0.00000000000E+00 -0.45593999997E+02  0.45594000000E+02  0.51100000000E-03 0. -1.
         23    2    1    2    0    0 -0.35527136788E-14  0.00000000000E+00  0.00000000000E+00  0.91188000000E+02  0.91188000000E+02 0.  0.
    9900012    2    3    3    0    0  0.99895571442E+01  0.23621010684E+02  0.26420376652E+02  0.54367086104E+02  0.40000004392E+02 0.  0.
         12    1    3    3    0    0 -0.99895571442E+01 -0.23621010684E+02 -0.26420376652E+02  0.36820913896E+02  0.00000000000E+00 0. -1.
         11    1    4    4    0    0  0.19138226976E+02  0.12225099532E+02  0.23601545587E+01  0.22831888230E+02  0.51100000000E-03 0. -1.
        -11    1    4    4    0    0 -0.85448427322E+01  0.14265266193E+02  0.16497396193E+02  0.23423839102E+02  0.51100000000E-03 0.  1.
        -12    1    4    4    0    0 -0.60382709946E+00 -0.28693550414E+01  0.75628259004E+01  0.81113587715E+01  0.00000000000E+00 0.  1.
</event>
<event>
 8    1  0.1244838E-006  0.9118800E+02  0.7816164E-02  0.1184000E+00
        -11   -1    0    0    0    0  0.00000000000E+00  0.00000000000E+00  0.45593999997E+02  0.45594000000E+02  0.51100000000E-03 0.  1.
         11   -1    0    0    0    0 -0.00000000000E+00 -0.00000000000E+00 -0.45593999997E+02  0.45594000000E+02  0.51100000000E-03 0. -1.
         23    2    1    2    0    0  0.71054273576E-14  0.00000000000E+00  0.00000000000E+00  0.91188000000E+02  0.91188000000E+02 0.  0.
    9900012    2    3    3    0    0  0.32335360710E+02 -0.15044512135E+02 -0.91580187123E+01  0.54367052099E+02  0.39999926870E+02 0.  0.
        -12    1    3    3    0    0 -0.32335360710E+02  0.15044512135E+02  0.91580187123E+01  0.36820947901E+02  0.00000000000E+00 0.  1.
         11    1    4    4    0    0  0.25556195690E+02 -0.82512726162E+01  0.14682415983E+01  0.26895322485E+02  0.51100000000E-03 0. -1.
        -11    1    4    4    0    0 -0.33455598176E+01  0.25282068860E+01  0.50812289158E+01  0.65881323687E+01  0.51100000000E-03 0.  1.
         12    1    4    4    0    0  0.10124724837E+02 -0.93214464043E+01 -0.15707489226E+02  0.20883597245E+02  0.00000000000E+00 0. -1.
</event>
<event>
 8    1  0.1244838E-006  0.9118800E+02  0.7816164E-02  0.1184000E+00
        -11   -1    0    0    0    0  0.00000000000E+00  0.00000000000E+00  0.45593999997E+02  0.45594000000E+02  0.51100000000E-03 0. -1.
         11   -1    0    0    0    0 -0.00000000000E+00 -0.00000000000E+00 -0.45593999997E+02  0.45594000000E+02  0.51100000000E-03 0.  1.
         23    2    1    2    0    0  0.00000000000E+00 -0.35527136788E-14  0.35527136788E-14  0.91188000000E+02  0.91188000000E+02 0.  0.
    9900012    2    3    3    0    0 -0.30181280898E+02  0.16855353068E+02 -0.12679375607E+02  0.54367092767E+02  0.40000019580E+02 0.  0.
         12    1    3    3    0    0  0.30181280898E+02 -0.16855353068E+02  0.12679375607E+02  0.36820907233E+02  0.00000000000E+00 0. -1.
         11    1    4    4    0    0 -0.84046226789E+01  0.19694570101E+01  0.12395449264E+02  0.15105085436E+02  0.51100000000E-03 0. -1.
        -11    1    4    4    0    0 -0.60457552193E+01  0.34428940853E+01  0.67542339125E+00  0.69900552839E+01  0.51100000000E-03 0.  1.
        -12    1    4    4    0    0 -0.15730903000E+02  0.11443001973E+02 -0.25750248263E+02  0.32271952047E+02  0.00000000000E+00 0.  1.
</event>
<event>
 8    1  0.1244838E-006  0.9118800E+02  0.7816164E-02  0.1184000E+00
        -11   -1    0    0    0    0  0.00000000000E+00  0.00000000000E+00  0.45593999997E+02  0.45594000000E+02  0.51100000000E-03 0.  1.
         11   -1    0    0    0    0 -0.00000000000E+00 -0.00000000000E+00 -0.45593999997E+02  0.45594000000E+02  0.51100000000E-03 0. -1.
         23    2    1    2    0    0  0.00000000000E+00  0.00000000000E+00  0.35527136788E-14  0.91188000000E+02  0.91188000000E+02 0.  0.
    9900012    2    3    3    0    0 -0.12190621114E+02  0.19372803156E+02  0.28842027454E+02  0.54367091633E+02  0.40000016997E+02 0.  0.
         12    1    3    3    0    0  0.12190621114E+02 -0.19372803156E+02 -0.28842027454E+02  0.36820908367E+02  0.00000000000E+00 0. -1.
         11    1    4    4    0    0  0.50496681887E+01  0.91279329451E+01  0.10381169549E+02  0.14716894718E+02  0.51100000000E-03 0. -1.
        -11    1    4    4    0    0 -0.13169468251E+02  0.15002434971E+02  0.24051049930E+02  0.31256374583E+02  0.51100000000E-03 0.  1.
         12    1    4    4    0    0 -0.40708210521E+01 -0.47575647602E+01 -0.55901920246E+01  0.83938223330E+01  0.00000000000E+00 0. -1.
</event>
<event>
 8    1  0.1244838E-006  0.9118800E+02  0.7816164E-02  0.1184000E+00
        -11   -1    0    0    0    0  0.00000000000E+00  0.00000000000E+00  0.45593999997E+02  0.45594000000E+02  0.51100000000E-03 0.  1.
         11   -1    0    0    0    0 -0.00000000000E+00 -0.00000000000E+00 -0.45593999997E+02  0.45594000000E+02  0.51100000000E-03 0. -1.
         23    2    1    2    0    0 -0.17763568394E-14  0.71054273576E-14 -0.71054273576E-14  0.91188000000E+02  0.91188000000E+02 0.  0.
    9900012    2    3    3    0    0  0.80165229996E+01 -0.32257005951E+02  0.15842998755E+02  0.54367086330E+02  0.40000004907E+02 0.  0.
         12    1    3    3    0    0 -0.80165229996E+01  0.32257005951E+02 -0.15842998755E+02  0.36820913670E+02  0.00000000000E+00 0. -1.
         11    1    4    4    0    0  0.20747828290E+00  0.44148100957E+01 -0.62387124019E+01  0.76455953406E+01  0.51100000000E-03 0. -1.
        -11    1    4    4    0    0 -0.15061107396E+01 -0.19066898721E+02  0.18255016655E+02  0.26439754721E+02  0.51100000000E-03 0.  1.
         12    1    4    4    0    0  0.93151554563E+01 -0.17604917326E+02  0.38266945015E+01  0.20281736268E+02  0.00000000000E+00 0. -1.
</event>
<event>
 8    1  0.1244838E-006  0.9118800E+02  0.7816164E-02  0.1184000E+00
        -11   -1    0    0    0    0  0.00000000000E+00  0.00000000000E+00  0.45593999997E+02  0.45594000000E+02  0.51100000000E-03 0.  1.
         11   -1    0    0    0    0 -0.00000000000E+00 -0.00000000000E+00 -0.45593999997E+02  0.45594000000E+02  0.51100000000E-03 0. -1.
         23    2    1    2    0    0  0.00000000000E+00  0.00000000000E+00  0.00000000000E+00  0.91188000000E+02  0.91188000000E+02 0.  0.
    9900012    2    3    3    0    0  0.28877992237E+02  0.22215542373E+02  0.53210944172E+01  0.54367043951E+02  0.39999908295E+02 0.  0.
         12    1    3    3    0    0 -0.28877992237E+02 -0.22215542373E+02 -0.53210944172E+01  0.36820956049E+02  0.00000000000E+00 0. -1.
         11    1    4    4    0    0  0.10401901195E+02  0.19963274797E+02  0.85695741198E+01  0.24086707744E+02  0.51100000000E-03 0. -1.
        -11    1    4    4    0    0  0.24218545324E+02  0.17004222794E+01 -0.18768305297E+01  0.24350603004E+02  0.51100000000E-03 0.  1.
         12    1    4    4    0    0 -0.57424542815E+01  0.55184529608E+00 -0.13716491730E+01  0.59297332031E+01  0.00000000000E+00 0. -1.
</event>
<event>
 8    1  0.1244838E-006  0.9118800E+02  0.7816164E-02  0.1184000E+00
        -11   -1    0    0    0    0  0.00000000000E+00  0.00000000000E+00  0.45593999997E+02  0.45594000000E+02  0.51100000000E-03 0.  1.
         11   -1    0    0    0    0 -0.00000000000E+00 -0.00000000000E+00 -0.45593999997E+02  0.45594000000E+02  0.51100000000E-03 0. -1.
         23    2    1    2    0    0  0.00000000000E+00  0.00000000000E+00  0.00000000000E+00  0.91188000000E+02  0.91188000000E+02 0.  0.
    9900012    2    3    3    0    0  0.25960738559E+02 -0.18942116920E+02  0.17972651935E+02  0.54367082609E+02  0.39999996423E+02 0.  0.
         12    1    3    3    0    0 -0.25960738559E+02  0.18942116920E+02 -0.17972651935E+02  0.36820917391E+02  0.00000000000E+00 0. -1.
         11    1    4    4    0    0 -0.38568686721E+01 -0.88983916084E+01  0.14177091731E+02  0.17176924619E+02  0.51100000000E-03 0. -1.
        -11    1    4    4    0    0  0.46981203810E+00  0.41574290867E+01 -0.81525330474E+00  0.42625788174E+01  0.51100000000E-03 0.  1.
        -12    1    4    4    0    0  0.29347795193E+02 -0.14201154398E+02  0.46108135095E+01  0.32927579172E+02  0.00000000000E+00 0.  1.
</event>
<event>
 8    1  0.1244838E-006  0.9118800E+02  0.7816164E-02  0.1184000E+00
        -11   -1    0    0    0    0  0.00000000000E+00  0.00000000000E+00  0.45593999997E+02  0.45594000000E+02  0.51100000000E-03 0. -1.
         11   -1    0    0    0    0 -0.00000000000E+00 -0.00000000000E+00 -0.45593999997E+02  0.45594000000E+02  0.51100000000E-03 0.  1.
         23    2    1    2    0    0  0.00000000000E+00  0.00000000000E+00  0.35527136788E-14  0.91188000000E+02  0.91188000000E+02 0.  0.
    9900012    2    3    3    0    0  0.19906898982E+02  0.20656962772E+02  0.23082240537E+02  0.54367020025E+02  0.39999853752E+02 0.  0.
        -12    1    3    3    0    0 -0.19906898982E+02 -0.20656962772E+02 -0.23082240537E+02  0.36820979975E+02  0.00000000000E+00 0.  1.
         11    1    4    4    0    0  0.10229251270E+02  0.12565004447E+02  0.19439279321E+02  0.25306175117E+02  0.51100000000E-03 0. -1.
        -11    1    4    4    0    0  0.13874523148E+02  0.14241331996E+02  0.67448103566E+01  0.20995485148E+02  0.51100000000E-03 0.  1.
        -12    1    4    4    0    0 -0.41968754359E+01 -0.61493736709E+01 -0.31018491398E+01  0.80653597598E+01  0.00000000000E+00 0.  1.
</event>
<event>
 8    1  0.1244838E-006  0.9118800E+02  0.7816164E-02  0.1184000E+00
        -11   -1    0    0    0    0  0.00000000000E+00  0.00000000000E+00  0.45593999997E+02  0.45594000000E+02  0.51100000000E-03 0. -1.
         11   -1    0    0    0    0 -0.00000000000E+00 -0.00000000000E+00 -0.45593999997E+02  0.45594000000E+02  0.51100000000E-03 0.  1.
         23    2    1    2    0    0  0.00000000000E+00  0.00000000000E+00  0.00000000000E+00  0.91188000000E+02  0.91188000000E+02 0.  0.
    9900012    2    3    3    0    0 -0.34773529479E+02  0.44716723192E+01 -0.11251036243E+02  0.54367081729E+02  0.39999994418E+02 0.  0.
        -12    1    3    3    0    0  0.34773529479E+02 -0.44716723192E+01  0.11251036243E+02  0.36820918271E+02  0.00000000000E+00 0.  1.
         11    1    4    4    0    0  0.59347948739E+01  0.27131362841E+01  0.67737776158E+01  0.94056877548E+01  0.51100000000E-03 0. -1.
        -11    1    4    4    0    0 -0.10886374232E+02  0.17500868850E+01 -0.75068412937E+01  0.13338988511E+02  0.51100000000E-03 0.  1.
         12    1    4    4    0    0 -0.29821950121E+02  0.84491501124E-02 -0.10517972565E+02  0.31622405463E+02  0.00000000000E+00 0. -1.
</event>
<event>
 8    1  0.1244838E-006  0.9118800E+02  0.7816164E-02  0.1184000E+00
        -11   -1    0    0    0    0  0.00000000000E+00  0.00000000000E+00  0.45593999997E+02  0.45594000000E+02  0.51100000000E-03 0.  1.
         11   -1    0    0    0    0 -0.00000000000E+00 -0.00000000000E+00 -0.45593999997E+02  0.45594000000E+02  0.51100000000E-03 0. -1.
         23    2    1    2    0    0  0.00000000000E+00  0.00000000000E+00  0.00000000000E+00  0.91188000000E+02  0.91188000000E+02 0.  0.
    9900012    2    3    3    0    0 -0.15420938666E+02  0.34237050487E+01  0.33260338227E+02  0.54367119992E+02  0.40000081645E+02 0.  0.
         12    1    3    3    0    0  0.15420938666E+02 -0.34237050487E+01 -0.33260338227E+02  0.36820880008E+02  0.00000000000E+00 0. -1.
         11    1    4    4    0    0 -0.12398326435E+02  0.13536689309E+02  0.22205918973E+02  0.28810819036E+02  0.51100000000E-03 0. -1.
        -11    1    4    4    0    0 -0.67984361403E+01  0.18109760043E+01  0.10989463721E+02  0.13048627559E+02  0.51100000000E-03 0.  1.
         12    1    4    4    0    0  0.37758239092E+01 -0.11923960264E+02  0.64955532944E-01  0.12507673397E+02  0.00000000000E+00 0. -1.
</event>
<event>
 8    1  0.1244838E-006  0.9118800E+02  0.7816164E-02  0.1184000E+00
        -11   -1    0    0    0    0  0.00000000000E+00  0.00000000000E+00  0.45593999997E+02  0.45594000000E+02  0.51100000000E-03 0.  1.
         11   -1    0    0    0    0 -0.00000000000E+00 -0.00000000000E+00 -0.45593999997E+02  0.45594000000E+02  0.51100000000E-03 0. -1.
         23    2    1    2    0    0  0.00000000000E+00 -0.53290705182E-14 -0.35527136788E-14  0.91188000000E+02  0.91188000000E+02 0.  0.
    9900012    2    3    3    0    0 -0.18520493126E+02  0.15089090545E+02  0.28019447973E+02  0.54367098547E+02  0.40000032756E+02 0.  0.
         12    1    3    3    0    0  0.18520493126E+02 -0.15089090545E+02 -0.28019447973E+02  0.36820901453E+02  0.00000000000E+00 0. -1.
         11    1    4    4    0    0 -0.92244600441E+01 -0.21989493232E+00  0.21236756409E+02  0.23154672097E+02  0.51100000000E-03 0.  1.
        -11    1    4    4    0    0  0.42570902443E+01 -0.44719733071E+01 -0.38274255741E+00  0.61861017397E+01  0.51100000000E-03 0. -1.
         12    1    4    4    0    0 -0.13553123326E+02  0.19780958785E+02  0.71654341223E+01  0.25026324710E+02  0.00000000000E+00 0. -1.
</event>
<event>
 8    1  0.1244838E-006  0.9118800E+02  0.7816164E-02  0.1184000E+00
        -11   -1    0    0    0    0  0.00000000000E+00  0.00000000000E+00  0.45593999997E+02  0.45594000000E+02  0.51100000000E-03 0. -1.
         11   -1    0    0    0    0 -0.00000000000E+00 -0.00000000000E+00 -0.45593999997E+02  0.45594000000E+02  0.51100000000E-03 0.  1.
         23    2    1    2    0    0 -0.17763568394E-14  0.00000000000E+00  0.00000000000E+00  0.91188000000E+02  0.91188000000E+02 0.  0.
    9900012    2    3    3    0    0  0.83099750165E+01  0.31764542497E+02  0.16665450137E+02  0.54367094619E+02  0.40000023804E+02 0.  0.
        -12    1    3    3    0    0 -0.83099750165E+01 -0.31764542497E+02 -0.16665450137E+02  0.36820905381E+02  0.00000000000E+00 0.  1.
         11    1    4    4    0    0  0.60780630586E+01  0.21703809920E+02  0.70542934601E+01  0.23616970002E+02  0.51100000000E-03 0. -1.
        -11    1    4    4    0    0 -0.11269024969E+02  0.46797493437E+01  0.10626894414E+02  0.16180910445E+02  0.51100000000E-03 0.  1.
         12    1    4    4    0    0  0.13500936927E+02  0.53809832330E+01 -0.10157377375E+01  0.14569214173E+02  0.00000000000E+00 0. -1.
</event>
<event>
 8    1  0.1244838E-006  0.9118800E+02  0.7816164E-02  0.1184000E+00
        -11   -1    0    0    0    0  0.00000000000E+00  0.00000000000E+00  0.45593999997E+02  0.45594000000E+02  0.51100000000E-03 0. -1.
         11   -1    0    0    0    0 -0.00000000000E+00 -0.00000000000E+00 -0.45593999997E+02  0.45594000000E+02  0.51100000000E-03 0.  1.
         23    2    1    2    0    0  0.00000000000E+00  0.00000000000E+00 -0.35527136788E-14  0.91188000000E+02  0.91188000000E+02 0.  0.
    9900012    2    3    3    0    0 -0.14675840223E+02  0.27766329766E+02 -0.19220583302E+02  0.54367079624E+02  0.39999989618E+02 0.  0.
         12    1    3    3    0    0  0.14675840223E+02 -0.27766329766E+02  0.19220583302E+02  0.36820920376E+02  0.00000000000E+00 0. -1.
         11    1    4    4    0    0 -0.29621804416E+01 -0.28270277406E+01  0.84302856372E+00  0.41805856330E+01  0.51100000000E-03 0. -1.
        -11    1    4    4    0    0 -0.42435296310E+01  0.13724348242E+02  0.81199571513E+01  0.16501484260E+02  0.51100000000E-03 0.  1.
         12    1    4    4    0    0 -0.74701301500E+01  0.16869009264E+02 -0.28183569017E+02  0.33685009730E+02  0.00000000000E+00 0. -1.
</event>
<event>
 8    1  0.1244838E-006  0.9118800E+02  0.7816164E-02  0.1184000E+00
        -11   -1    0    0    0    0  0.00000000000E+00  0.00000000000E+00  0.45593999997E+02  0.45594000000E+02  0.51100000000E-03 0.  1.
         11   -1    0    0    0    0 -0.00000000000E+00 -0.00000000000E+00 -0.45593999997E+02  0.45594000000E+02  0.51100000000E-03 0. -1.
         23    2    1    2    0    0  0.35527136788E-14  0.00000000000E+00 -0.35527136788E-14  0.91188000000E+02  0.91188000000E+02 0.  0.
    9900012    2    3    3    0    0 -0.25034516372E+02 -0.11596058446E+02  0.24384098390E+02  0.54367084262E+02  0.40000000193E+02 0.  0.
         12    1    3    3    0    0  0.25034516372E+02  0.11596058446E+02 -0.24384098390E+02  0.36820915738E+02  0.00000000000E+00 0. -1.
         11    1    4    4    0    0  0.95185765003E+00 -0.10436109423E+02 -0.20646220446E+01  0.10680874371E+02  0.51100000000E-03 0. -1.
        -11    1    4    4    0    0 -0.59934906479E+01 -0.10947041133E+02  0.86417665249E+01  0.15180242707E+02  0.51100000000E-03 0.  1.
        -12    1    4    4    0    0 -0.19992883374E+02  0.97870921102E+01  0.17806953910E+02  0.28505967184E+02  0.00000000000E+00 0.  1.
</event>
<event>
 8    1  0.1244838E-006  0.9118800E+02  0.7816164E-02  0.1184000E+00
        -11   -1    0    0    0    0  0.00000000000E+00  0.00000000000E+00  0.45593999997E+02  0.45594000000E+02  0.51100000000E-03 0.  1.
         11   -1    0    0    0    0 -0.00000000000E+00 -0.00000000000E+00 -0.45593999997E+02  0.45594000000E+02  0.51100000000E-03 0. -1.
         23    2    1    2    0    0  0.35527136788E-14 -0.88817841970E-15  0.00000000000E+00  0.91188000000E+02  0.91188000000E+02 0.  0.
    9900012    2    3    3    0    0  0.29196924014E+02 -0.63882291954E+01  0.21506107198E+02  0.54367048207E+02  0.39999917997E+02 0.  0.
         12    1    3    3    0    0 -0.29196924014E+02  0.63882291954E+01 -0.21506107198E+02  0.36820951793E+02  0.00000000000E+00 0. -1.
         11    1    4    4    0    0  0.16357729866E+02 -0.13507190002E+02 -0.18910128316E+01  0.21297780117E+02  0.51100000000E-03 0. -1.
        -11    1    4    4    0    0  0.16683522052E+02  0.50017510075E+01  0.22721045403E+02  0.28628715054E+02  0.51100000000E-03 0.  1.
         12    1    4    4    0    0 -0.38443279035E+01  0.21172097991E+01  0.67607462648E+00  0.44405530358E+01  0.00000000000E+00 0. -1.
</event>
<event>
 8    1  0.1244838E-006  0.9118800E+02  0.7816164E-02  0.1184000E+00
        -11   -1    0    0    0    0  0.00000000000E+00  0.00000000000E+00  0.45593999997E+02  0.45594000000E+02  0.51100000000E-03 0.  1.
         11   -1    0    0    0    0 -0.00000000000E+00 -0.00000000000E+00 -0.45593999997E+02  0.45594000000E+02  0.51100000000E-03 0. -1.
         23    2    1    2    0    0  0.00000000000E+00  0.00000000000E+00 -0.35527136788E-14  0.91188000000E+02  0.91188000000E+02 0.  0.
    9900012    2    3    3    0    0  0.19091225364E+02  0.29829928343E+02 -0.10073574942E+02  0.54367130605E+02  0.40000105841E+02 0.  0.
         12    1    3    3    0    0 -0.19091225364E+02 -0.29829928343E+02  0.10073574942E+02  0.36820869395E+02  0.00000000000E+00 0. -1.
         11    1    4    4    0    0 -0.44406947557E+01 -0.43765017995E+01 -0.70336656852E+01  0.93992548187E+01  0.51100000000E-03 0. -1.
        -11    1    4    4    0    0 -0.23856095318E+00  0.58436820393E+00  0.32529296324E+01  0.33136006066E+01  0.51100000000E-03 0.  1.
        -12    1    4    4    0    0  0.23770481073E+02  0.33622061939E+02 -0.62928388889E+01  0.41654275180E+02  0.00000000000E+00 0.  1.
</event>
<event>
 8    1  0.1244838E-006  0.9118800E+02  0.7816164E-02  0.1184000E+00
        -11   -1    0    0    0    0  0.00000000000E+00  0.00000000000E+00  0.45593999997E+02  0.45594000000E+02  0.51100000000E-03 0.  1.
         11   -1    0    0    0    0 -0.00000000000E+00 -0.00000000000E+00 -0.45593999997E+02  0.45594000000E+02  0.51100000000E-03 0. -1.
         23    2    1    2    0    0  0.38857805862E-15  0.00000000000E+00  0.35527136788E-14  0.91188000000E+02  0.91188000000E+02 0.  0.
    9900012    2    3    3    0    0  0.27355921335E+00  0.27713492880E+02  0.24241845689E+02  0.54367087401E+02  0.40000007347E+02 0.  0.
         12    1    3    3    0    0 -0.27355921335E+00 -0.27713492880E+02 -0.24241845689E+02  0.36820912599E+02  0.00000000000E+00 0. -1.
         11    1    4    4    0    0  0.10565092612E+02  0.35516240918E+00 -0.37239538530E+00  0.10577617918E+02  0.51100000000E-03 0. -1.
        -11    1    4    4    0    0 -0.10047104749E+02  0.23215836861E+02  0.78016702682E+01  0.26472352638E+02  0.51100000000E-03 0.  1.
         12    1    4    4    0    0 -0.24442865018E+00  0.41424936100E+01  0.16812570806E+02  0.17317116844E+02  0.00000000000E+00 0. -1.
</event>
<event>
 8    1  0.1244838E-006  0.9118800E+02  0.7816164E-02  0.1184000E+00
        -11   -1    0    0    0    0  0.00000000000E+00  0.00000000000E+00  0.45593999997E+02  0.45594000000E+02  0.51100000000E-03 0. -1.
         11   -1    0    0    0    0 -0.00000000000E+00 -0.00000000000E+00 -0.45593999997E+02  0.45594000000E+02  0.51100000000E-03 0.  1.
         23    2    1    2    0    0  0.35527136788E-14  0.17763568394E-14  0.00000000000E+00  0.91188000000E+02  0.91188000000E+02 0.  0.
    9900012    2    3    3    0    0 -0.27123148588E+02 -0.14113982344E+02 -0.20516103109E+02  0.54367079673E+02  0.39999989731E+02 0.  0.
         12    1    3    3    0    0  0.27123148588E+02  0.14113982344E+02  0.20516103109E+02  0.36820920327E+02  0.00000000000E+00 0. -1.
         11    1    4    4    0    0 -0.16306642956E+01 -0.15974587383E+02 -0.35963038667E+01  0.16455391514E+02  0.51100000000E-03 0.  1.
        -11    1    4    4    0    0 -0.17084739661E+02  0.73710527335E+01 -0.44527887098E+00  0.18612335190E+02  0.51100000000E-03 0. -1.
         12    1    4    4    0    0 -0.84077446314E+01 -0.55104476939E+01 -0.16474520371E+02  0.19299352969E+02  0.00000000000E+00 0. -1.
</event>
<event>
 8    1  0.1244838E-006  0.9118800E+02  0.7816164E-02  0.1184000E+00
        -11   -1    0    0    0    0  0.00000000000E+00  0.00000000000E+00  0.45593999997E+02  0.45594000000E+02  0.51100000000E-03 0.  1.
         11   -1    0    0    0    0 -0.00000000000E+00 -0.00000000000E+00 -0.45593999997E+02  0.45594000000E+02  0.51100000000E-03 0. -1.
         23    2    1    2    0    0  0.00000000000E+00  0.00000000000E+00  0.00000000000E+00  0.91188000000E+02  0.91188000000E+02 0.  0.
    9900012    2    3    3    0    0  0.23806521799E+02 -0.27041102793E+02  0.76032060392E+01  0.54367075752E+02  0.39999980791E+02 0.  0.
         12    1    3    3    0    0 -0.23806521799E+02  0.27041102793E+02 -0.76032060392E+01  0.36820924248E+02  0.00000000000E+00 0. -1.
         11    1    4    4    0    0 -0.57239155038E+01  0.29529943758E+01 -0.27157411790E+01  0.69898951988E+01  0.51100000000E-03 0. -1.
        -11    1    4    4    0    0  0.16254495528E+02 -0.14111192264E+02 -0.44086933594E+01  0.21972049276E+02  0.51100000000E-03 0.  1.
        -12    1    4    4    0    0  0.13275941774E+02 -0.15882904905E+02  0.14727640578E+02  0.25405131277E+02  0.00000000000E+00 0.  1.
</event>
<event>
 8    1  0.1244838E-006  0.9118800E+02  0.7816164E-02  0.1184000E+00
        -11   -1    0    0    0    0  0.00000000000E+00  0.00000000000E+00  0.45593999997E+02  0.45594000000E+02  0.51100000000E-03 0.  1.
         11   -1    0    0    0    0 -0.00000000000E+00 -0.00000000000E+00 -0.45593999997E+02  0.45594000000E+02  0.51100000000E-03 0. -1.
         23    2    1    2    0    0  0.00000000000E+00  0.00000000000E+00  0.35527136788E-14  0.91188000000E+02  0.91188000000E+02 0.  0.
    9900012    2    3    3    0    0  0.87133449308E+01 -0.30331140985E+02  0.18970453690E+02  0.54367100954E+02  0.40000038245E+02 0.  0.
         12    1    3    3    0    0 -0.87133449308E+01  0.30331140985E+02 -0.18970453690E+02  0.36820899046E+02  0.00000000000E+00 0. -1.
         11    1    4    4    0    0 -0.40734638283E+01 -0.19351055408E+02  0.12119225289E+02  0.23193362733E+02  0.51100000000E-03 0. -1.
        -11    1    4    4    0    0  0.17243836493E+02 -0.21182032073E+01 -0.24865854217E+01  0.17550492561E+02  0.51100000000E-03 0.  1.
        -12    1    4    4    0    0 -0.44570277334E+01 -0.88618823696E+01  0.93378138221E+01  0.13623245660E+02  0.00000000000E+00 0.  1.
</event>
<event>
 8    1  0.1244838E-006  0.9118800E+02  0.7816164E-02  0.1184000E+00
        -11   -1    0    0    0    0  0.00000000000E+00  0.00000000000E+00  0.45593999997E+02  0.45594000000E+02  0.51100000000E-03 0. -1.
         11   -1    0    0    0    0 -0.00000000000E+00 -0.00000000000E+00 -0.45593999997E+02  0.45594000000E+02  0.51100000000E-03 0.  1.
         23    2    1    2    0    0  0.00000000000E+00  0.00000000000E+00  0.17763568394E-14  0.91188000000E+02  0.91188000000E+02 0.  0.
    9900012    2    3    3    0    0 -0.37650080747E+01 -0.33944370452E+02  0.13761509885E+02  0.54367153656E+02  0.40000158389E+02 0.  0.
        -12    1    3    3    0    0  0.37650080747E+01  0.33944370452E+02 -0.13761509885E+02  0.36820846344E+02  0.00000000000E+00 0.  1.
         11    1    4    4    0    0  0.50992445321E+01 -0.11831094079E+02  0.18350317760E+02  0.22421223073E+02  0.51100000000E-03 0. -1.
        -11    1    4    4    0    0  0.48976156717E+01 -0.14318215506E+02 -0.55058399764E+01  0.16103173869E+02  0.51100000000E-03 0.  1.
        -12    1    4    4    0    0 -0.13761868278E+02 -0.77950608670E+01  0.91703210144E+00  0.15842756714E+02  0.00000000000E+00 0.  1.
</event>
<event>
 8    1  0.1244838E-006  0.9118800E+02  0.7816164E-02  0.1184000E+00
        -11   -1    0    0    0    0  0.00000000000E+00  0.00000000000E+00  0.45593999997E+02  0.45594000000E+02  0.51100000000E-03 0.  1.
         11   -1    0    0    0    0 -0.00000000000E+00 -0.00000000000E+00 -0.45593999997E+02  0.45594000000E+02  0.51100000000E-03 0. -1.
         23    2    1    2    0    0 -0.35527136788E-14 -0.35527136788E-14  0.00000000000E+00  0.91188000000E+02  0.91188000000E+02 0.  0.
    9900012    2    3    3    0    0  0.64864777437E+01  0.31894605127E+02 -0.17217420225E+02  0.54367084899E+02  0.40000001643E+02 0.  0.
        -12    1    3    3    0    0 -0.64864777437E+01 -0.31894605127E+02  0.17217420225E+02  0.36820915101E+02  0.00000000000E+00 0.  1.
         11    1    4    4    0    0 -0.22862514184E+01  0.12331927845E+02 -0.16072879711E+01  0.12644633834E+02  0.51100000000E-03 0.  1.
        -11    1    4    4    0    0 -0.57843220095E+01  0.22138942313E+02 -0.47270852009E+01  0.23365283705E+02  0.51100000000E-03 0. -1.
        -12    1    4    4    0    0  0.14557051172E+02 -0.25762650311E+01 -0.10883047053E+02  0.18357167360E+02  0.00000000000E+00 0.  1.
</event>
<event>
 8    1  0.1244838E-006  0.9118800E+02  0.7816164E-02  0.1184000E+00
        -11   -1    0    0    0    0  0.00000000000E+00  0.00000000000E+00  0.45593999997E+02  0.45594000000E+02  0.51100000000E-03 0. -1.
         11   -1    0    0    0    0 -0.00000000000E+00 -0.00000000000E+00 -0.45593999997E+02  0.45594000000E+02  0.51100000000E-03 0.  1.
         23    2    1    2    0    0  0.00000000000E+00  0.17763568394E-14  0.00000000000E+00  0.91188000000E+02  0.91188000000E+02 0.  0.
    9900012    2    3    3    0    0 -0.11122434175E+02 -0.10109010364E+02 -0.33613688920E+02  0.54367072319E+02  0.39999972965E+02 0.  0.
         12    1    3    3    0    0  0.11122434175E+02  0.10109010364E+02  0.33613688920E+02  0.36820927681E+02  0.00000000000E+00 0. -1.
         11    1    4    4    0    0  0.64262122618E+01 -0.11118894262E+02  0.41147662526E-01  0.12842418271E+02  0.51100000000E-03 0. -1.
        -11    1    4    4    0    0 -0.15717183777E+02 -0.51847572351E+01 -0.17306269058E+02  0.23946158824E+02  0.51100000000E-03 0.  1.
        -12    1    4    4    0    0 -0.18314626602E+01  0.61946411335E+01 -0.16348567524E+02  0.17578495224E+02  0.00000000000E+00 0.  1.
</event>
<event>
 8    1  0.1244838E-006  0.9118800E+02  0.7816164E-02  0.1184000E+00
        -11   -1    0    0    0    0  0.00000000000E+00  0.00000000000E+00  0.45593999997E+02  0.45594000000E+02  0.51100000000E-03 0.  1.
         11   -1    0    0    0    0 -0.00000000000E+00 -0.00000000000E+00 -0.45593999997E+02  0.45594000000E+02  0.51100000000E-03 0. -1.
         23    2    1    2    0    0 -0.17763568394E-14  0.00000000000E+00 -0.17763568394E-14  0.91188000000E+02  0.91188000000E+02 0.  0.
    9900012    2    3    3    0    0 -0.57285488629E+01  0.34470321687E+02  0.11608880557E+02  0.54367007929E+02  0.39999826175E+02 0.  0.
        -12    1    3    3    0    0  0.57285488629E+01 -0.34470321687E+02 -0.11608880557E+02  0.36820992071E+02  0.00000000000E+00 0.  1.
         11    1    4    4    0    0 -0.13726188043E+02  0.14311195078E+02 -0.58407832698E+01  0.20672041317E+02  0.51100000000E-03 0. -1.
        -11    1    4    4    0    0  0.13402616347E+02  0.19073305283E+02  0.14053413031E+02  0.27219836837E+02  0.51100000000E-03 0.  1.
         12    1    4    4    0    0 -0.54049771671E+01  0.10858213262E+01  0.33962507963E+01  0.64751297748E+01  0.00000000000E+00 0. -1.
</event>
<event>
 8    1  0.1244838E-006  0.9118800E+02  0.7816164E-02  0.1184000E+00
        -11   -1    0    0    0    0  0.00000000000E+00  0.00000000000E+00  0.45593999997E+02  0.45594000000E+02  0.51100000000E-03 0. -1.
         11   -1    0    0    0    0 -0.00000000000E+00 -0.00000000000E+00 -0.45593999997E+02  0.45594000000E+02  0.51100000000E-03 0.  1.
         23    2    1    2    0    0  0.00000000000E+00 -0.88817841970E-15  0.35527136788E-14  0.91188000000E+02  0.91188000000E+02 0.  0.
    9900012    2    3    3    0    0 -0.19100780416E+02 -0.61042474299E+01 -0.30881691409E+02  0.54367075059E+02  0.39999979213E+02 0.  0.
         12    1    3    3    0    0  0.19100780416E+02  0.61042474299E+01  0.30881691409E+02  0.36820924941E+02  0.00000000000E+00 0. -1.
         11    1    4    4    0    0  0.24693022303E+01  0.39999665858E+01 -0.77990432824E+01  0.91061661841E+01  0.51100000000E-03 0. -1.
        -11    1    4    4    0    0 -0.70572251726E+01 -0.10767625444E+02 -0.27257498265E+02  0.30144939820E+02  0.51100000000E-03 0.  1.
         12    1    4    4    0    0 -0.14512857474E+02  0.66341142853E+00  0.41748501385E+01  0.15115969055E+02  0.00000000000E+00 0. -1.
</event>
<event>
 8    1  0.1244838E-006  0.9118800E+02  0.7816164E-02  0.1184000E+00
        -11   -1    0    0    0    0  0.00000000000E+00  0.00000000000E+00  0.45593999997E+02  0.45594000000E+02  0.51100000000E-03 0. -1.
         11   -1    0    0    0    0 -0.00000000000E+00 -0.00000000000E+00 -0.45593999997E+02  0.45594000000E+02  0.51100000000E-03 0.  1.
         23    2    1    2    0    0  0.00000000000E+00 -0.38857805862E-15  0.88817841970E-15  0.91188000000E+02  0.91188000000E+02 0.  0.
    9900012    2    3    3    0    0 -0.36482602160E+02 -0.76602990482E-01 -0.49794442711E+01  0.54367068539E+02  0.39999964349E+02 0.  0.
         12    1    3    3    0    0  0.36482602160E+02  0.76602990482E-01  0.49794442711E+01  0.36820931461E+02  0.00000000000E+00 0. -1.
         11    1    4    4    0    0  0.42146647350E+01 -0.52303437054E+01 -0.76749569321E+01  0.10199257732E+02  0.51100000000E-03 0. -1.
        -11    1    4    4    0    0 -0.34511257932E+02 -0.14303734228E+01 -0.61435657721E+00  0.34546350407E+02  0.51100000000E-03 0.  1.
        -12    1    4    4    0    0 -0.61860089627E+01  0.65841141377E+01  0.33098692382E+01  0.96214604005E+01  0.00000000000E+00 0.  1.
</event>
<event>
 8    1  0.1244838E-006  0.9118800E+02  0.7816164E-02  0.1184000E+00
        -11   -1    0    0    0    0  0.00000000000E+00  0.00000000000E+00  0.45593999997E+02  0.45594000000E+02  0.51100000000E-03 0. -1.
         11   -1    0    0    0    0 -0.00000000000E+00 -0.00000000000E+00 -0.45593999997E+02  0.45594000000E+02  0.51100000000E-03 0.  1.
         23    2    1    2    0    0  0.71054273576E-14  0.00000000000E+00  0.00000000000E+00  0.91188000000E+02  0.91188000000E+02 0.  0.
    9900012    2    3    3    0    0  0.30668278018E+02 -0.60075306263E+01  0.19471677605E+02  0.54367082989E+02  0.39999997289E+02 0.  0.
        -12    1    3    3    0    0 -0.30668278018E+02  0.60075306263E+01 -0.19471677605E+02  0.36820917011E+02  0.00000000000E+00 0.  1.
         11    1    4    4    0    0  0.55899487810E+01 -0.44121762948E+01  0.18292496433E+02  0.19629830693E+02  0.51100000000E-03 0. -1.
        -11    1    4    4    0    0 -0.35472070125E+01 -0.60141998952E+00 -0.42669179271E+01  0.55813056224E+01  0.51100000000E-03 0.  1.
         12    1    4    4    0    0  0.28625536249E+02 -0.99393434197E+00  0.54460991000E+01  0.29155946673E+02  0.00000000000E+00 0. -1.
</event>
<event>
 8    1  0.1244838E-006  0.9118800E+02  0.7816164E-02  0.1184000E+00
        -11   -1    0    0    0    0  0.00000000000E+00  0.00000000000E+00  0.45593999997E+02  0.45594000000E+02  0.51100000000E-03 0. -1.
         11   -1    0    0    0    0 -0.00000000000E+00 -0.00000000000E+00 -0.45593999997E+02  0.45594000000E+02  0.51100000000E-03 0.  1.
         23    2    1    2    0    0 -0.35527136788E-14  0.00000000000E+00  0.00000000000E+00  0.91188000000E+02  0.91188000000E+02 0.  0.
    9900012    2    3    3    0    0 -0.25318801141E+02  0.82928732117E+01 -0.25415869480E+02  0.54367083950E+02  0.39999999481E+02 0.  0.
         12    1    3    3    0    0  0.25318801141E+02 -0.82928732117E+01  0.25415869480E+02  0.36820916050E+02  0.00000000000E+00 0. -1.
         11    1    4    4    0    0 -0.10466409400E+02 -0.98521891210E+01 -0.20214273149E+02  0.24803793972E+02  0.51100000000E-03 0. -1.
        -11    1    4    4    0    0  0.25905536952E+01  0.34429291946E+01  0.30775738046E+01  0.52949212147E+01  0.51100000000E-03 0.  1.
        -12    1    4    4    0    0 -0.17442945436E+02  0.14702133138E+02 -0.82791701354E+01  0.24268368763E+02  0.00000000000E+00 0.  1.
</event>
<event>
 8    1  0.1244838E-006  0.9118800E+02  0.7816164E-02  0.1184000E+00
        -11   -1    0    0    0    0  0.00000000000E+00  0.00000000000E+00  0.45593999997E+02  0.45594000000E+02  0.51100000000E-03 0. -1.
         11   -1    0    0    0    0 -0.00000000000E+00 -0.00000000000E+00 -0.45593999997E+02  0.45594000000E+02  0.51100000000E-03 0.  1.
         23    2    1    2    0    0  0.00000000000E+00  0.00000000000E+00  0.00000000000E+00  0.91188000000E+02  0.91188000000E+02 0.  0.
    9900012    2    3    3    0    0  0.29325341466E+02  0.21783263475E+02  0.46145611626E+01  0.54367076676E+02  0.39999982899E+02 0.  0.
         12    1    3    3    0    0 -0.29325341466E+02 -0.21783263475E+02 -0.46145611626E+01  0.36820923324E+02  0.00000000000E+00 0. -1.
         11    1    4    4    0    0  0.79887083364E+01  0.20511438279E+02  0.11068604780E+02  0.24638436906E+02  0.51100000000E-03 0. -1.
        -11    1    4    4    0    0  0.12296779364E+02  0.93041275693E+01  0.11183909457E+01  0.15460542394E+02  0.51100000000E-03 0.  1.
        -12    1    4    4    0    0  0.90398537651E+01 -0.80323023728E+01 -0.75724345636E+01  0.14268097376E+02  0.00000000000E+00 0.  1.
</event>
<event>
 8    1  0.1244838E-006  0.9118800E+02  0.7816164E-02  0.1184000E+00
        -11   -1    0    0    0    0  0.00000000000E+00  0.00000000000E+00  0.45593999997E+02  0.45594000000E+02  0.51100000000E-03 0.  1.
         11   -1    0    0    0    0 -0.00000000000E+00 -0.00000000000E+00 -0.45593999997E+02  0.45594000000E+02  0.51100000000E-03 0. -1.
         23    2    1    2    0    0  0.00000000000E+00  0.00000000000E+00  0.35527136788E-14  0.91188000000E+02  0.91188000000E+02 0.  0.
    9900012    2    3    3    0    0 -0.20992719128E+02  0.52989456413E+01 -0.29782662772E+02  0.54367080903E+02  0.39999992536E+02 0.  0.
        -12    1    3    3    0    0  0.20992719128E+02 -0.52989456413E+01  0.29782662772E+02  0.36820919097E+02  0.00000000000E+00 0.  1.
         11    1    4    4    0    0 -0.36720890147E+00  0.70877928604E+00  0.63532363807E+01  0.64031885201E+01  0.51100000000E-03 0. -1.
        -11    1    4    4    0    0  0.14240386362E+00  0.97343872461E+01 -0.15049007789E+02  0.17923482073E+02  0.51100000000E-03 0.  1.
         12    1    4    4    0    0 -0.20767914090E+02 -0.51442208908E+01 -0.21086891364E+02  0.30040410311E+02  0.00000000000E+00 0. -1.
</event>
<event>
 8    1  0.1244838E-006  0.9118800E+02  0.7816164E-02  0.1184000E+00
        -11   -1    0    0    0    0  0.00000000000E+00  0.00000000000E+00  0.45593999997E+02  0.45594000000E+02  0.51100000000E-03 0.  1.
         11   -1    0    0    0    0 -0.00000000000E+00 -0.00000000000E+00 -0.45593999997E+02  0.45594000000E+02  0.51100000000E-03 0. -1.
         23    2    1    2    0    0 -0.83266726847E-16  0.00000000000E+00  0.00000000000E+00  0.91188000000E+02  0.91188000000E+02 0.  0.
    9900012    2    3    3    0    0  0.16522926644E+00  0.76719435511E+01 -0.36012408401E+02  0.54367087770E+02  0.40000008190E+02 0.  0.
        -12    1    3    3    0    0 -0.16522926644E+00 -0.76719435511E+01  0.36012408401E+02  0.36820912230E+02  0.00000000000E+00 0.  1.
         11    1    4    4    0    0  0.35447492773E+01  0.17676474433E+00  0.61779698501E+01  0.71248722756E+01  0.51100000000E-03 0. -1.
        -11    1    4    4    0    0  0.11034806541E+01  0.68068935168E+01 -0.25638270186E+01  0.73569476106E+01  0.51100000000E-03 0.  1.
         12    1    4    4    0    0 -0.44830006650E+01  0.68828529001E+00 -0.39626551233E+02  0.39885267884E+02  0.00000000000E+00 0. -1.
</event>
<event>
 8    1  0.1244838E-006  0.9118800E+02  0.7816164E-02  0.1184000E+00
        -11   -1    0    0    0    0  0.00000000000E+00  0.00000000000E+00  0.45593999997E+02  0.45594000000E+02  0.51100000000E-03 0.  1.
         11   -1    0    0    0    0 -0.00000000000E+00 -0.00000000000E+00 -0.45593999997E+02  0.45594000000E+02  0.51100000000E-03 0. -1.
         23    2    1    2    0    0  0.35527136788E-14 -0.17763568394E-14 -0.35527136788E-14  0.91188000000E+02  0.91188000000E+02 0.  0.
    9900012    2    3    3    0    0 -0.23173850945E+02  0.15114965132E+02  0.24295905943E+02  0.54367074100E+02  0.39999977026E+02 0.  0.
        -12    1    3    3    0    0  0.23173850945E+02 -0.15114965132E+02 -0.24295905943E+02  0.36820925900E+02  0.00000000000E+00 0.  1.
         11    1    4    4    0    0  0.91716893667E+01 -0.24864002166E+01  0.37739570680E+00  0.95102313145E+01  0.51100000000E-03 0.  1.
        -11    1    4    4    0    0 -0.91394715903E+01  0.90640108745E+01  0.11141749841E+02  0.17024242241E+02  0.51100000000E-03 0. -1.
        -12    1    4    4    0    0 -0.23206068721E+02  0.85373544738E+01  0.12776760395E+02  0.27832600545E+02  0.00000000000E+00 0.  1.
</event>
<event>
 8    1  0.1244838E-006  0.9118800E+02  0.7816164E-02  0.1184000E+00
        -11   -1    0    0    0    0  0.00000000000E+00  0.00000000000E+00  0.45593999997E+02  0.45594000000E+02  0.51100000000E-03 0. -1.
         11   -1    0    0    0    0 -0.00000000000E+00 -0.00000000000E+00 -0.45593999997E+02  0.45594000000E+02  0.51100000000E-03 0.  1.
         23    2    1    2    0    0  0.00000000000E+00  0.00000000000E+00  0.71054273576E-14  0.91188000000E+02  0.91188000000E+02 0.  0.
    9900012    2    3    3    0    0 -0.65910221552E+01  0.16650794206E+02  0.32172802807E+02  0.54367085275E+02  0.40000002501E+02 0.  0.
        -12    1    3    3    0    0  0.65910221552E+01 -0.16650794206E+02 -0.32172802807E+02  0.36820914725E+02  0.00000000000E+00 0.  1.
         11    1    4    4    0    0 -0.67186504135E+01 -0.12000963143E+01  0.64520204379E+01  0.93919679799E+01  0.51100000000E-03 0. -1.
        -11    1    4    4    0    0 -0.15850278622E+02  0.11866059257E+02  0.12871140761E+02  0.23615693075E+02  0.51100000000E-03 0.  1.
         12    1    4    4    0    0  0.15977906880E+02  0.59848312637E+01  0.12849641609E+02  0.21359424220E+02  0.00000000000E+00 0. -1.
</event>
<event>
 8    1  0.1244838E-006  0.9118800E+02  0.7816164E-02  0.1184000E+00
        -11   -1    0    0    0    0  0.00000000000E+00  0.00000000000E+00  0.45593999997E+02  0.45594000000E+02  0.51100000000E-03 0.  1.
         11   -1    0    0    0    0 -0.00000000000E+00 -0.00000000000E+00 -0.45593999997E+02  0.45594000000E+02  0.51100000000E-03 0. -1.
         23    2    1    2    0    0  0.00000000000E+00 -0.35527136788E-14  0.35527136788E-14  0.91188000000E+02  0.91188000000E+02 0.  0.
    9900012    2    3    3    0    0 -0.19455205394E+02 -0.22506750907E+02  0.21696028046E+02  0.54367129746E+02  0.40000103882E+02 0.  0.
         12    1    3    3    0    0  0.19455205394E+02  0.22506750907E+02 -0.21696028046E+02  0.36820870254E+02  0.00000000000E+00 0. -1.
         11    1    4    4    0    0  0.37741912233E+01 -0.16825877740E+02  0.16687414904E+02  0.23996343420E+02  0.51100000000E-03 0. -1.
        -11    1    4    4    0    0  0.89600519641E-01 -0.44489334856E+01 -0.33483962019E+01  0.55689132511E+01  0.51100000000E-03 0.  1.
         12    1    4    4    0    0 -0.23318997137E+02 -0.12319396811E+01  0.83570093447E+01  0.24801873075E+02  0.00000000000E+00 0. -1.
</event>
<event>
 8    1  0.1244838E-006  0.9118800E+02  0.7816164E-02  0.1184000E+00
        -11   -1    0    0    0    0  0.00000000000E+00  0.00000000000E+00  0.45593999997E+02  0.45594000000E+02  0.51100000000E-03 0. -1.
         11   -1    0    0    0    0 -0.00000000000E+00 -0.00000000000E+00 -0.45593999997E+02  0.45594000000E+02  0.51100000000E-03 0.  1.
         23    2    1    2    0    0  0.00000000000E+00  0.00000000000E+00  0.00000000000E+00  0.91188000000E+02  0.91188000000E+02 0.  0.
    9900012    2    3    3    0    0 -0.13869280374E+02 -0.26272026799E+02 -0.21753239764E+02  0.54367085149E+02  0.40000002215E+02 0.  0.
         12    1    3    3    0    0  0.13869280374E+02  0.26272026799E+02  0.21753239764E+02  0.36820914851E+02  0.00000000000E+00 0. -1.
         11    1    4    4    0    0 -0.11075395783E+02 -0.10028369860E+02 -0.22014083145E+02  0.26605496627E+02  0.51100000000E-03 0. -1.
        -11    1    4    4    0    0 -0.11818807594E+02 -0.12876654892E+02  0.30297118227E+01  0.17738985544E+02  0.51100000000E-03 0.  1.
        -12    1    4    4    0    0  0.90249230036E+01 -0.33670020464E+01 -0.27688684426E+01  0.10022602978E+02  0.00000000000E+00 0.  1.
</event>
<event>
 8    1  0.1244838E-006  0.9118800E+02  0.7816164E-02  0.1184000E+00
        -11   -1    0    0    0    0  0.00000000000E+00  0.00000000000E+00  0.45593999997E+02  0.45594000000E+02  0.51100000000E-03 0.  1.
         11   -1    0    0    0    0 -0.00000000000E+00 -0.00000000000E+00 -0.45593999997E+02  0.45594000000E+02  0.51100000000E-03 0. -1.
         23    2    1    2    0    0 -0.71054273576E-14  0.00000000000E+00 -0.44408920985E-15  0.91188000000E+02  0.91188000000E+02 0.  0.
    9900012    2    3    3    0    0  0.34013637512E+02 -0.13925283063E+02  0.22223207618E+01  0.54367085362E+02  0.40000002700E+02 0.  0.
         12    1    3    3    0    0 -0.34013637512E+02  0.13925283063E+02 -0.22223207618E+01  0.36820914638E+02  0.00000000000E+00 0. -1.
         11    1    4    4    0    0  0.22418723347E+02  0.36836452061E+01 -0.55102306007E+01  0.23378003338E+02  0.51100000000E-03 0. -1.
        -11    1    4    4    0    0  0.45617907184E+01 -0.79902757009E+01 -0.73439295183E+01  0.11772329479E+02  0.51100000000E-03 0.  1.
        -12    1    4    4    0    0  0.70331234466E+01 -0.96186525682E+01  0.15076480881E+02  0.19216752545E+02  0.00000000000E+00 0.  1.
</event>
<event>
 8    1  0.1244838E-006  0.9118800E+02  0.7816164E-02  0.1184000E+00
        -11   -1    0    0    0    0  0.00000000000E+00  0.00000000000E+00  0.45593999997E+02  0.45594000000E+02  0.51100000000E-03 0. -1.
         11   -1    0    0    0    0 -0.00000000000E+00 -0.00000000000E+00 -0.45593999997E+02  0.45594000000E+02  0.51100000000E-03 0.  1.
         23    2    1    2    0    0  0.00000000000E+00 -0.71054273576E-14  0.88817841970E-15  0.91188000000E+02  0.91188000000E+02 0.  0.
    9900012    2    3    3    0    0  0.10688984330E+02  0.35093133040E+02  0.31618865058E+01  0.54367083405E+02  0.39999998239E+02 0.  0.
        -12    1    3    3    0    0 -0.10688984330E+02 -0.35093133040E+02 -0.31618865058E+01  0.36820916595E+02  0.00000000000E+00 0.  1.
         11    1    4    4    0    0  0.48891994350E+01 -0.24541707352E+01  0.10130476912E+02  0.11513200591E+02  0.51100000000E-03 0. -1.
        -11    1    4    4    0    0 -0.32683358878E+01  0.37583366978E+01  0.37829442371E+01  0.62544209621E+01  0.51100000000E-03 0.  1.
         12    1    4    4    0    0  0.90681207832E+01  0.33788967078E+02 -0.10751534643E+02  0.36599461853E+02  0.00000000000E+00 0. -1.
</event>
<event>
 8    1  0.1244838E-006  0.9118800E+02  0.7816164E-02  0.1184000E+00
        -11   -1    0    0    0    0  0.00000000000E+00  0.00000000000E+00  0.45593999997E+02  0.45594000000E+02  0.51100000000E-03 0.  1.
         11   -1    0    0    0    0 -0.00000000000E+00 -0.00000000000E+00 -0.45593999997E+02  0.45594000000E+02  0.51100000000E-03 0. -1.
         23    2    1    2    0    0  0.17763568394E-14  0.88817841970E-15  0.00000000000E+00  0.91188000000E+02  0.91188000000E+02 0.  0.
    9900012    2    3    3    0    0 -0.64476102592E+01 -0.43358493366E+01  0.35991802200E+02  0.54367067189E+02  0.39999961270E+02 0.  0.
         12    1    3    3    0    0  0.64476102592E+01  0.43358493366E+01 -0.35991802200E+02  0.36820932811E+02  0.00000000000E+00 0. -1.
         11    1    4    4    0    0  0.77210997720E+01 -0.51954990376E+01 -0.36443568455E+01  0.99944949356E+01  0.51100000000E-03 0. -1.
        -11    1    4    4    0    0 -0.16691897578E+02 -0.10337706783E+01  0.31901802831E+02  0.36019621746E+02  0.51100000000E-03 0.  1.
         12    1    4    4    0    0  0.25231875472E+01  0.18934203793E+01  0.77343562138E+01  0.83529505070E+01  0.00000000000E+00 0. -1.
</event>
<event>
 8    1  0.1244838E-006  0.9118800E+02  0.7816164E-02  0.1184000E+00
        -11   -1    0    0    0    0  0.00000000000E+00  0.00000000000E+00  0.45593999997E+02  0.45594000000E+02  0.51100000000E-03 0.  1.
         11   -1    0    0    0    0 -0.00000000000E+00 -0.00000000000E+00 -0.45593999997E+02  0.45594000000E+02  0.51100000000E-03 0. -1.
         23    2    1    2    0    0 -0.88817841970E-15  0.00000000000E+00  0.00000000000E+00  0.91188000000E+02  0.91188000000E+02 0.  0.
    9900012    2    3    3    0    0  0.65112101954E+01  0.33778711274E+02  0.13129451510E+02  0.54367086235E+02  0.40000004691E+02 0.  0.
         12    1    3    3    0    0 -0.65112101954E+01 -0.33778711274E+02 -0.13129451510E+02  0.36820913765E+02  0.00000000000E+00 0. -1.
         11    1    4    4    0    0 -0.94071405312E+01  0.40793682535E+01  0.15817115562E+02  0.18849845710E+02  0.51100000000E-03 0. -1.
        -11    1    4    4    0    0  0.45104126376E+01  0.14461675426E+02  0.34133087879E+01  0.15528507830E+02  0.51100000000E-03 0.  1.
         12    1    4    4    0    0  0.11407938089E+02  0.15237667594E+02 -0.61009728405E+01  0.19988732695E+02  0.00000000000E+00 0. -1.
</event>
<event>
 8    1  0.1244838E-006  0.9118800E+02  0.7816164E-02  0.1184000E+00
        -11   -1    0    0    0    0  0.00000000000E+00  0.00000000000E+00  0.45593999997E+02  0.45594000000E+02  0.51100000000E-03 0.  1.
         11   -1    0    0    0    0 -0.00000000000E+00 -0.00000000000E+00 -0.45593999997E+02  0.45594000000E+02  0.51100000000E-03 0. -1.
         23    2    1    2    0    0  0.00000000000E+00  0.00000000000E+00  0.17763568394E-14  0.91188000000E+02  0.91188000000E+02 0.  0.
    9900012    2    3    3    0    0 -0.16168662060E+02  0.31291459918E+02 -0.10733049209E+02  0.54367089610E+02  0.40000012384E+02 0.  0.
        -12    1    3    3    0    0  0.16168662060E+02 -0.31291459918E+02  0.10733049209E+02  0.36820910390E+02  0.00000000000E+00 0.  1.
         11    1    4    4    0    0 -0.22238704559E+01 -0.76347973500E+01 -0.12851150375E+01  0.80552623359E+01  0.51100000000E-03 0. -1.
        -11    1    4    4    0    0  0.45731998798E+01  0.59066408924E+01 -0.19189485544E+01  0.77126472491E+01  0.51100000000E-03 0.  1.
         12    1    4    4    0    0 -0.18517991484E+02  0.33019616376E+02 -0.75289856170E+01  0.38599180025E+02  0.00000000000E+00 0. -1.
</event>
<event>
 8    1  0.1244838E-006  0.9118800E+02  0.7816164E-02  0.1184000E+00
        -11   -1    0    0    0    0  0.00000000000E+00  0.00000000000E+00  0.45593999997E+02  0.45594000000E+02  0.51100000000E-03 0. -1.
         11   -1    0    0    0    0 -0.00000000000E+00 -0.00000000000E+00 -0.45593999997E+02  0.45594000000E+02  0.51100000000E-03 0.  1.
         23    2    1    2    0    0  0.00000000000E+00  0.00000000000E+00  0.00000000000E+00  0.91188000000E+02  0.91188000000E+02 0.  0.
    9900012    2    3    3    0    0  0.21465997089E+02  0.16232359132E+02  0.25129714691E+02  0.54367067441E+02  0.39999961846E+02 0.  0.
        -12    1    3    3    0    0 -0.21465997089E+02 -0.16232359132E+02 -0.25129714691E+02  0.36820932559E+02  0.00000000000E+00 0.  1.
         11    1    4    4    0    0  0.87322110058E+01 -0.65486451921E+01  0.11945566392E+02  0.16181249012E+02  0.51100000000E-03 0. -1.
        -11    1    4    4    0    0  0.27979949616E+01 -0.40767375594E+01 -0.24943692695E+01  0.55380902166E+01  0.51100000000E-03 0.  1.
         12    1    4    4    0    0  0.99357911218E+01  0.26857741884E+02  0.15678517568E+02  0.32647728213E+02  0.00000000000E+00 0. -1.
</event>
<event>
 8    1  0.1244838E-006  0.9118800E+02  0.7816164E-02  0.1184000E+00
        -11   -1    0    0    0    0  0.00000000000E+00  0.00000000000E+00  0.45593999997E+02  0.45594000000E+02  0.51100000000E-03 0. -1.
         11   -1    0    0    0    0 -0.00000000000E+00 -0.00000000000E+00 -0.45593999997E+02  0.45594000000E+02  0.51100000000E-03 0.  1.
         23    2    1    2    0    0  0.00000000000E+00  0.00000000000E+00  0.00000000000E+00  0.91188000000E+02  0.91188000000E+02 0.  0.
    9900012    2    3    3    0    0  0.18258756454E+02  0.27343537856E+02  0.16574953106E+02  0.54367077684E+02  0.39999985197E+02 0.  0.
        -12    1    3    3    0    0 -0.18258756454E+02 -0.27343537856E+02 -0.16574953106E+02  0.36820922316E+02  0.00000000000E+00 0.  1.
         11    1    4    4    0    0  0.90804983431E+01  0.14224651742E+02  0.97206145139E+01  0.19475279565E+02  0.51100000000E-03 0. -1.
        -11    1    4    4    0    0 -0.94218294051E+00  0.19756892621E+02 -0.20222549730E+01  0.19882455336E+02  0.51100000000E-03 0.  1.
        -12    1    4    4    0    0  0.10120441051E+02 -0.66380065075E+01  0.88765935652E+01  0.15009342783E+02  0.00000000000E+00 0.  1.
</event>
<event>
 8    1  0.1244838E-006  0.9118800E+02  0.7816164E-02  0.1184000E+00
        -11   -1    0    0    0    0  0.00000000000E+00  0.00000000000E+00  0.45593999997E+02  0.45594000000E+02  0.51100000000E-03 0. -1.
         11   -1    0    0    0    0 -0.00000000000E+00 -0.00000000000E+00 -0.45593999997E+02  0.45594000000E+02  0.51100000000E-03 0.  1.
         23    2    1    2    0    0  0.17763568394E-14  0.00000000000E+00  0.00000000000E+00  0.91188000000E+02  0.91188000000E+02 0.  0.
    9900012    2    3    3    0    0  0.11250985648E+02  0.28791244384E+02 -0.20006483266E+02  0.54367084695E+02  0.40000001179E+02 0.  0.
         12    1    3    3    0    0 -0.11250985648E+02 -0.28791244384E+02  0.20006483266E+02  0.36820915305E+02  0.00000000000E+00 0. -1.
         11    1    4    4    0    0  0.17357937271E+02  0.32916683887E+01 -0.16786675992E+02  0.24370587974E+02  0.51100000000E-03 0. -1.
        -11    1    4    4    0    0  0.50578164161E+00  0.17068720733E+02  0.33864942849E+01  0.17408773257E+02  0.51100000000E-03 0.  1.
         12    1    4    4    0    0 -0.66127332651E+01  0.84308552625E+01 -0.66063015591E+01  0.12587723463E+02  0.00000000000E+00 0. -1.
</event>
<event>
 8    1  0.1244838E-006  0.9118800E+02  0.7816164E-02  0.1184000E+00
        -11   -1    0    0    0    0  0.00000000000E+00  0.00000000000E+00  0.45593999997E+02  0.45594000000E+02  0.51100000000E-03 0. -1.
         11   -1    0    0    0    0 -0.00000000000E+00 -0.00000000000E+00 -0.45593999997E+02  0.45594000000E+02  0.51100000000E-03 0.  1.
         23    2    1    2    0    0 -0.35527136788E-14  0.55511151231E-15 -0.35527136788E-14  0.91188000000E+02  0.91188000000E+02 0.  0.
    9900012    2    3    3    0    0  0.21872715181E+02 -0.79618489363E+00  0.29609627833E+02  0.54367086918E+02  0.40000006247E+02 0.  0.
        -12    1    3    3    0    0 -0.21872715181E+02  0.79618489363E+00 -0.29609627833E+02  0.36820913082E+02  0.00000000000E+00 0.  1.
         11    1    4    4    0    0  0.18912314786E+02 -0.81278167036E+01  0.26666101634E+02  0.33687060298E+02  0.51100000000E-03 0. -1.
        -11    1    4    4    0    0  0.10154209762E+02  0.69555569395E-02  0.21766762727E+01  0.10384890184E+02  0.51100000000E-03 0.  1.
        -12    1    4    4    0    0 -0.71938093667E+01  0.73246762530E+01  0.76684992640E+00  0.10295136436E+02  0.00000000000E+00 0.  1.
</event>
<event>
 8    1  0.1244838E-006  0.9118800E+02  0.7816164E-02  0.1184000E+00
        -11   -1    0    0    0    0  0.00000000000E+00  0.00000000000E+00  0.45593999997E+02  0.45594000000E+02  0.51100000000E-03 0.  1.
         11   -1    0    0    0    0 -0.00000000000E+00 -0.00000000000E+00 -0.45593999997E+02  0.45594000000E+02  0.51100000000E-03 0. -1.
         23    2    1    2    0    0 -0.17763568394E-14  0.35527136788E-14  0.00000000000E+00  0.91188000000E+02  0.91188000000E+02 0.  0.
    9900012    2    3    3    0    0  0.13643707353E+02 -0.27620979607E+02  0.20167064818E+02  0.54367085180E+02  0.40000002286E+02 0.  0.
         12    1    3    3    0    0 -0.13643707353E+02  0.27620979607E+02 -0.20167064818E+02  0.36820914820E+02  0.00000000000E+00 0. -1.
         11    1    4    4    0    0  0.15018759950E+02 -0.11166283396E+01  0.57690333367E+01  0.16127360454E+02  0.51100000000E-03 0. -1.
        -11    1    4    4    0    0  0.99925994274E+01 -0.54579118871E+01  0.61275055543E+01  0.12930087782E+02  0.51100000000E-03 0.  1.
        -12    1    4    4    0    0 -0.11367652025E+02 -0.21046439381E+02  0.82705259267E+01  0.25309636944E+02  0.00000000000E+00 0.  1.
</event>
<event>
 8    1  0.1244838E-006  0.9118800E+02  0.7816164E-02  0.1184000E+00
        -11   -1    0    0    0    0  0.00000000000E+00  0.00000000000E+00  0.45593999997E+02  0.45594000000E+02  0.51100000000E-03 0.  1.
         11   -1    0    0    0    0 -0.00000000000E+00 -0.00000000000E+00 -0.45593999997E+02  0.45594000000E+02  0.51100000000E-03 0. -1.
         23    2    1    2    0    0 -0.44408920985E-15  0.00000000000E+00  0.71054273576E-14  0.91188000000E+02  0.91188000000E+02 0.  0.
    9900012    2    3    3    0    0 -0.30944823140E+01  0.13748403460E+02 -0.34017445734E+02  0.54367068008E+02  0.39999963137E+02 0.  0.
        -12    1    3    3    0    0  0.30944823140E+01 -0.13748403460E+02  0.34017445734E+02  0.36820931992E+02  0.00000000000E+00 0.  1.
         11    1    4    4    0    0  0.20062337296E+01  0.78408536650E+01 -0.12055218121E+02  0.14520063505E+02  0.51100000000E-03 0. -1.
        -11    1    4    4    0    0 -0.78313045675E+01 -0.12229065357E+02 -0.12739497003E+02  0.19317716089E+02  0.51100000000E-03 0.  1.
        -12    1    4    4    0    0  0.27305885239E+01  0.18136615152E+02 -0.92227306101E+01  0.20529288414E+02  0.00000000000E+00 0.  1.
</event>
<event>
 8    1  0.1244838E-006  0.9118800E+02  0.7816164E-02  0.1184000E+00
        -11   -1    0    0    0    0  0.00000000000E+00  0.00000000000E+00  0.45593999997E+02  0.45594000000E+02  0.51100000000E-03 0.  1.
         11   -1    0    0    0    0 -0.00000000000E+00 -0.00000000000E+00 -0.45593999997E+02  0.45594000000E+02  0.51100000000E-03 0. -1.
         23    2    1    2    0    0  0.35527136788E-14  0.00000000000E+00  0.00000000000E+00  0.91188000000E+02  0.91188000000E+02 0.  0.
    9900012    2    3    3    0    0 -0.21761458391E+02  0.20008398874E+02 -0.21951828720E+02  0.54367083648E+02  0.39999998793E+02 0.  0.
        -12    1    3    3    0    0  0.21761458391E+02 -0.20008398874E+02  0.21951828720E+02  0.36820916352E+02  0.00000000000E+00 0.  1.
         11    1    4    4    0    0 -0.89057167616E+01  0.71967299890E+01 -0.19618981786E+02  0.22715835009E+02  0.51100000000E-03 0. -1.
        -11    1    4    4    0    0  0.55538303098E+01  0.21878019358E+01 -0.76866884283E+01  0.97322498774E+01  0.51100000000E-03 0.  1.
        -12    1    4    4    0    0 -0.18409571940E+02  0.10623866950E+02  0.53538414944E+01  0.21918998761E+02  0.00000000000E+00 0.  1.
</event>
<event>
 8    1  0.1244838E-006  0.9118800E+02  0.7816164E-02  0.1184000E+00
        -11   -1    0    0    0    0  0.00000000000E+00  0.00000000000E+00  0.45593999997E+02  0.45594000000E+02  0.51100000000E-03 0.  1.
         11   -1    0    0    0    0 -0.00000000000E+00 -0.00000000000E+00 -0.45593999997E+02  0.45594000000E+02  0.51100000000E-03 0. -1.
         23    2    1    2    0    0 -0.44408920985E-15  0.35527136788E-14  0.00000000000E+00  0.91188000000E+02  0.91188000000E+02 0.  0.
    9900012    2    3    3    0    0 -0.29695961026E+01 -0.25777318612E+02 -0.26124526977E+02  0.54367087931E+02  0.40000008557E+02 0.  0.
        -12    1    3    3    0    0  0.29695961026E+01  0.25777318612E+02  0.26124526977E+02  0.36820912069E+02  0.00000000000E+00 0.  1.
         11    1    4    4    0    0  0.10729479957E+00 -0.11550335166E+02 -0.29534421272E+01  0.11922439989E+02  0.51100000000E-03 0. -1.
        -11    1    4    4    0    0 -0.12994939512E+02 -0.31911463639E+01  0.16951855989E+01  0.13487976961E+02  0.51100000000E-03 0.  1.
        -12    1    4    4    0    0  0.99180486095E+01 -0.11035837081E+02 -0.24866270448E+02  0.28956670981E+02  0.00000000000E+00 0.  1.
</event>
<event>
 8    1  0.1244838E-006  0.9118800E+02  0.7816164E-02  0.1184000E+00
        -11   -1    0    0    0    0  0.00000000000E+00  0.00000000000E+00  0.45593999997E+02  0.45594000000E+02  0.51100000000E-03 0.  1.
         11   -1    0    0    0    0 -0.00000000000E+00 -0.00000000000E+00 -0.45593999997E+02  0.45594000000E+02  0.51100000000E-03 0. -1.
         23    2    1    2    0    0  0.71054273576E-14  0.00000000000E+00 -0.17763568394E-14  0.91188000000E+02  0.91188000000E+02 0.  0.
    9900012    2    3    3    0    0 -0.32030207875E+02 -0.95731776006E+01 -0.15433725511E+02  0.54367084353E+02  0.40000000400E+02 0.  0.
        -12    1    3    3    0    0  0.32030207875E+02  0.95731776006E+01  0.15433725511E+02  0.36820915647E+02  0.00000000000E+00 0.  1.
         11    1    4    4    0    0 -0.15575364929E+02  0.24165225672E+01 -0.10102451512E+02  0.18721407554E+02  0.51100000000E-03 0. -1.
        -11    1    4    4    0    0 -0.15299804375E+02 -0.28735795908E+01  0.94718256806E+01  0.18222430013E+02  0.51100000000E-03 0.  1.
        -12    1    4    4    0    0 -0.11550385714E+01 -0.91161205769E+01 -0.14803099680E+02  0.17423246787E+02  0.00000000000E+00 0.  1.
</event>
<event>
 8    1  0.1244838E-006  0.9118800E+02  0.7816164E-02  0.1184000E+00
        -11   -1    0    0    0    0  0.00000000000E+00  0.00000000000E+00  0.45593999997E+02  0.45594000000E+02  0.51100000000E-03 0. -1.
         11   -1    0    0    0    0 -0.00000000000E+00 -0.00000000000E+00 -0.45593999997E+02  0.45594000000E+02  0.51100000000E-03 0.  1.
         23    2    1    2    0    0  0.00000000000E+00  0.10269562978E-14 -0.71054273576E-14  0.91188000000E+02  0.91188000000E+02 0.  0.
    9900012    2    3    3    0    0  0.25375193908E+01  0.10238055871E+00  0.36733231849E+02  0.54367084633E+02  0.40000001037E+02 0.  0.
        -12    1    3    3    0    0 -0.25375193908E+01 -0.10238055871E+00 -0.36733231849E+02  0.36820915367E+02  0.00000000000E+00 0.  1.
         11    1    4    4    0    0  0.10727176023E+02 -0.12070699476E+02  0.18242720643E+02  0.24363311515E+02  0.51100000000E-03 0. -1.
        -11    1    4    4    0    0 -0.17054256811E+01  0.13418659382E+02  0.40412795281E+01  0.14117394832E+02  0.51100000000E-03 0.  1.
         12    1    4    4    0    0 -0.64842309512E+01 -0.12455793474E+01  0.14449231677E+02  0.15886378285E+02  0.00000000000E+00 0. -1.
</event>
<event>
 8    1  0.1244838E-006  0.9118800E+02  0.7816164E-02  0.1184000E+00
        -11   -1    0    0    0    0  0.00000000000E+00  0.00000000000E+00  0.45593999997E+02  0.45594000000E+02  0.51100000000E-03 0.  1.
         11   -1    0    0    0    0 -0.00000000000E+00 -0.00000000000E+00 -0.45593999997E+02  0.45594000000E+02  0.51100000000E-03 0. -1.
         23    2    1    2    0    0  0.00000000000E+00 -0.88817841970E-15  0.35527136788E-14  0.91188000000E+02  0.91188000000E+02 0.  0.
    9900012    2    3    3    0    0 -0.32594424188E+02 -0.40401635565E+01 -0.16645119799E+02  0.54367089870E+02  0.40000012977E+02 0.  0.
        -12    1    3    3    0    0  0.32594424188E+02  0.40401635565E+01  0.16645119799E+02  0.36820910130E+02  0.00000000000E+00 0.  1.
         11    1    4    4    0    0 -0.28544332870E+02 -0.57964169023E+01 -0.19907833545E+02  0.35280295132E+02  0.51100000000E-03 0. -1.
        -11    1    4    4    0    0  0.16550743042E+01 -0.39769441029E+01  0.84454703814E+01  0.94805762259E+01  0.51100000000E-03 0.  1.
        -12    1    4    4    0    0 -0.57051656219E+01  0.57331974488E+01 -0.51827566358E+01  0.96062185123E+01  0.00000000000E+00 0.  1.
</event>
<event>
 8    1  0.1244838E-006  0.9118800E+02  0.7816164E-02  0.1184000E+00
        -11   -1    0    0    0    0  0.00000000000E+00  0.00000000000E+00  0.45593999997E+02  0.45594000000E+02  0.51100000000E-03 0.  1.
         11   -1    0    0    0    0 -0.00000000000E+00 -0.00000000000E+00 -0.45593999997E+02  0.45594000000E+02  0.51100000000E-03 0. -1.
         23    2    1    2    0    0 -0.13322676296E-14  0.00000000000E+00 -0.17763568394E-14  0.91188000000E+02  0.91188000000E+02 0.  0.
    9900012    2    3    3    0    0 -0.28891062371E+01 -0.34688077633E+02 -0.12007080896E+02  0.54367086698E+02  0.40000005746E+02 0.  0.
        -12    1    3    3    0    0  0.28891062371E+01  0.34688077633E+02  0.12007080896E+02  0.36820913302E+02  0.00000000000E+00 0.  1.
         11    1    4    4    0    0  0.12993812521E+02 -0.21297011465E+01 -0.25380132920E+01  0.13409560117E+02  0.51100000000E-03 0. -1.
        -11    1    4    4    0    0 -0.12543780899E+02 -0.29233102299E+02 -0.13689686042E+02  0.34631318391E+02  0.51100000000E-03 0.  1.
         12    1    4    4    0    0 -0.33391378589E+01 -0.33252741874E+01  0.42206184383E+01  0.63262081900E+01  0.00000000000E+00 0. -1.
</event>
<event>
 8    1  0.1244838E-006  0.9118800E+02  0.7816164E-02  0.1184000E+00
        -11   -1    0    0    0    0  0.00000000000E+00  0.00000000000E+00  0.45593999997E+02  0.45594000000E+02  0.51100000000E-03 0.  1.
         11   -1    0    0    0    0 -0.00000000000E+00 -0.00000000000E+00 -0.45593999997E+02  0.45594000000E+02  0.51100000000E-03 0. -1.
         23    2    1    2    0    0  0.00000000000E+00  0.00000000000E+00  0.00000000000E+00  0.91188000000E+02  0.91188000000E+02 0.  0.
    9900012    2    3    3    0    0 -0.47861328907E+01 -0.10907385147E+02  0.34841073776E+02  0.54367101849E+02  0.40000040284E+02 0.  0.
         12    1    3    3    0    0  0.47861328907E+01  0.10907385147E+02 -0.34841073776E+02  0.36820898151E+02  0.00000000000E+00 0. -1.
         11    1    4    4    0    0 -0.70002785902E+01  0.52050972569E+00 -0.26406584667E+01  0.74998605397E+01  0.51100000000E-03 0. -1.
        -11    1    4    4    0    0  0.12455365817E+02  0.25968707789E+00  0.14388871491E+02  0.19032687620E+02  0.51100000000E-03 0.  1.
         12    1    4    4    0    0 -0.10241220117E+02 -0.11687581950E+02  0.23092860752E+02  0.27834553689E+02  0.00000000000E+00 0. -1.
</event>
<event>
 8    1  0.1244838E-006  0.9118800E+02  0.7816164E-02  0.1184000E+00
        -11   -1    0    0    0    0  0.00000000000E+00  0.00000000000E+00  0.45593999997E+02  0.45594000000E+02  0.51100000000E-03 0. -1.
         11   -1    0    0    0    0 -0.00000000000E+00 -0.00000000000E+00 -0.45593999997E+02  0.45594000000E+02  0.51100000000E-03 0.  1.
         23    2    1    2    0    0  0.00000000000E+00  0.00000000000E+00 -0.72164496601E-15  0.91188000000E+02  0.91188000000E+02 0.  0.
    9900012    2    3    3    0    0 -0.29156492702E+02 -0.22485733451E+02  0.26688785550E+00  0.54367075179E+02  0.39999979486E+02 0.  0.
         12    1    3    3    0    0  0.29156492702E+02  0.22485733451E+02 -0.26688785550E+00  0.36820924821E+02  0.00000000000E+00 0. -1.
         11    1    4    4    0    0 -0.63173012848E+01 -0.28579324441E+01  0.64110630615E+01  0.94433999819E+01  0.51100000000E-03 0. -1.
        -11    1    4    4    0    0 -0.22441420387E+01  0.60354756211E+01 -0.98945692626E+01  0.11805322555E+02  0.51100000000E-03 0.  1.
        -12    1    4    4    0    0 -0.20595049379E+02 -0.25663276628E+02  0.37503940566E+01  0.33118352643E+02  0.00000000000E+00 0.  1.
</event>
<event>
 8    1  0.1244838E-006  0.9118800E+02  0.7816164E-02  0.1184000E+00
        -11   -1    0    0    0    0  0.00000000000E+00  0.00000000000E+00  0.45593999997E+02  0.45594000000E+02  0.51100000000E-03 0. -1.
         11   -1    0    0    0    0 -0.00000000000E+00 -0.00000000000E+00 -0.45593999997E+02  0.45594000000E+02  0.51100000000E-03 0.  1.
         23    2    1    2    0    0  0.00000000000E+00 -0.17763568394E-14  0.88817841970E-15  0.91188000000E+02  0.91188000000E+02 0.  0.
    9900012    2    3    3    0    0 -0.34383213913E+02  0.12806593211E+02 -0.30922229035E+01  0.54367135383E+02  0.40000116733E+02 0.  0.
        -12    1    3    3    0    0  0.34383213913E+02 -0.12806593211E+02  0.30922229035E+01  0.36820864617E+02  0.00000000000E+00 0.  1.
         11    1    4    4    0    0 -0.22702616502E+02  0.18902629489E+02 -0.10972275452E+02  0.31513632391E+02  0.51100000000E-03 0. -1.
        -11    1    4    4    0    0 -0.15784530083E+02 -0.40102107354E+01  0.38493355787E+01  0.16734711374E+02  0.51100000000E-03 0.  1.
        -12    1    4    4    0    0  0.41039326730E+01 -0.20858255428E+01  0.40307169694E+01  0.61187916182E+01  0.00000000000E+00 0.  1.
</event>
<event>
 8    1  0.1244838E-006  0.9118800E+02  0.7816164E-02  0.1184000E+00
        -11   -1    0    0    0    0  0.00000000000E+00  0.00000000000E+00  0.45593999997E+02  0.45594000000E+02  0.51100000000E-03 0.  1.
         11   -1    0    0    0    0 -0.00000000000E+00 -0.00000000000E+00 -0.45593999997E+02  0.45594000000E+02  0.51100000000E-03 0. -1.
         23    2    1    2    0    0  0.17763568394E-14  0.00000000000E+00  0.30531133177E-15  0.91188000000E+02  0.91188000000E+02 0.  0.
    9900012    2    3    3    0    0  0.10487665493E+02 -0.35295598596E+02 -0.10256145843E+00  0.54367069450E+02  0.39999966425E+02 0.  0.
         12    1    3    3    0    0 -0.10487665493E+02  0.35295598596E+02  0.10256145843E+00  0.36820930550E+02  0.00000000000E+00 0. -1.
         11    1    4    4    0    0  0.18637875200E+02 -0.39258758357E+01 -0.43338585220E+00  0.19051790378E+02  0.51100000000E-03 0. -1.
        -11    1    4    4    0    0 -0.67740921646E+01 -0.31675458806E+02 -0.21488586470E+01  0.32462911283E+02  0.51100000000E-03 0.  1.
        -12    1    4    4    0    0 -0.13761175421E+01  0.30573604620E+00  0.24796830408E+01  0.28523677888E+01  0.00000000000E+00 0.  1.
</event>
<event>
 8    1  0.1244838E-006  0.9118800E+02  0.7816164E-02  0.1184000E+00
        -11   -1    0    0    0    0  0.00000000000E+00  0.00000000000E+00  0.45593999997E+02  0.45594000000E+02  0.51100000000E-03 0.  1.
         11   -1    0    0    0    0 -0.00000000000E+00 -0.00000000000E+00 -0.45593999997E+02  0.45594000000E+02  0.51100000000E-03 0. -1.
         23    2    1    2    0    0  0.00000000000E+00  0.00000000000E+00 -0.35527136788E-14  0.91188000000E+02  0.91188000000E+02 0.  0.
    9900012    2    3    3    0    0  0.20628463574E+02 -0.20971830783E+02  0.22145349885E+02  0.54367248822E+02  0.40000375337E+02 0.  0.
        -12    1    3    3    0    0 -0.20628463574E+02  0.20971830783E+02 -0.22145349885E+02  0.36820751178E+02  0.00000000000E+00 0.  1.
         11    1    4    4    0    0 -0.46132163946E+01 -0.14333023232E+00 -0.37339528212E+01  0.59367257803E+01  0.51100000000E-03 0. -1.
        -11    1    4    4    0    0  0.10103486529E+02 -0.18526205120E+02  0.36158981185E+01  0.21409704240E+02  0.51100000000E-03 0.  1.
         12    1    4    4    0    0  0.15138193440E+02 -0.23022954307E+01  0.22263404588E+02  0.27020818802E+02  0.00000000000E+00 0. -1.
</event>
<event>
 8    1  0.1244838E-006  0.9118800E+02  0.7816164E-02  0.1184000E+00
        -11   -1    0    0    0    0  0.00000000000E+00  0.00000000000E+00  0.45593999997E+02  0.45594000000E+02  0.51100000000E-03 0. -1.
         11   -1    0    0    0    0 -0.00000000000E+00 -0.00000000000E+00 -0.45593999997E+02  0.45594000000E+02  0.51100000000E-03 0.  1.
         23    2    1    2    0    0  0.00000000000E+00  0.88817841970E-15 -0.88817841970E-15  0.91188000000E+02  0.91188000000E+02 0.  0.
    9900012    2    3    3    0    0 -0.36132148268E+02 -0.21129105669E+01  0.67663746259E+01  0.54367077210E+02  0.39999984115E+02 0.  0.
        -12    1    3    3    0    0  0.36132148268E+02  0.21129105669E+01 -0.67663746259E+01  0.36820922790E+02  0.00000000000E+00 0.  1.
         11    1    4    4    0    0 -0.10000340652E+02 -0.43163723099E+01 -0.65727938038E+01  0.12721615531E+02  0.51100000000E-03 0. -1.
        -11    1    4    4    0    0 -0.68449742130E+01  0.67876290997E+01 -0.79940959244E+01  0.12523224452E+02  0.51100000000E-03 0.  1.
        -12    1    4    4    0    0 -0.19286833403E+02 -0.45841673566E+01  0.21333264354E+02  0.29122237226E+02  0.00000000000E+00 0.  1.
</event>
<event>
 8    1  0.1244838E-006  0.9118800E+02  0.7816164E-02  0.1184000E+00
        -11   -1    0    0    0    0  0.00000000000E+00  0.00000000000E+00  0.45593999997E+02  0.45594000000E+02  0.51100000000E-03 0.  1.
         11   -1    0    0    0    0 -0.00000000000E+00 -0.00000000000E+00 -0.45593999997E+02  0.45594000000E+02  0.51100000000E-03 0. -1.
         23    2    1    2    0    0  0.35527136788E-14  0.00000000000E+00  0.00000000000E+00  0.91188000000E+02  0.91188000000E+02 0.  0.
    9900012    2    3    3    0    0 -0.27000370277E+02 -0.82841821476E+01 -0.23624832282E+02  0.54367077018E+02  0.39999983677E+02 0.  0.
        -12    1    3    3    0    0  0.27000370277E+02  0.82841821476E+01  0.23624832282E+02  0.36820922982E+02  0.00000000000E+00 0.  1.
         11    1    4    4    0    0 -0.23277386757E+02 -0.12135233955E+02 -0.16826613258E+02  0.31180691965E+02  0.51100000000E-03 0. -1.
        -11    1    4    4    0    0 -0.75804630440E+01 -0.69103690676E+01 -0.56139949068E+01  0.11693312605E+02  0.51100000000E-03 0.  1.
        -12    1    4    4    0    0  0.38574795246E+01  0.10761420875E+02 -0.11842241166E+01  0.11493072448E+02  0.00000000000E+00 0.  1.
</event>
<event>
 8    1  0.1244838E-006  0.9118800E+02  0.7816164E-02  0.1184000E+00
        -11   -1    0    0    0    0  0.00000000000E+00  0.00000000000E+00  0.45593999997E+02  0.45594000000E+02  0.51100000000E-03 0.  1.
         11   -1    0    0    0    0 -0.00000000000E+00 -0.00000000000E+00 -0.45593999997E+02  0.45594000000E+02  0.51100000000E-03 0. -1.
         23    2    1    2    0    0 -0.88817841970E-15 -0.35527136788E-14 -0.35527136788E-14  0.91188000000E+02  0.91188000000E+02 0.  0.
    9900012    2    3    3    0    0  0.30277037146E+01  0.29063286797E+02 -0.22403978818E+02  0.54367083443E+02  0.39999998326E+02 0.  0.
        -12    1    3    3    0    0 -0.30277037146E+01 -0.29063286797E+02  0.22403978818E+02  0.36820916557E+02  0.00000000000E+00 0.  1.
         11    1    4    4    0    0 -0.10068527230E+02  0.13418808327E+02 -0.20917940820E+01  0.16906071697E+02  0.51100000000E-03 0. -1.
        -11    1    4    4    0    0  0.10119933352E+02  0.42588339398E+01  0.29695385165E+01  0.11374043997E+02  0.51100000000E-03 0.  1.
        -12    1    4    4    0    0  0.29762975927E+01  0.11385644530E+02 -0.23281723252E+02  0.26086967749E+02  0.00000000000E+00 0.  1.
</event>
<event>
 8    1  0.1244838E-006  0.9118800E+02  0.7816164E-02  0.1184000E+00
        -11   -1    0    0    0    0  0.00000000000E+00  0.00000000000E+00  0.45593999997E+02  0.45594000000E+02  0.51100000000E-03 0. -1.
         11   -1    0    0    0    0 -0.00000000000E+00 -0.00000000000E+00 -0.45593999997E+02  0.45594000000E+02  0.51100000000E-03 0.  1.
         23    2    1    2    0    0  0.00000000000E+00  0.00000000000E+00  0.00000000000E+00  0.91188000000E+02  0.91188000000E+02 0.  0.
    9900012    2    3    3    0    0  0.15710227226E+02  0.30195083862E+02 -0.14043664896E+02  0.54367097612E+02  0.40000030627E+02 0.  0.
         12    1    3    3    0    0 -0.15710227226E+02 -0.30195083862E+02  0.14043664896E+02  0.36820902388E+02  0.00000000000E+00 0. -1.
         11    1    4    4    0    0  0.18846907434E+02  0.15132420495E+02 -0.12494287706E+02  0.27208515127E+02  0.51100000000E-03 0. -1.
        -11    1    4    4    0    0  0.87796976282E+01  0.96384880048E+01 -0.43977875615E+01  0.13759508609E+02  0.51100000000E-03 0.  1.
         12    1    4    4    0    0 -0.11916377837E+02  0.54241753622E+01  0.28484103710E+01  0.13399073877E+02  0.00000000000E+00 0. -1.
</event>
<event>
 8    1  0.1244838E-006  0.9118800E+02  0.7816164E-02  0.1184000E+00
        -11   -1    0    0    0    0  0.00000000000E+00  0.00000000000E+00  0.45593999997E+02  0.45594000000E+02  0.51100000000E-03 0. -1.
         11   -1    0    0    0    0 -0.00000000000E+00 -0.00000000000E+00 -0.45593999997E+02  0.45594000000E+02  0.51100000000E-03 0.  1.
         23    2    1    2    0    0  0.00000000000E+00  0.00000000000E+00 -0.35527136788E-14  0.91188000000E+02  0.91188000000E+02 0.  0.
    9900012    2    3    3    0    0  0.30534018403E+02  0.99356039815E+01  0.18020516356E+02  0.54367061445E+02  0.39999948176E+02 0.  0.
        -12    1    3    3    0    0 -0.30534018403E+02 -0.99356039815E+01 -0.18020516356E+02  0.36820938555E+02  0.00000000000E+00 0.  1.
         11    1    4    4    0    0  0.18522798996E+02  0.46782033680E+01  0.28587203618E+02  0.34383249997E+02  0.51100000000E-03 0. -1.
        -11    1    4    4    0    0  0.29850352120E+00  0.42136034581E+01 -0.60679956793E+01  0.73935194786E+01  0.51100000000E-03 0.  1.
         12    1    4    4    0    0  0.11712715885E+02  0.10437971554E+01 -0.44986915826E+01  0.12590291969E+02  0.00000000000E+00 0. -1.
</event>
<event>
 8    1  0.1244838E-006  0.9118800E+02  0.7816164E-02  0.1184000E+00
        -11   -1    0    0    0    0  0.00000000000E+00  0.00000000000E+00  0.45593999997E+02  0.45594000000E+02  0.51100000000E-03 0.  1.
         11   -1    0    0    0    0 -0.00000000000E+00 -0.00000000000E+00 -0.45593999997E+02  0.45594000000E+02  0.51100000000E-03 0. -1.
         23    2    1    2    0    0  0.00000000000E+00  0.11102230246E-15  0.00000000000E+00  0.91188000000E+02  0.91188000000E+02 0.  0.
    9900012    2    3    3    0    0  0.29334313870E+02  0.35701442191E+00  0.22251982114E+02  0.54367080165E+02  0.39999990852E+02 0.  0.
         12    1    3    3    0    0 -0.29334313870E+02 -0.35701442191E+00 -0.22251982114E+02  0.36820919835E+02  0.00000000000E+00 0. -1.
         11    1    4    4    0    0  0.64191588245E+00 -0.83232375089E+01  0.14982176774E+01  0.84813321536E+01  0.51100000000E-03 0. -1.
        -11    1    4    4    0    0  0.26164135936E+02  0.70790120905E+01  0.23126245361E+01  0.27203357403E+02  0.51100000000E-03 0.  1.
        -12    1    4    4    0    0  0.25282620507E+01  0.16012398403E+01  0.18441139900E+02  0.18682390608E+02  0.00000000000E+00 0.  1.
</event>
<event>
 8    1  0.1244838E-006  0.9118800E+02  0.7816164E-02  0.1184000E+00
        -11   -1    0    0    0    0  0.00000000000E+00  0.00000000000E+00  0.45593999997E+02  0.45594000000E+02  0.51100000000E-03 0.  1.
         11   -1    0    0    0    0 -0.00000000000E+00 -0.00000000000E+00 -0.45593999997E+02  0.45594000000E+02  0.51100000000E-03 0. -1.
         23    2    1    2    0    0 -0.12212453271E-14  0.00000000000E+00  0.00000000000E+00  0.91188000000E+02  0.91188000000E+02 0.  0.
    9900012    2    3    3    0    0  0.69850409054E+00 -0.12519577805E+02 -0.34620105249E+02  0.54367089855E+02  0.40000012944E+02 0.  0.
        -12    1    3    3    0    0 -0.69850409054E+00  0.12519577805E+02  0.34620105249E+02  0.36820910145E+02  0.00000000000E+00 0.  1.
         11    1    4    4    0    0  0.10831189486E+02 -0.23591332940E+01 -0.14924057558E+02  0.18590526347E+02  0.51100000000E-03 0. -1.
        -11    1    4    4    0    0 -0.68240303591E+01  0.35996527608E+01 -0.20191798548E+02  0.21615587413E+02  0.51100000000E-03 0.  1.
        -12    1    4    4    0    0 -0.33086550364E+01 -0.13760097272E+02  0.49575085647E+00  0.14160976096E+02  0.00000000000E+00 0.  1.
</event>
<event>
 8    1  0.1244838E-006  0.9118800E+02  0.7816164E-02  0.1184000E+00
        -11   -1    0    0    0    0  0.00000000000E+00  0.00000000000E+00  0.45593999997E+02  0.45594000000E+02  0.51100000000E-03 0. -1.
         11   -1    0    0    0    0 -0.00000000000E+00 -0.00000000000E+00 -0.45593999997E+02  0.45594000000E+02  0.51100000000E-03 0.  1.
         23    2    1    2    0    0 -0.35527136788E-14  0.00000000000E+00  0.00000000000E+00  0.91188000000E+02  0.91188000000E+02 0.  0.
    9900012    2    3    3    0    0  0.17934670672E+02 -0.23577286113E+02 -0.21868677791E+02  0.54367083377E+02  0.39999998175E+02 0.  0.
         12    1    3    3    0    0 -0.17934670672E+02  0.23577286113E+02  0.21868677791E+02  0.36820916623E+02  0.00000000000E+00 0. -1.
         11    1    4    4    0    0  0.24360835587E+02 -0.83443426165E+01 -0.14916621244E+02  0.29758762639E+02  0.51100000000E-03 0. -1.
        -11    1    4    4    0    0  0.20412101271E+01 -0.14872736137E+02 -0.56179912776E+01  0.16028931506E+02  0.51100000000E-03 0.  1.
         12    1    4    4    0    0 -0.84673750424E+01 -0.36020736044E+00 -0.13340652694E+01  0.85793892320E+01  0.00000000000E+00 0. -1.
</event>
<event>
 8    1  0.1244838E-006  0.9118800E+02  0.7816164E-02  0.1184000E+00
        -11   -1    0    0    0    0  0.00000000000E+00  0.00000000000E+00  0.45593999997E+02  0.45594000000E+02  0.51100000000E-03 0. -1.
         11   -1    0    0    0    0 -0.00000000000E+00 -0.00000000000E+00 -0.45593999997E+02  0.45594000000E+02  0.51100000000E-03 0.  1.
         23    2    1    2    0    0 -0.17763568394E-14  0.88817841970E-15  0.00000000000E+00  0.91188000000E+02  0.91188000000E+02 0.  0.
    9900012    2    3    3    0    0 -0.10103703232E+02 -0.54896453125E+01  0.34979406294E+02  0.54367083535E+02  0.39999998535E+02 0.  0.
        -12    1    3    3    0    0  0.10103703232E+02  0.54896453125E+01 -0.34979406294E+02  0.36820916465E+02  0.00000000000E+00 0.  1.
         11    1    4    4    0    0  0.51641344084E+01 -0.12181103811E+02  0.23993097560E+02  0.27399202635E+02  0.51100000000E-03 0. -1.
        -11    1    4    4    0    0 -0.19027096979E+02  0.33900173377E+01  0.10352327764E+02  0.21924719551E+02  0.51100000000E-03 0.  1.
        -12    1    4    4    0    0  0.37592593389E+01  0.33014411614E+01  0.63398097008E+00  0.50431613488E+01  0.00000000000E+00 0.  1.
</event>
<event>
 8    1  0.1244838E-006  0.9118800E+02  0.7816164E-02  0.1184000E+00
        -11   -1    0    0    0    0  0.00000000000E+00  0.00000000000E+00  0.45593999997E+02  0.45594000000E+02  0.51100000000E-03 0.  1.
         11   -1    0    0    0    0 -0.00000000000E+00 -0.00000000000E+00 -0.45593999997E+02  0.45594000000E+02  0.51100000000E-03 0. -1.
         23    2    1    2    0    0 -0.35527136788E-14  0.35527136788E-14  0.00000000000E+00  0.91188000000E+02  0.91188000000E+02 0.  0.
    9900012    2    3    3    0    0 -0.23619820093E+02 -0.23236487108E+02  0.16060787016E+02  0.54367094065E+02  0.40000022540E+02 0.  0.
         12    1    3    3    0    0  0.23619820093E+02  0.23236487108E+02 -0.16060787016E+02  0.36820905935E+02  0.00000000000E+00 0. -1.
         11    1    4    4    0    0 -0.14242782802E+02 -0.55002496163E+01  0.23344008103E+02  0.27893589270E+02  0.51100000000E-03 0. -1.
        -11    1    4    4    0    0 -0.11822574893E+02 -0.15975247595E+02 -0.14735099921E+01  0.19928699024E+02  0.51100000000E-03 0.  1.
         12    1    4    4    0    0  0.24455376021E+01 -0.17609898961E+01 -0.58097110949E+01  0.65448057713E+01  0.00000000000E+00 0. -1.
</event>
<event>
 8    1  0.1244838E-006  0.9118800E+02  0.7816164E-02  0.1184000E+00
        -11   -1    0    0    0    0  0.00000000000E+00  0.00000000000E+00  0.45593999997E+02  0.45594000000E+02  0.51100000000E-03 0.  1.
         11   -1    0    0    0    0 -0.00000000000E+00 -0.00000000000E+00 -0.45593999997E+02  0.45594000000E+02  0.51100000000E-03 0. -1.
         23    2    1    2    0    0 -0.26645352591E-14  0.71054273576E-14  0.88817841970E-15  0.91188000000E+02  0.91188000000E+02 0.  0.
    9900012    2    3    3    0    0  0.34994015492E+01 -0.36513208449E+02 -0.32115696500E+01  0.54367158320E+02  0.40000169021E+02 0.  0.
         12    1    3    3    0    0 -0.34994015492E+01  0.36513208449E+02  0.32115696500E+01  0.36820841680E+02  0.00000000000E+00 0. -1.
         11    1    4    4    0    0 -0.13932102237E+02 -0.17943532544E+02 -0.88364632431E+01  0.24375334168E+02  0.51100000000E-03 0. -1.
        -11    1    4    4    0    0 -0.22753893630E+01 -0.40203853849E+01 -0.75001420692E+00  0.46801086492E+01  0.51100000000E-03 0.  1.
        -12    1    4    4    0    0  0.19706893149E+02 -0.14549290520E+02  0.63749078001E+01  0.25311715503E+02  0.00000000000E+00 0.  1.
</event>
<event>
 8    1  0.1244838E-006  0.9118800E+02  0.7816164E-02  0.1184000E+00
        -11   -1    0    0    0    0  0.00000000000E+00  0.00000000000E+00  0.45593999997E+02  0.45594000000E+02  0.51100000000E-03 0. -1.
         11   -1    0    0    0    0 -0.00000000000E+00 -0.00000000000E+00 -0.45593999997E+02  0.45594000000E+02  0.51100000000E-03 0.  1.
         23    2    1    2    0    0 -0.88817841970E-15  0.00000000000E+00  0.00000000000E+00  0.91188000000E+02  0.91188000000E+02 0.  0.
    9900012    2    3    3    0    0  0.49276050489E+01 -0.10080580011E+02  0.35069625613E+02  0.54367108844E+02  0.40000056233E+02 0.  0.
        -12    1    3    3    0    0 -0.49276050489E+01  0.10080580011E+02 -0.35069625613E+02  0.36820891156E+02  0.00000000000E+00 0.  1.
         11    1    4    4    0    0 -0.14242797134E+02 -0.26666563186E+01  0.13961995296E+02  0.20122267244E+02  0.51100000000E-03 0. -1.
        -11    1    4    4    0    0  0.20519299479E+01  0.86973823474E+00  0.13628649199E+02  0.13809668365E+02  0.51100000000E-03 0.  1.
        -12    1    4    4    0    0  0.17118472235E+02 -0.82836619271E+01  0.74789811173E+01  0.20435173235E+02  0.00000000000E+00 0.  1.
</event>
<event>
 8    1  0.1244838E-006  0.9118800E+02  0.7816164E-02  0.1184000E+00
        -11   -1    0    0    0    0  0.00000000000E+00  0.00000000000E+00  0.45593999997E+02  0.45594000000E+02  0.51100000000E-03 0.  1.
         11   -1    0    0    0    0 -0.00000000000E+00 -0.00000000000E+00 -0.45593999997E+02  0.45594000000E+02  0.51100000000E-03 0. -1.
         23    2    1    2    0    0 -0.35527136788E-14  0.00000000000E+00  0.00000000000E+00  0.91188000000E+02  0.91188000000E+02 0.  0.
    9900012    2    3    3    0    0  0.28970051635E+02 -0.16646456065E+02  0.15472952212E+02  0.54367073322E+02  0.39999975253E+02 0.  0.
         12    1    3    3    0    0 -0.28970051635E+02  0.16646456065E+02 -0.15472952212E+02  0.36820926678E+02  0.00000000000E+00 0. -1.
         11    1    4    4    0    0  0.23697043253E+01  0.49673973544E+01  0.43253335006E+01  0.69999318010E+01  0.51100000000E-03 0. -1.
        -11    1    4    4    0    0 -0.36532736754E+01 -0.94276810750E+01  0.10737843811E+02  0.14748859921E+02  0.51100000000E-03 0.  1.
        -12    1    4    4    0    0  0.30253620985E+02 -0.12186172345E+02  0.40977490066E+00  0.32618281600E+02  0.00000000000E+00 0.  1.
</event>
<event>
 8    1  0.1244838E-006  0.9118800E+02  0.7816164E-02  0.1184000E+00
        -11   -1    0    0    0    0  0.00000000000E+00  0.00000000000E+00  0.45593999997E+02  0.45594000000E+02  0.51100000000E-03 0. -1.
         11   -1    0    0    0    0 -0.00000000000E+00 -0.00000000000E+00 -0.45593999997E+02  0.45594000000E+02  0.51100000000E-03 0.  1.
         23    2    1    2    0    0 -0.71054273576E-14 -0.35527136788E-14 -0.35527136788E-14  0.91188000000E+02  0.91188000000E+02 0.  0.
    9900012    2    3    3    0    0 -0.19208396709E+02 -0.22474319336E+02 -0.21948181090E+02  0.54367079494E+02  0.39999989322E+02 0.  0.
         12    1    3    3    0    0  0.19208396709E+02  0.22474319336E+02  0.21948181090E+02  0.36820920506E+02  0.00000000000E+00 0. -1.
         11    1    4    4    0    0 -0.96592316296E+00 -0.71417242192E+01 -0.62731948393E+01  0.95545908407E+01  0.51100000000E-03 0. -1.
        -11    1    4    4    0    0 -0.17224761729E+02 -0.19244473675E+02 -0.24190230507E+02  0.35386571407E+02  0.51100000000E-03 0.  1.
         12    1    4    4    0    0 -0.10177118167E+01  0.39118785576E+01  0.85152442563E+01  0.94259172464E+01  0.00000000000E+00 0. -1.
</event>
<event>
 8    1  0.1244838E-006  0.9118800E+02  0.7816164E-02  0.1184000E+00
        -11   -1    0    0    0    0  0.00000000000E+00  0.00000000000E+00  0.45593999997E+02  0.45594000000E+02  0.51100000000E-03 0. -1.
         11   -1    0    0    0    0 -0.00000000000E+00 -0.00000000000E+00 -0.45593999997E+02  0.45594000000E+02  0.51100000000E-03 0.  1.
         23    2    1    2    0    0  0.00000000000E+00  0.35527136788E-14 -0.35527136788E-14  0.91188000000E+02  0.91188000000E+02 0.  0.
    9900012    2    3    3    0    0  0.21017974720E+02 -0.25441323422E+02 -0.16332898663E+02  0.54367085053E+02  0.40000001996E+02 0.  0.
         12    1    3    3    0    0 -0.21017974720E+02  0.25441323422E+02  0.16332898663E+02  0.36820914947E+02  0.00000000000E+00 0. -1.
         11    1    4    4    0    0 -0.78442659061E+01  0.18849428902E-01  0.50805191862E+01  0.93458299990E+01  0.51100000000E-03 0. -1.
        -11    1    4    4    0    0  0.11176263356E+02 -0.80398479604E+01 -0.29419576675E+01  0.14078463446E+02  0.51100000000E-03 0.  1.
         12    1    4    4    0    0  0.17685977270E+02 -0.17420324891E+02 -0.18471460181E+02  0.30942791608E+02  0.00000000000E+00 0. -1.
</event>
<event>
 8    1  0.1244838E-006  0.9118800E+02  0.7816164E-02  0.1184000E+00
        -11   -1    0    0    0    0  0.00000000000E+00  0.00000000000E+00  0.45593999997E+02  0.45594000000E+02  0.51100000000E-03 0. -1.
         11   -1    0    0    0    0 -0.00000000000E+00 -0.00000000000E+00 -0.45593999997E+02  0.45594000000E+02  0.51100000000E-03 0.  1.
         23    2    1    2    0    0 -0.17763568394E-14 -0.35527136788E-14  0.35527136788E-14  0.91188000000E+02  0.91188000000E+02 0.  0.
    9900012    2    3    3    0    0 -0.13297977189E+02 -0.18041164882E+02  0.29214070016E+02  0.54367058750E+02  0.39999942032E+02 0.  0.
        -12    1    3    3    0    0  0.13297977189E+02  0.18041164882E+02 -0.29214070016E+02  0.36820941250E+02  0.00000000000E+00 0.  1.
         11    1    4    4    0    0 -0.74938432605E+01  0.45265478631E+01  0.49181600786E+01  0.10041694139E+02  0.51100000000E-03 0. -1.
        -11    1    4    4    0    0 -0.12445180857E+02 -0.75294847965E+01 -0.52381338766E+00  0.14555069515E+02  0.51100000000E-03 0.  1.
         12    1    4    4    0    0  0.66410469283E+01 -0.15038227949E+02  0.24819723325E+02  0.29770295096E+02  0.00000000000E+00 0. -1.
</event>
<event>
 8    1  0.1244838E-006  0.9118800E+02  0.7816164E-02  0.1184000E+00
        -11   -1    0    0    0    0  0.00000000000E+00  0.00000000000E+00  0.45593999997E+02  0.45594000000E+02  0.51100000000E-03 0.  1.
         11   -1    0    0    0    0 -0.00000000000E+00 -0.00000000000E+00 -0.45593999997E+02  0.45594000000E+02  0.51100000000E-03 0. -1.
         23    2    1    2    0    0  0.00000000000E+00 -0.88817841970E-15  0.00000000000E+00  0.91188000000E+02  0.91188000000E+02 0.  0.
    9900012    2    3    3    0    0 -0.25305553238E+02 -0.40970108001E+01  0.26431483002E+02  0.54367084532E+02  0.40000000808E+02 0.  0.
         12    1    3    3    0    0  0.25305553238E+02  0.40970108001E+01 -0.26431483002E+02  0.36820915468E+02  0.00000000000E+00 0. -1.
         11    1    4    4    0    0 -0.63617437360E+00 -0.11375905335E+02 -0.34843962538E+01  0.11914569129E+02  0.51100000000E-03 0. -1.
        -11    1    4    4    0    0 -0.59752162293E+01 -0.17940983979E+01  0.16697549589E+02  0.17824986973E+02  0.51100000000E-03 0.  1.
        -12    1    4    4    0    0 -0.18694162635E+02  0.90729929326E+01  0.13218329667E+02  0.24627528430E+02  0.00000000000E+00 0.  1.
</event>
<event>
 8    1  0.1244838E-006  0.9118800E+02  0.7816164E-02  0.1184000E+00
        -11   -1    0    0    0    0  0.00000000000E+00  0.00000000000E+00  0.45593999997E+02  0.45594000000E+02  0.51100000000E-03 0.  1.
         11   -1    0    0    0    0 -0.00000000000E+00 -0.00000000000E+00 -0.45593999997E+02  0.45594000000E+02  0.51100000000E-03 0. -1.
         23    2    1    2    0    0  0.88817841970E-15  0.00000000000E+00  0.35527136788E-14  0.91188000000E+02  0.91188000000E+02 0.  0.
    9900012    2    3    3    0    0  0.65164314758E+01  0.25951831976E+02 -0.25294627237E+02  0.54367087068E+02  0.40000006589E+02 0.  0.
        -12    1    3    3    0    0 -0.65164314758E+01 -0.25951831976E+02  0.25294627237E+02  0.36820912932E+02  0.00000000000E+00 0.  1.
         11    1    4    4    0    0 -0.21710721756E+01  0.48231213638E+01 -0.14826818842E+01  0.54931229654E+01  0.51100000000E-03 0. -1.
        -11    1    4    4    0    0  0.70030020293E+01  0.24598026258E+01 -0.28583451988E+02  0.29531447547E+02  0.51100000000E-03 0.  1.
         12    1    4    4    0    0  0.16845016221E+01  0.18668907987E+02  0.47715066360E+01  0.19342516556E+02  0.00000000000E+00 0. -1.
</event>
<event>
 8    1  0.1244838E-006  0.9118800E+02  0.7816164E-02  0.1184000E+00
        -11   -1    0    0    0    0  0.00000000000E+00  0.00000000000E+00  0.45593999997E+02  0.45594000000E+02  0.51100000000E-03 0.  1.
         11   -1    0    0    0    0 -0.00000000000E+00 -0.00000000000E+00 -0.45593999997E+02  0.45594000000E+02  0.51100000000E-03 0. -1.
         23    2    1    2    0    0  0.35527136788E-14  0.00000000000E+00 -0.35527136788E-14  0.91188000000E+02  0.91188000000E+02 0.  0.
    9900012    2    3    3    0    0  0.27631362772E+02 -0.17167801337E+02  0.17249756222E+02  0.54367086091E+02  0.40000004361E+02 0.  0.
         12    1    3    3    0    0 -0.27631362772E+02  0.17167801337E+02 -0.17249756222E+02  0.36820913909E+02  0.00000000000E+00 0. -1.
         11    1    4    4    0    0  0.12115000634E+02 -0.12046483104E+02 -0.37998103586E+00  0.17089042729E+02  0.51100000000E-03 0. -1.
        -11    1    4    4    0    0  0.10937207089E+02 -0.75955259174E+01  0.24958831759E+02  0.28288828111E+02  0.51100000000E-03 0.  1.
        -12    1    4    4    0    0  0.45791550502E+01  0.24742076849E+01 -0.73290945004E+01  0.89892152515E+01  0.00000000000E+00 0.  1.
</event>
<event>
 8    1  0.1244838E-006  0.9118800E+02  0.7816164E-02  0.1184000E+00
        -11   -1    0    0    0    0  0.00000000000E+00  0.00000000000E+00  0.45593999997E+02  0.45594000000E+02  0.51100000000E-03 0. -1.
         11   -1    0    0    0    0 -0.00000000000E+00 -0.00000000000E+00 -0.45593999997E+02  0.45594000000E+02  0.51100000000E-03 0.  1.
         23    2    1    2    0    0 -0.88817841970E-15  0.16653345369E-15  0.71054273576E-14  0.91188000000E+02  0.91188000000E+02 0.  0.
    9900012    2    3    3    0    0 -0.70141742146E+01  0.29814118101E+00  0.36145425225E+02  0.54367091635E+02  0.40000017001E+02 0.  0.
        -12    1    3    3    0    0  0.70141742146E+01 -0.29814118101E+00 -0.36145425225E+02  0.36820908365E+02  0.00000000000E+00 0.  1.
         11    1    4    4    0    0  0.59661235851E+01 -0.24725997637E+01  0.33811562941E+02  0.34422814658E+02  0.51100000000E-03 0.  1.
        -11    1    4    4    0    0 -0.18143986431E+00  0.52616172502E+01  0.42489049410E+01  0.67654068592E+01  0.51100000000E-03 0. -1.
        -12    1    4    4    0    0 -0.12798857935E+02 -0.24908763055E+01 -0.19150426562E+01  0.13178870118E+02  0.00000000000E+00 0.  1.
</event>
<event>
 8    1  0.1244838E-006  0.9118800E+02  0.7816164E-02  0.1184000E+00
        -11   -1    0    0    0    0  0.00000000000E+00  0.00000000000E+00  0.45593999997E+02  0.45594000000E+02  0.51100000000E-03 0.  1.
         11   -1    0    0    0    0 -0.00000000000E+00 -0.00000000000E+00 -0.45593999997E+02  0.45594000000E+02  0.51100000000E-03 0. -1.
         23    2    1    2    0    0 -0.35527136788E-14  0.88817841970E-15  0.00000000000E+00  0.91188000000E+02  0.91188000000E+02 0.  0.
    9900012    2    3    3    0    0 -0.16734598905E+02 -0.58386150439E+01  0.32274488544E+02  0.54367097826E+02  0.40000031114E+02 0.  0.
         12    1    3    3    0    0  0.16734598905E+02  0.58386150439E+01 -0.32274488544E+02  0.36820902174E+02  0.00000000000E+00 0. -1.
         11    1    4    4    0    0 -0.10235673044E+01 -0.17052662938E+02  0.74733178870E+01  0.18646487171E+02  0.51100000000E-03 0. -1.
        -11    1    4    4    0    0 -0.18686014296E+02  0.11575585661E+02  0.18449660354E+02  0.28697583193E+02  0.51100000000E-03 0.  1.
        -12    1    4    4    0    0  0.29749826959E+01 -0.36153776684E+00  0.63515103033E+01  0.70230274619E+01  0.00000000000E+00 0.  1.
</event>
<event>
 8    1  0.1244838E-006  0.9118800E+02  0.7816164E-02  0.1184000E+00
        -11   -1    0    0    0    0  0.00000000000E+00  0.00000000000E+00  0.45593999997E+02  0.45594000000E+02  0.51100000000E-03 0. -1.
         11   -1    0    0    0    0 -0.00000000000E+00 -0.00000000000E+00 -0.45593999997E+02  0.45594000000E+02  0.51100000000E-03 0.  1.
         23    2    1    2    0    0 -0.17763568394E-14  0.00000000000E+00  0.00000000000E+00  0.91188000000E+02  0.91188000000E+02 0.  0.
    9900012    2    3    3    0    0 -0.12271186312E+02 -0.17778911184E+02 -0.29817650175E+02  0.54367299866E+02  0.40000491702E+02 0.  0.
         12    1    3    3    0    0  0.12271186312E+02  0.17778911184E+02  0.29817650175E+02  0.36820700134E+02  0.00000000000E+00 0. -1.
         11    1    4    4    0    0 -0.59817534702E+00 -0.64413193104E+01  0.30919603534E+01  0.71699809827E+01  0.51100000000E-03 0.  1.
        -11    1    4    4    0    0  0.96120620000E+01  0.13580394395E+00 -0.10382162602E+02  0.14149186520E+02  0.51100000000E-03 0. -1.
        -12    1    4    4    0    0 -0.21285072965E+02 -0.11473395818E+02 -0.22527447926E+02  0.33048132364E+02  0.00000000000E+00 0.  1.
</event>
<event>
 8    1  0.1244838E-006  0.9118800E+02  0.7816164E-02  0.1184000E+00
        -11   -1    0    0    0    0  0.00000000000E+00  0.00000000000E+00  0.45593999997E+02  0.45594000000E+02  0.51100000000E-03 0. -1.
         11   -1    0    0    0    0 -0.00000000000E+00 -0.00000000000E+00 -0.45593999997E+02  0.45594000000E+02  0.51100000000E-03 0.  1.
         23    2    1    2    0    0  0.88817841970E-15 -0.35527136788E-14  0.00000000000E+00  0.91188000000E+02  0.91188000000E+02 0.  0.
    9900012    2    3    3    0    0  0.50640777131E+01 -0.25934972937E+02  0.25642078830E+02  0.54367028923E+02  0.39999874035E+02 0.  0.
        -12    1    3    3    0    0 -0.50640777131E+01  0.25934972937E+02 -0.25642078830E+02  0.36820971077E+02  0.00000000000E+00 0.  1.
         11    1    4    4    0    0  0.17656783838E+01 -0.24811552156E+01  0.11050356267E+01  0.32395764162E+01  0.51100000000E-03 0.  1.
        -11    1    4    4    0    0  0.12353678472E+02 -0.91520706940E+01 -0.57634823320E+01  0.16419241719E+02  0.51100000000E-03 0. -1.
        -12    1    4    4    0    0 -0.90552791426E+01 -0.14301747028E+02  0.30300525535E+02  0.34708210788E+02  0.00000000000E+00 0.  1.
</event>
<event>
 8    1  0.1244838E-006  0.9118800E+02  0.7816164E-02  0.1184000E+00
        -11   -1    0    0    0    0  0.00000000000E+00  0.00000000000E+00  0.45593999997E+02  0.45594000000E+02  0.51100000000E-03 0.  1.
         11   -1    0    0    0    0 -0.00000000000E+00 -0.00000000000E+00 -0.45593999997E+02  0.45594000000E+02  0.51100000000E-03 0. -1.
         23    2    1    2    0    0 -0.35527136788E-14  0.00000000000E+00  0.00000000000E+00  0.91188000000E+02  0.91188000000E+02 0.  0.
    9900012    2    3    3    0    0 -0.22328372292E+02  0.15380668310E+01 -0.29237948925E+02  0.54367088602E+02  0.40000010086E+02 0.  0.
        -12    1    3    3    0    0  0.22328372292E+02 -0.15380668310E+01  0.29237948925E+02  0.36820911398E+02  0.00000000000E+00 0.  1.
         11    1    4    4    0    0  0.30142895846E+01  0.65764204832E+01 -0.94341853862E+01  0.11888612292E+02  0.51100000000E-03 0. -1.
        -11    1    4    4    0    0 -0.66757435024E+01 -0.13504348224E+01  0.68959002812E+01  0.96924025127E+01  0.51100000000E-03 0.  1.
         12    1    4    4    0    0 -0.18666918375E+02 -0.36879188298E+01 -0.26699663821E+02  0.32786073797E+02  0.00000000000E+00 0. -1.
</event>
<event>
 8    1  0.1244838E-006  0.9118800E+02  0.7816164E-02  0.1184000E+00
        -11   -1    0    0    0    0  0.00000000000E+00  0.00000000000E+00  0.45593999997E+02  0.45594000000E+02  0.51100000000E-03 0. -1.
         11   -1    0    0    0    0 -0.00000000000E+00 -0.00000000000E+00 -0.45593999997E+02  0.45594000000E+02  0.51100000000E-03 0.  1.
         23    2    1    2    0    0 -0.35527136788E-14  0.00000000000E+00  0.00000000000E+00  0.91188000000E+02  0.91188000000E+02 0.  0.
    9900012    2    3    3    0    0  0.13948532830E+02 -0.20629196215E+02  0.27122910412E+02  0.54367114978E+02  0.40000070215E+02 0.  0.
        -12    1    3    3    0    0 -0.13948532830E+02  0.20629196215E+02 -0.27122910412E+02  0.36820885022E+02  0.00000000000E+00 0.  1.
         11    1    4    4    0    0  0.46836709913E+01 -0.13918895686E+02  0.73652872999E+01  0.16429238824E+02  0.51100000000E-03 0. -1.
        -11    1    4    4    0    0  0.13238735150E+02 -0.99487137064E+01 -0.96722167853E+00  0.16588445702E+02  0.51100000000E-03 0.  1.
         12    1    4    4    0    0 -0.39738733112E+01  0.32384131777E+01  0.20724844791E+02  0.21349430452E+02  0.00000000000E+00 0. -1.
</event>
<event>
 8    1  0.1244838E-006  0.9118800E+02  0.7816164E-02  0.1184000E+00
        -11   -1    0    0    0    0  0.00000000000E+00  0.00000000000E+00  0.45593999997E+02  0.45594000000E+02  0.51100000000E-03 0.  1.
         11   -1    0    0    0    0 -0.00000000000E+00 -0.00000000000E+00 -0.45593999997E+02  0.45594000000E+02  0.51100000000E-03 0. -1.
         23    2    1    2    0    0  0.35527136788E-14  0.00000000000E+00  0.00000000000E+00  0.91188000000E+02  0.91188000000E+02 0.  0.
    9900012    2    3    3    0    0  0.27679451646E+02 -0.66047956109E+01 -0.23366801637E+02  0.54367044184E+02  0.39999908826E+02 0.  0.
        -12    1    3    3    0    0 -0.27679451646E+02  0.66047956109E+01  0.23366801637E+02  0.36820955816E+02  0.00000000000E+00 0.  1.
         11    1    4    4    0    0  0.55727194594E-01 -0.65179712027E+00 -0.11215903026E+02  0.11234964439E+02  0.51100000000E-03 0. -1.
        -11    1    4    4    0    0  0.69958002724E+01 -0.10009269116E+02 -0.17593254443E+02  0.21416098894E+02  0.51100000000E-03 0.  1.
         12    1    4    4    0    0  0.20627924179E+02  0.40562706251E+01  0.54423558315E+01  0.21715980851E+02  0.00000000000E+00 0. -1.
</event>
<event>
 8    1  0.1244838E-006  0.9118800E+02  0.7816164E-02  0.1184000E+00
        -11   -1    0    0    0    0  0.00000000000E+00  0.00000000000E+00  0.45593999997E+02  0.45594000000E+02  0.51100000000E-03 0. -1.
         11   -1    0    0    0    0 -0.00000000000E+00 -0.00000000000E+00 -0.45593999997E+02  0.45594000000E+02  0.51100000000E-03 0.  1.
         23    2    1    2    0    0 -0.88817841970E-15 -0.35527136788E-14  0.00000000000E+00  0.91188000000E+02  0.91188000000E+02 0.  0.
    9900012    2    3    3    0    0  0.37639472102E+01  0.25155377365E+02  0.26623671627E+02  0.54367079318E+02  0.39999988920E+02 0.  0.
        -12    1    3    3    0    0 -0.37639472102E+01 -0.25155377365E+02 -0.26623671627E+02  0.36820920682E+02  0.00000000000E+00 0.  1.
         11    1    4    4    0    0 -0.75733798378E+01  0.52864321622E+01 -0.39891356488E+01  0.10060598921E+02  0.51100000000E-03 0.  1.
        -11    1    4    4    0    0  0.10106064297E+02  0.14975899639E+01  0.22021276755E+01  0.10451061086E+02  0.51100000000E-03 0. -1.
         12    1    4    4    0    0  0.12312627511E+01  0.18371355239E+02  0.28410679600E+02  0.33855419310E+02  0.00000000000E+00 0. -1.
</event>
<event>
 8    1  0.1244838E-006  0.9118800E+02  0.7816164E-02  0.1184000E+00
        -11   -1    0    0    0    0  0.00000000000E+00  0.00000000000E+00  0.45593999997E+02  0.45594000000E+02  0.51100000000E-03 0.  1.
         11   -1    0    0    0    0 -0.00000000000E+00 -0.00000000000E+00 -0.45593999997E+02  0.45594000000E+02  0.51100000000E-03 0. -1.
         23    2    1    2    0    0  0.35527136788E-14  0.35527136788E-14 -0.35527136788E-14  0.91188000000E+02  0.91188000000E+02 0.  0.
    9900012    2    3    3    0    0 -0.23982743434E+02 -0.18030403333E+02  0.21342727669E+02  0.54367089482E+02  0.40000012093E+02 0.  0.
         12    1    3    3    0    0  0.23982743434E+02  0.18030403333E+02 -0.21342727669E+02  0.36820910518E+02  0.00000000000E+00 0. -1.
         11    1    4    4    0    0  0.41411357394E+01  0.55221188393E+01 -0.47481983570E+01  0.83778391955E+01  0.51100000000E-03 0. -1.
        -11    1    4    4    0    0 -0.57494480584E+01 -0.61834955473E+01  0.17065532161E+01  0.86141798391E+01  0.51100000000E-03 0.  1.
         12    1    4    4    0    0 -0.22374431115E+02 -0.17369026625E+02  0.24384372810E+02  0.37375070448E+02  0.00000000000E+00 0. -1.
</event>
<event>
 8    1  0.1244838E-006  0.9118800E+02  0.7816164E-02  0.1184000E+00
        -11   -1    0    0    0    0  0.00000000000E+00  0.00000000000E+00  0.45593999997E+02  0.45594000000E+02  0.51100000000E-03 0. -1.
         11   -1    0    0    0    0 -0.00000000000E+00 -0.00000000000E+00 -0.45593999997E+02  0.45594000000E+02  0.51100000000E-03 0.  1.
         23    2    1    2    0    0 -0.36082248300E-15  0.00000000000E+00 -0.17763568394E-14  0.91188000000E+02  0.91188000000E+02 0.  0.
    9900012    2    3    3    0    0  0.62954836181E-01 -0.35688782313E+02  0.90601939088E+01  0.54367078502E+02  0.39999987061E+02 0.  0.
        -12    1    3    3    0    0 -0.62954836181E-01  0.35688782313E+02 -0.90601939088E+01  0.36820921498E+02  0.00000000000E+00 0.  1.
         11    1    4    4    0    0  0.75693310467E+01 -0.58923015123E+00  0.11696279954E+02  0.13944351175E+02  0.51100000000E-03 0. -1.
        -11    1    4    4    0    0 -0.12223217191E+02 -0.14823543045E+02  0.12173493159E+01  0.19251659838E+02  0.51100000000E-03 0.  1.
         12    1    4    4    0    0  0.47168409802E+01 -0.20276009117E+02 -0.38534353613E+01  0.21171067489E+02  0.00000000000E+00 0. -1.
</event>
<event>
 8    1  0.1244838E-006  0.9118800E+02  0.7816164E-02  0.1184000E+00
        -11   -1    0    0    0    0  0.00000000000E+00  0.00000000000E+00  0.45593999997E+02  0.45594000000E+02  0.51100000000E-03 0.  1.
         11   -1    0    0    0    0 -0.00000000000E+00 -0.00000000000E+00 -0.45593999997E+02  0.45594000000E+02  0.51100000000E-03 0. -1.
         23    2    1    2    0    0  0.17763568394E-14  0.00000000000E+00  0.00000000000E+00  0.91188000000E+02  0.91188000000E+02 0.  0.
    9900012    2    3    3    0    0  0.10608533990E+02  0.16389987937E+02 -0.31218709714E+02  0.54367074778E+02  0.39999978572E+02 0.  0.
        -12    1    3    3    0    0 -0.10608533990E+02 -0.16389987937E+02  0.31218709714E+02  0.36820925222E+02  0.00000000000E+00 0.  1.
         11    1    4    4    0    0 -0.99828982952E+01  0.40990715927E+01 -0.85081416147E+01  0.13742238547E+02  0.51100000000E-03 0. -1.
        -11    1    4    4    0    0  0.23981583703E+02  0.12155990882E+02 -0.12097748376E+02  0.29482876170E+02  0.51100000000E-03 0.  1.
        -12    1    4    4    0    0 -0.33901514184E+01  0.13492546244E+00 -0.10612819723E+02  0.11141960061E+02  0.00000000000E+00 0.  1.
</event>
<event>
 8    1  0.1244838E-006  0.9118800E+02  0.7816164E-02  0.1184000E+00
        -11   -1    0    0    0    0  0.00000000000E+00  0.00000000000E+00  0.45593999997E+02  0.45594000000E+02  0.51100000000E-03 0.  1.
         11   -1    0    0    0    0 -0.00000000000E+00 -0.00000000000E+00 -0.45593999997E+02  0.45594000000E+02  0.51100000000E-03 0. -1.
         23    2    1    2    0    0  0.71054273576E-14  0.00000000000E+00  0.00000000000E+00  0.91188000000E+02  0.91188000000E+02 0.  0.
    9900012    2    3    3    0    0  0.31305803988E+02 -0.14248185273E+02  0.13142438694E+02  0.54366975548E+02  0.39999752355E+02 0.  0.
        -12    1    3    3    0    0 -0.31305803988E+02  0.14248185273E+02 -0.13142438694E+02  0.36821024452E+02  0.00000000000E+00 0.  1.
         11    1    4    4    0    0  0.34837668917E+02 -0.21692971732E+02  0.11886852039E+02  0.42726402257E+02  0.51100000000E-03 0. -1.
        -11    1    4    4    0    0  0.14313737483E+01  0.62957269331E+01  0.10557460051E+01  0.65421409578E+01  0.51100000000E-03 0.  1.
         12    1    4    4    0    0 -0.49632386778E+01  0.11490595258E+01  0.19984064975E+00  0.50984323328E+01  0.00000000000E+00 0. -1.
</event>
<event>
 8    1  0.1244838E-006  0.9118800E+02  0.7816164E-02  0.1184000E+00
        -11   -1    0    0    0    0  0.00000000000E+00  0.00000000000E+00  0.45593999997E+02  0.45594000000E+02  0.51100000000E-03 0. -1.
         11   -1    0    0    0    0 -0.00000000000E+00 -0.00000000000E+00 -0.45593999997E+02  0.45594000000E+02  0.51100000000E-03 0.  1.
         23    2    1    2    0    0  0.17763568394E-14 -0.35527136788E-14  0.00000000000E+00  0.91188000000E+02  0.91188000000E+02 0.  0.
    9900012    2    3    3    0    0 -0.12150678071E+02 -0.81331174289E+01  0.33793389449E+02  0.54367085466E+02  0.40000002937E+02 0.  0.
        -12    1    3    3    0    0  0.12150678071E+02  0.81331174289E+01 -0.33793389449E+02  0.36820914534E+02  0.00000000000E+00 0.  1.
         11    1    4    4    0    0 -0.20829393167E+02  0.50726971346E+01  0.14341916649E+02  0.25793147333E+02  0.51100000000E-03 0. -1.
        -11    1    4    4    0    0  0.64139237195E+01 -0.14399098088E+02  0.97370575360E+01  0.18527890677E+02  0.51100000000E-03 0.  1.
         12    1    4    4    0    0  0.22647913774E+01  0.11932835245E+01  0.97144152640E+01  0.10046047455E+02  0.00000000000E+00 0. -1.
</event>
<event>
 8    1  0.1244838E-006  0.9118800E+02  0.7816164E-02  0.1184000E+00
        -11   -1    0    0    0    0  0.00000000000E+00  0.00000000000E+00  0.45593999997E+02  0.45594000000E+02  0.51100000000E-03 0. -1.
         11   -1    0    0    0    0 -0.00000000000E+00 -0.00000000000E+00 -0.45593999997E+02  0.45594000000E+02  0.51100000000E-03 0.  1.
         23    2    1    2    0    0  0.71054273576E-14 -0.35527136788E-14 -0.13322676296E-14  0.91188000000E+02  0.91188000000E+02 0.  0.
    9900012    2    3    3    0    0  0.30853655292E+02 -0.19995941151E+02 -0.19984269919E+01  0.54367089938E+02  0.40000013131E+02 0.  0.
        -12    1    3    3    0    0 -0.30853655292E+02  0.19995941151E+02  0.19984269919E+01  0.36820910062E+02  0.00000000000E+00 0.  1.
         11    1    4    4    0    0 -0.21614219891E+01 -0.18450772752E+01 -0.46199083091E+01  0.54239845328E+01  0.51100000000E-03 0.  1.
        -11    1    4    4    0    0  0.65565511027E+01 -0.55789077132E+01 -0.13116749025E+02  0.15689540429E+02  0.51100000000E-03 0. -1.
         12    1    4    4    0    0  0.26458526178E+02 -0.12571956163E+02  0.15738230342E+02  0.33253564976E+02  0.00000000000E+00 0. -1.
</event>
<event>
 8    1  0.1244838E-006  0.9118800E+02  0.7816164E-02  0.1184000E+00
        -11   -1    0    0    0    0  0.00000000000E+00  0.00000000000E+00  0.45593999997E+02  0.45594000000E+02  0.51100000000E-03 0.  1.
         11   -1    0    0    0    0 -0.00000000000E+00 -0.00000000000E+00 -0.45593999997E+02  0.45594000000E+02  0.51100000000E-03 0. -1.
         23    2    1    2    0    0 -0.17763568394E-14  0.00000000000E+00  0.00000000000E+00  0.91188000000E+02  0.91188000000E+02 0.  0.
    9900012    2    3    3    0    0 -0.13434751357E+02 -0.89257858217E+01  0.33100116542E+02  0.54367083232E+02  0.39999997843E+02 0.  0.
         12    1    3    3    0    0  0.13434751357E+02  0.89257858217E+01 -0.33100116542E+02  0.36820916768E+02  0.00000000000E+00 0. -1.
         11    1    4    4    0    0  0.22742140062E+01 -0.16944628212E+02  0.13265951671E+02  0.21639730788E+02  0.51100000000E-03 0. -1.
        -11    1    4    4    0    0  0.18464269356E+01 -0.18924559557E+01  0.99107625587E+01  0.10257382548E+02  0.51100000000E-03 0.  1.
        -12    1    4    4    0    0 -0.17555392299E+02  0.99112983460E+01  0.99234023127E+01  0.22469969896E+02  0.00000000000E+00 0.  1.
</event>
<event>
 8    1  0.1244838E-006  0.9118800E+02  0.7816164E-02  0.1184000E+00
        -11   -1    0    0    0    0  0.00000000000E+00  0.00000000000E+00  0.45593999997E+02  0.45594000000E+02  0.51100000000E-03 0.  1.
         11   -1    0    0    0    0 -0.00000000000E+00 -0.00000000000E+00 -0.45593999997E+02  0.45594000000E+02  0.51100000000E-03 0. -1.
         23    2    1    2    0    0  0.00000000000E+00  0.35527136788E-14  0.00000000000E+00  0.91188000000E+02  0.91188000000E+02 0.  0.
    9900012    2    3    3    0    0 -0.18871793156E+02  0.27416809674E+02 -0.15746420954E+02  0.54367139031E+02  0.40000125049E+02 0.  0.
        -12    1    3    3    0    0  0.18871793156E+02 -0.27416809674E+02  0.15746420954E+02  0.36820860969E+02  0.00000000000E+00 0.  1.
         11    1    4    4    0    0 -0.14466667482E+02  0.19898352511E+02 -0.22851337216E+02  0.33576964031E+02  0.51100000000E-03 0. -1.
        -11    1    4    4    0    0 -0.20912291424E+01 -0.50967461347E+01  0.56349958910E+01  0.78805608582E+01  0.51100000000E-03 0.  1.
        -12    1    4    4    0    0 -0.23138965316E+01  0.12615203298E+02  0.14699203713E+01  0.12909614142E+02  0.00000000000E+00 0.  1.
</event>
<event>
 8    1  0.1244838E-006  0.9118800E+02  0.7816164E-02  0.1184000E+00
        -11   -1    0    0    0    0  0.00000000000E+00  0.00000000000E+00  0.45593999997E+02  0.45594000000E+02  0.51100000000E-03 0. -1.
         11   -1    0    0    0    0 -0.00000000000E+00 -0.00000000000E+00 -0.45593999997E+02  0.45594000000E+02  0.51100000000E-03 0.  1.
         23    2    1    2    0    0  0.17763568394E-14  0.00000000000E+00 -0.35527136788E-14  0.91188000000E+02  0.91188000000E+02 0.  0.
    9900012    2    3    3    0    0 -0.88482104157E+01 -0.19784633704E+02  0.29766714545E+02  0.54367084026E+02  0.39999999655E+02 0.  0.
        -12    1    3    3    0    0  0.88482104157E+01  0.19784633704E+02 -0.29766714545E+02  0.36820915974E+02  0.00000000000E+00 0.  1.
         11    1    4    4    0    0 -0.19165131346E+01  0.85305100705E+01  0.33504415861E+01  0.93631236103E+01  0.51100000000E-03 0. -1.
        -11    1    4    4    0    0 -0.14027849434E+02 -0.12958944589E+02  0.10583466219E+02  0.21834023039E+02  0.51100000000E-03 0.  1.
         12    1    4    4    0    0  0.70961521529E+01 -0.15356199186E+02  0.15832806740E+02  0.23169937377E+02  0.00000000000E+00 0. -1.
</event>
<event>
 8    1  0.1244838E-006  0.9118800E+02  0.7816164E-02  0.1184000E+00
        -11   -1    0    0    0    0  0.00000000000E+00  0.00000000000E+00  0.45593999997E+02  0.45594000000E+02  0.51100000000E-03 0.  1.
         11   -1    0    0    0    0 -0.00000000000E+00 -0.00000000000E+00 -0.45593999997E+02  0.45594000000E+02  0.51100000000E-03 0. -1.
         23    2    1    2    0    0  0.00000000000E+00  0.00000000000E+00  0.00000000000E+00  0.91188000000E+02  0.91188000000E+02 0.  0.
    9900012    2    3    3    0    0 -0.88290873235E+01  0.22025970254E+02  0.28154619868E+02  0.54367098755E+02  0.40000033231E+02 0.  0.
         12    1    3    3    0    0  0.88290873235E+01 -0.22025970254E+02 -0.28154619868E+02  0.36820901245E+02  0.00000000000E+00 0. -1.
         11    1    4    4    0    0 -0.14986252579E+02  0.15879762150E+02  0.12869753126E+02  0.25345318268E+02  0.51100000000E-03 0. -1.
        -11    1    4    4    0    0 -0.73461350213E-01 -0.58150472773E+01  0.14372183117E+02  0.15504187151E+02  0.51100000000E-03 0.  1.
         12    1    4    4    0    0  0.62306266061E+01  0.11961255381E+02  0.91268362505E+00  0.13517593336E+02  0.00000000000E+00 0. -1.
</event>
<event>
 8    1  0.1244838E-006  0.9118800E+02  0.7816164E-02  0.1184000E+00
        -11   -1    0    0    0    0  0.00000000000E+00  0.00000000000E+00  0.45593999997E+02  0.45594000000E+02  0.51100000000E-03 0.  1.
         11   -1    0    0    0    0 -0.00000000000E+00 -0.00000000000E+00 -0.45593999997E+02  0.45594000000E+02  0.51100000000E-03 0. -1.
         23    2    1    2    0    0 -0.88817841970E-15 -0.71054273576E-14  0.00000000000E+00  0.91188000000E+02  0.91188000000E+02 0.  0.
    9900012    2    3    3    0    0  0.24888475674E+01  0.32573758230E+02 -0.16986674761E+02  0.54366929851E+02  0.39999648181E+02 0.  0.
        -12    1    3    3    0    0 -0.24888475674E+01 -0.32573758230E+02  0.16986674761E+02  0.36821070149E+02  0.00000000000E+00 0.  1.
         11    1    4    4    0    0  0.11368892055E+02  0.32805395204E+02 -0.16112271740E+02  0.38275984141E+02  0.51100000000E-03 0. -1.
        -11    1    4    4    0    0 -0.70609983820E+01  0.56187041515E+01  0.21234559056E+01  0.92701995521E+01  0.51100000000E-03 0.  1.
         12    1    4    4    0    0 -0.18190461054E+01 -0.58503411253E+01 -0.29978589267E+01  0.68207461587E+01  0.00000000000E+00 0. -1.
</event>
<event>
 8    1  0.1244838E-006  0.9118800E+02  0.7816164E-02  0.1184000E+00
        -11   -1    0    0    0    0  0.00000000000E+00  0.00000000000E+00  0.45593999997E+02  0.45594000000E+02  0.51100000000E-03 0. -1.
         11   -1    0    0    0    0 -0.00000000000E+00 -0.00000000000E+00 -0.45593999997E+02  0.45594000000E+02  0.51100000000E-03 0.  1.
         23    2    1    2    0    0  0.00000000000E+00  0.00000000000E+00 -0.35527136788E-14  0.91188000000E+02  0.91188000000E+02 0.  0.
    9900012    2    3    3    0    0  0.16124757058E+02 -0.18165724417E+02  0.27672743219E+02  0.54367054181E+02  0.39999931615E+02 0.  0.
        -12    1    3    3    0    0 -0.16124757058E+02  0.18165724417E+02 -0.27672743219E+02  0.36820945819E+02  0.00000000000E+00 0.  1.
         11    1    4    4    0    0  0.27298825656E+02 -0.65073320669E+01  0.18318259966E+02  0.33513130282E+02  0.51100000000E-03 0. -1.
        -11    1    4    4    0    0 -0.22607225043E+01  0.84563674536E+00  0.38448194256E+01  0.45396700787E+01  0.51100000000E-03 0.  1.
         12    1    4    4    0    0 -0.89133460943E+01 -0.12504029095E+02  0.55096638280E+01  0.16314253820E+02  0.00000000000E+00 0. -1.
</event>
<event>
 8    1  0.1244838E-006  0.9118800E+02  0.7816164E-02  0.1184000E+00
        -11   -1    0    0    0    0  0.00000000000E+00  0.00000000000E+00  0.45593999997E+02  0.45594000000E+02  0.51100000000E-03 0.  1.
         11   -1    0    0    0    0 -0.00000000000E+00 -0.00000000000E+00 -0.45593999997E+02  0.45594000000E+02  0.51100000000E-03 0. -1.
         23    2    1    2    0    0  0.00000000000E+00  0.35527136788E-14  0.35527136788E-14  0.91188000000E+02  0.91188000000E+02 0.  0.
    9900012    2    3    3    0    0 -0.10956778893E+02  0.19654173088E+02  0.29145213724E+02  0.54367068365E+02  0.39999963951E+02 0.  0.
         12    1    3    3    0    0  0.10956778893E+02 -0.19654173088E+02 -0.29145213724E+02  0.36820931635E+02  0.00000000000E+00 0. -1.
         11    1    4    4    0    0 -0.11119238392E+01 -0.11194756048E+02  0.38011765483E+01  0.11874673933E+02  0.51100000000E-03 0. -1.
        -11    1    4    4    0    0 -0.12089966527E+02  0.25881074993E+02  0.22369265733E+02  0.36281970497E+02  0.51100000000E-03 0.  1.
        -12    1    4    4    0    0  0.22451114734E+01  0.49678541434E+01  0.29747714419E+01  0.62104239348E+01  0.00000000000E+00 0.  1.
</event>
<event>
 8    1  0.1244838E-006  0.9118800E+02  0.7816164E-02  0.1184000E+00
        -11   -1    0    0    0    0  0.00000000000E+00  0.00000000000E+00  0.45593999997E+02  0.45594000000E+02  0.51100000000E-03 0.  1.
         11   -1    0    0    0    0 -0.00000000000E+00 -0.00000000000E+00 -0.45593999997E+02  0.45594000000E+02  0.51100000000E-03 0. -1.
         23    2    1    2    0    0  0.00000000000E+00  0.00000000000E+00  0.00000000000E+00  0.91188000000E+02  0.91188000000E+02 0.  0.
    9900012    2    3    3    0    0  0.13228128820E+02 -0.24327335550E+02  0.24268845516E+02  0.54367088690E+02  0.40000010285E+02 0.  0.
         12    1    3    3    0    0 -0.13228128820E+02  0.24327335550E+02 -0.24268845516E+02  0.36820911310E+02  0.00000000000E+00 0. -1.
         11    1    4    4    0    0 -0.91174590104E+00 -0.13682994319E+01 -0.33649423694E+01  0.37451784115E+01  0.51100000000E-03 0. -1.
        -11    1    4    4    0    0  0.14141849824E+02 -0.72201980536E+01 -0.30206552410E+01  0.16163153613E+02  0.51100000000E-03 0.  1.
        -12    1    4    4    0    0 -0.19751020736E-02 -0.15738838065E+02  0.30654443126E+02  0.34458756665E+02  0.00000000000E+00 0.  1.
</event>
<event>
 8    1  0.1244838E-006  0.9118800E+02  0.7816164E-02  0.1184000E+00
        -11   -1    0    0    0    0  0.00000000000E+00  0.00000000000E+00  0.45593999997E+02  0.45594000000E+02  0.51100000000E-03 0. -1.
         11   -1    0    0    0    0 -0.00000000000E+00 -0.00000000000E+00 -0.45593999997E+02  0.45594000000E+02  0.51100000000E-03 0.  1.
         23    2    1    2    0    0  0.13322676296E-14  0.71054273576E-14 -0.17763568394E-14  0.91188000000E+02  0.91188000000E+02 0.  0.
    9900012    2    3    3    0    0 -0.25541705684E+01  0.35376990212E+02 -0.98855872002E+01  0.54367081244E+02  0.39999993312E+02 0.  0.
         12    1    3    3    0    0  0.25541705684E+01 -0.35376990212E+02  0.98855872002E+01  0.36820918756E+02  0.00000000000E+00 0. -1.
         11    1    4    4    0    0 -0.15170995660E+01 -0.13762486340E+01 -0.10144350262E+02  0.10349081790E+02  0.51100000000E-03 0. -1.
        -11    1    4    4    0    0 -0.80129981207E+01  0.54153195638E+01  0.60318401212E+01  0.11398110386E+02  0.51100000000E-03 0.  1.
        -12    1    4    4    0    0  0.69759271183E+01  0.31337919282E+02 -0.57730770598E+01  0.32619889068E+02  0.00000000000E+00 0.  1.
</event>
<event>
 8    1  0.1244838E-006  0.9118800E+02  0.7816164E-02  0.1184000E+00
        -11   -1    0    0    0    0  0.00000000000E+00  0.00000000000E+00  0.45593999997E+02  0.45594000000E+02  0.51100000000E-03 0. -1.
         11   -1    0    0    0    0 -0.00000000000E+00 -0.00000000000E+00 -0.45593999997E+02  0.45594000000E+02  0.51100000000E-03 0.  1.
         23    2    1    2    0    0 -0.35527136788E-14  0.00000000000E+00 -0.17763568394E-14  0.91188000000E+02  0.91188000000E+02 0.  0.
    9900012    2    3    3    0    0 -0.28321140600E+02 -0.20732836228E+02 -0.11128429708E+02  0.54367089491E+02  0.40000012112E+02 0.  0.
        -12    1    3    3    0    0  0.28321140600E+02  0.20732836228E+02  0.11128429708E+02  0.36820910509E+02  0.00000000000E+00 0.  1.
         11    1    4    4    0    0 -0.13638359994E+02 -0.49677625403E+01  0.84408896632E+01  0.16790835195E+02  0.51100000000E-03 0. -1.
        -11    1    4    4    0    0 -0.11844931498E+02 -0.19466779646E+02 -0.22535629154E+02  0.32048595813E+02  0.51100000000E-03 0.  1.
        -12    1    4    4    0    0 -0.28378491082E+01  0.37017059585E+01  0.29663097825E+01  0.55276584817E+01  0.00000000000E+00 0.  1.
</event>
<event>
 8    1  0.1244838E-006  0.9118800E+02  0.7816164E-02  0.1184000E+00
        -11   -1    0    0    0    0  0.00000000000E+00  0.00000000000E+00  0.45593999997E+02  0.45594000000E+02  0.51100000000E-03 0.  1.
         11   -1    0    0    0    0 -0.00000000000E+00 -0.00000000000E+00 -0.45593999997E+02  0.45594000000E+02  0.51100000000E-03 0. -1.
         23    2    1    2    0    0  0.00000000000E+00  0.00000000000E+00  0.17763568394E-14  0.91188000000E+02  0.91188000000E+02 0.  0.
    9900012    2    3    3    0    0 -0.30799274856E+02  0.16695078997E+02  0.11333967784E+02  0.54367084475E+02  0.40000000678E+02 0.  0.
        -12    1    3    3    0    0  0.30799274856E+02 -0.16695078997E+02 -0.11333967784E+02  0.36820915525E+02  0.00000000000E+00 0.  1.
         11    1    4    4    0    0 -0.14688211645E+02 -0.36657869415E+01 -0.98009930944E+01  0.18034439861E+02  0.51100000000E-03 0. -1.
        -11    1    4    4    0    0 -0.11673943357E+02  0.90058268210E+01  0.18846438723E+02  0.23928521121E+02  0.51100000000E-03 0.  1.
        -12    1    4    4    0    0 -0.44371198539E+01  0.11355039118E+02  0.22885221553E+01  0.12404123492E+02  0.00000000000E+00 0.  1.
</event>
<event>
 8    1  0.1244838E-006  0.9118800E+02  0.7816164E-02  0.1184000E+00
        -11   -1    0    0    0    0  0.00000000000E+00  0.00000000000E+00  0.45593999997E+02  0.45594000000E+02  0.51100000000E-03 0.  1.
         11   -1    0    0    0    0 -0.00000000000E+00 -0.00000000000E+00 -0.45593999997E+02  0.45594000000E+02  0.51100000000E-03 0. -1.
         23    2    1    2    0    0 -0.71054273576E-14 -0.17763568394E-14  0.17763568394E-14  0.91188000000E+02  0.91188000000E+02 0.  0.
    9900012    2    3    3    0    0 -0.32062506125E+02  0.15744426273E+02  0.89380311287E+01  0.54367086674E+02  0.40000005691E+02 0.  0.
         12    1    3    3    0    0  0.32062506125E+02 -0.15744426273E+02 -0.89380311287E+01  0.36820913326E+02  0.00000000000E+00 0. -1.
         11    1    4    4    0    0 -0.26054191897E+02  0.61600036762E+01  0.26551835642E+01  0.26903839144E+02  0.51100000000E-03 0.  1.
        -11    1    4    4    0    0  0.72536386401E+01  0.71829888830E+01 -0.35194058442E+01  0.10798000767E+02  0.51100000000E-03 0. -1.
        -12    1    4    4    0    0 -0.13261952868E+02  0.24014337140E+01  0.98022534087E+01  0.16665246762E+02  0.00000000000E+00 0.  1.
</event>
<event>
 8    1  0.1244838E-006  0.9118800E+02  0.7816164E-02  0.1184000E+00
        -11   -1    0    0    0    0  0.00000000000E+00  0.00000000000E+00  0.45593999997E+02  0.45594000000E+02  0.51100000000E-03 0.  1.
         11   -1    0    0    0    0 -0.00000000000E+00 -0.00000000000E+00 -0.45593999997E+02  0.45594000000E+02  0.51100000000E-03 0. -1.
         23    2    1    2    0    0  0.00000000000E+00  0.22204460493E-15  0.17763568394E-14  0.91188000000E+02  0.91188000000E+02 0.  0.
    9900012    2    3    3    0    0 -0.33617959126E+02  0.14944120061E+01 -0.14945882891E+02  0.54367083954E+02  0.39999999491E+02 0.  0.
        -12    1    3    3    0    0  0.33617959126E+02 -0.14944120061E+01  0.14945882891E+02  0.36820916046E+02  0.00000000000E+00 0.  1.
         11    1    4    4    0    0 -0.24064071960E+02 -0.10550002292E+02  0.46750617456E+01  0.26687793281E+02  0.51100000000E-03 0. -1.
        -11    1    4    4    0    0 -0.31534424778E-01 -0.26802637397E-02 -0.90187180479E+01  0.90187735913E+01  0.51100000000E-03 0.  1.
         12    1    4    4    0    0 -0.95223527418E+01  0.12047094562E+02 -0.10602226589E+02  0.18660517082E+02  0.00000000000E+00 0. -1.
</event>
<event>
 8    1  0.1244838E-006  0.9118800E+02  0.7816164E-02  0.1184000E+00
        -11   -1    0    0    0    0  0.00000000000E+00  0.00000000000E+00  0.45593999997E+02  0.45594000000E+02  0.51100000000E-03 0.  1.
         11   -1    0    0    0    0 -0.00000000000E+00 -0.00000000000E+00 -0.45593999997E+02  0.45594000000E+02  0.51100000000E-03 0. -1.
         23    2    1    2    0    0  0.00000000000E+00  0.88817841970E-15  0.00000000000E+00  0.91188000000E+02  0.91188000000E+02 0.  0.
    9900012    2    3    3    0    0 -0.15225448236E+02 -0.79213274624E+01 -0.32576318504E+02  0.54367106067E+02  0.40000049901E+02 0.  0.
        -12    1    3    3    0    0  0.15225448236E+02  0.79213274624E+01  0.32576318504E+02  0.36820893933E+02  0.00000000000E+00 0.  1.
         11    1    4    4    0    0  0.11491257137E+02  0.12152698959E+01 -0.48841606974E+01  0.12545154343E+02  0.51100000000E-03 0. -1.
        -11    1    4    4    0    0 -0.25432697112E+02 -0.12059921087E+02 -0.24928457951E+02  0.37599093009E+02  0.51100000000E-03 0.  1.
         12    1    4    4    0    0 -0.12840082609E+01  0.29233237290E+01 -0.27636998556E+01  0.42228587155E+01  0.00000000000E+00 0. -1.
</event>
<event>
 8    1  0.1244838E-006  0.9118800E+02  0.7816164E-02  0.1184000E+00
        -11   -1    0    0    0    0  0.00000000000E+00  0.00000000000E+00  0.45593999997E+02  0.45594000000E+02  0.51100000000E-03 0.  1.
         11   -1    0    0    0    0 -0.00000000000E+00 -0.00000000000E+00 -0.45593999997E+02  0.45594000000E+02  0.51100000000E-03 0. -1.
         23    2    1    2    0    0  0.88817841970E-15  0.00000000000E+00  0.35527136788E-14  0.91188000000E+02  0.91188000000E+02 0.  0.
    9900012    2    3    3    0    0  0.76995802917E+01  0.26940314867E+02 -0.23889668275E+02  0.54367077251E+02  0.39999984209E+02 0.  0.
        -12    1    3    3    0    0 -0.76995802917E+01 -0.26940314867E+02  0.23889668275E+02  0.36820922749E+02  0.00000000000E+00 0.  1.
         11    1    4    4    0    0  0.13771228081E+02  0.12171895515E+02  0.10859286719E+01  0.18411436788E+02  0.51100000000E-03 0. -1.
        -11    1    4    4    0    0 -0.56974056722E+01  0.78196550836E+01  0.35995094683E+00  0.96817871266E+01  0.51100000000E-03 0.  1.
        -12    1    4    4    0    0 -0.37424211672E+00  0.69487642683E+01 -0.25335547894E+02  0.26273853336E+02  0.00000000000E+00 0.  1.
</event>
<event>
 8    1  0.1244838E-006  0.9118800E+02  0.7816164E-02  0.1184000E+00
        -11   -1    0    0    0    0  0.00000000000E+00  0.00000000000E+00  0.45593999997E+02  0.45594000000E+02  0.51100000000E-03 0. -1.
         11   -1    0    0    0    0 -0.00000000000E+00 -0.00000000000E+00 -0.45593999997E+02  0.45594000000E+02  0.51100000000E-03 0.  1.
         23    2    1    2    0    0  0.88817841970E-15 -0.35527136788E-14 -0.35527136788E-14  0.91188000000E+02  0.91188000000E+02 0.  0.
    9900012    2    3    3    0    0  0.99951410784E+00  0.24692139977E+02  0.27296115041E+02  0.54367099666E+02  0.40000035309E+02 0.  0.
        -12    1    3    3    0    0 -0.99951410784E+00 -0.24692139977E+02 -0.27296115041E+02  0.36820900334E+02  0.00000000000E+00 0.  1.
         11    1    4    4    0    0  0.75868843599E+01  0.60676063794E+01  0.11559285329E+02  0.15099461548E+02  0.51100000000E-03 0. -1.
        -11    1    4    4    0    0 -0.10583250911E+02  0.18655814646E+02  0.22705631982E+02  0.31234441630E+02  0.51100000000E-03 0.  1.
        -12    1    4    4    0    0  0.39958806593E+01 -0.31281048537E-01 -0.69688022700E+01  0.80331964887E+01  0.00000000000E+00 0.  1.
</event>
<event>
 8    1  0.1244838E-006  0.9118800E+02  0.7816164E-02  0.1184000E+00
        -11   -1    0    0    0    0  0.00000000000E+00  0.00000000000E+00  0.45593999997E+02  0.45594000000E+02  0.51100000000E-03 0.  1.
         11   -1    0    0    0    0 -0.00000000000E+00 -0.00000000000E+00 -0.45593999997E+02  0.45594000000E+02  0.51100000000E-03 0. -1.
         23    2    1    2    0    0  0.00000000000E+00 -0.35527136788E-14  0.00000000000E+00  0.91188000000E+02  0.91188000000E+02 0.  0.
    9900012    2    3    3    0    0 -0.19570682639E+02 -0.31072861628E+02  0.26919865220E+01  0.54367066549E+02  0.39999959812E+02 0.  0.
        -12    1    3    3    0    0  0.19570682639E+02  0.31072861628E+02 -0.26919865220E+01  0.36820933451E+02  0.00000000000E+00 0.  1.
         11    1    4    4    0    0 -0.15045029793E+02 -0.35095682717E+02  0.77395556242E+01  0.38961013698E+02  0.51100000000E-03 0. -1.
        -11    1    4    4    0    0 -0.90378659838E+01  0.37590070233E+01 -0.21035485060E+01  0.10011896520E+02  0.51100000000E-03 0.  1.
         12    1    4    4    0    0  0.45122131371E+01  0.26381406545E+00 -0.29440205963E+01  0.53941563314E+01  0.00000000000E+00 0. -1.
</event>
<event>
 8    1  0.1244838E-006  0.9118800E+02  0.7816164E-02  0.1184000E+00
        -11   -1    0    0    0    0  0.00000000000E+00  0.00000000000E+00  0.45593999997E+02  0.45594000000E+02  0.51100000000E-03 0.  1.
         11   -1    0    0    0    0 -0.00000000000E+00 -0.00000000000E+00 -0.45593999997E+02  0.45594000000E+02  0.51100000000E-03 0. -1.
         23    2    1    2    0    0 -0.71054273576E-14  0.35527136788E-14 -0.24980018054E-15  0.91188000000E+02  0.91188000000E+02 0.  0.
    9900012    2    3    3    0    0  0.32761827179E+02 -0.16805585788E+02 -0.12530564833E+00  0.54367072048E+02  0.39999972347E+02 0.  0.
         12    1    3    3    0    0 -0.32761827179E+02  0.16805585788E+02  0.12530564833E+00  0.36820927952E+02  0.00000000000E+00 0. -1.
         11    1    4    4    0    0  0.19378781464E+02 -0.58073065169E+01  0.87099137174E+00  0.20248965560E+02  0.51100000000E-03 0. -1.
        -11    1    4    4    0    0  0.18636612475E+02 -0.15426816914E+02  0.53354264474E+01  0.24774518770E+02  0.51100000000E-03 0.  1.
         12    1    4    4    0    0 -0.52535667606E+01  0.44285376433E+01 -0.63317234675E+01  0.93435877175E+01  0.00000000000E+00 0. -1.
</event>
<event>
 8    1  0.1244838E-006  0.9118800E+02  0.7816164E-02  0.1184000E+00
        -11   -1    0    0    0    0  0.00000000000E+00  0.00000000000E+00  0.45593999997E+02  0.45594000000E+02  0.51100000000E-03 0. -1.
         11   -1    0    0    0    0 -0.00000000000E+00 -0.00000000000E+00 -0.45593999997E+02  0.45594000000E+02  0.51100000000E-03 0.  1.
         23    2    1    2    0    0  0.00000000000E+00  0.00000000000E+00 -0.88817841970E-15  0.91188000000E+02  0.91188000000E+02 0.  0.
    9900012    2    3    3    0    0  0.13338421025E+02 -0.33603077917E+02 -0.69785536296E+01  0.54367074812E+02  0.39999978649E+02 0.  0.
         12    1    3    3    0    0 -0.13338421025E+02  0.33603077917E+02  0.69785536296E+01  0.36820925188E+02  0.00000000000E+00 0. -1.
         11    1    4    4    0    0  0.62446016953E+01 -0.12755148841E+02 -0.31736097800E+01  0.14551998886E+02  0.51100000000E-03 0. -1.
        -11    1    4    4    0    0  0.10659696239E+02 -0.21632094518E+02 -0.14755482111E+02  0.28271909905E+02  0.51100000000E-03 0.  1.
         12    1    4    4    0    0 -0.35658769086E+01  0.78416544200E+00  0.10950538261E+02  0.11543166020E+02  0.00000000000E+00 0. -1.
</event>
<event>
 8    1  0.1244838E-006  0.9118800E+02  0.7816164E-02  0.1184000E+00
        -11   -1    0    0    0    0  0.00000000000E+00  0.00000000000E+00  0.45593999997E+02  0.45594000000E+02  0.51100000000E-03 0.  1.
         11   -1    0    0    0    0 -0.00000000000E+00 -0.00000000000E+00 -0.45593999997E+02  0.45594000000E+02  0.51100000000E-03 0. -1.
         23    2    1    2    0    0  0.00000000000E+00  0.00000000000E+00  0.35527136788E-14  0.91188000000E+02  0.91188000000E+02 0.  0.
    9900012    2    3    3    0    0  0.51391763233E+01  0.32927027867E+02  0.15658151903E+02  0.54367108940E+02  0.40000056451E+02 0.  0.
         12    1    3    3    0    0 -0.51391763233E+01 -0.32927027867E+02 -0.15658151903E+02  0.36820891060E+02  0.00000000000E+00 0. -1.
         11    1    4    4    0    0 -0.67527933085E+01  0.32026964677E+02  0.93194899500E+01  0.34032037510E+02  0.51100000000E-03 0. -1.
        -11    1    4    4    0    0  0.20923493265E+01  0.54525193586E+01 -0.25217438494E+01  0.63613744869E+01  0.51100000000E-03 0.  1.
        -12    1    4    4    0    0  0.97996203054E+01 -0.45524561684E+01  0.88604058020E+01  0.13973696944E+02  0.00000000000E+00 0.  1.
</event>
<event>
 8    1  0.1244838E-006  0.9118800E+02  0.7816164E-02  0.1184000E+00
        -11   -1    0    0    0    0  0.00000000000E+00  0.00000000000E+00  0.45593999997E+02  0.45594000000E+02  0.51100000000E-03 0. -1.
         11   -1    0    0    0    0 -0.00000000000E+00 -0.00000000000E+00 -0.45593999997E+02  0.45594000000E+02  0.51100000000E-03 0.  1.
         23    2    1    2    0    0  0.00000000000E+00  0.17763568394E-14  0.00000000000E+00  0.91188000000E+02  0.91188000000E+02 0.  0.
    9900012    2    3    3    0    0  0.98371350129E+01 -0.11578352365E+02 -0.33540312503E+02  0.54367081603E+02  0.39999994131E+02 0.  0.
         12    1    3    3    0    0 -0.98371350129E+01  0.11578352365E+02  0.33540312503E+02  0.36820918397E+02  0.00000000000E+00 0. -1.
         11    1    4    4    0    0 -0.36004401632E+01  0.85351735552E+01 -0.15944676809E+02  0.18440311163E+02  0.51100000000E-03 0. -1.
        -11    1    4    4    0    0  0.12604344049E+02 -0.11196787542E+02 -0.20472036853E+02  0.26520592628E+02  0.51100000000E-03 0.  1.
         12    1    4    4    0    0  0.83323112689E+00 -0.89167383777E+01  0.28764011587E+01  0.94061778121E+01  0.00000000000E+00 0. -1.
</event>
<event>
 8    1  0.1244838E-006  0.9118800E+02  0.7816164E-02  0.1184000E+00
        -11   -1    0    0    0    0  0.00000000000E+00  0.00000000000E+00  0.45593999997E+02  0.45594000000E+02  0.51100000000E-03 0.  1.
         11   -1    0    0    0    0 -0.00000000000E+00 -0.00000000000E+00 -0.45593999997E+02  0.45594000000E+02  0.51100000000E-03 0. -1.
         23    2    1    2    0    0  0.00000000000E+00  0.00000000000E+00 -0.44408920985E-15  0.91188000000E+02  0.91188000000E+02 0.  0.
    9900012    2    3    3    0    0 -0.56342625842E+01 -0.36358419288E+02 -0.14496411413E+01  0.54367068081E+02  0.39999963303E+02 0.  0.
         12    1    3    3    0    0  0.56342625842E+01  0.36358419288E+02  0.14496411413E+01  0.36820931919E+02  0.00000000000E+00 0. -1.
         11    1    4    4    0    0  0.37645748985E+00 -0.95811369630E+01 -0.43859196404E+01  0.10544012381E+02  0.51100000000E-03 0. -1.
        -11    1    4    4    0    0  0.36937179897E+01 -0.31452732650E+02  0.67787428289E+01  0.32386251687E+02  0.51100000000E-03 0.  1.
         12    1    4    4    0    0 -0.97044380638E+01  0.46754503255E+01 -0.38424643297E+01  0.11436804012E+02  0.00000000000E+00 0. -1.
</event>
<event>
 8    1  0.1244838E-006  0.9118800E+02  0.7816164E-02  0.1184000E+00
        -11   -1    0    0    0    0  0.00000000000E+00  0.00000000000E+00  0.45593999997E+02  0.45594000000E+02  0.51100000000E-03 0.  1.
         11   -1    0    0    0    0 -0.00000000000E+00 -0.00000000000E+00 -0.45593999997E+02  0.45594000000E+02  0.51100000000E-03 0. -1.
         23    2    1    2    0    0  0.00000000000E+00  0.00000000000E+00 -0.35527136788E-14  0.91188000000E+02  0.91188000000E+02 0.  0.
    9900012    2    3    3    0    0  0.26075008696E+02 -0.93594723924E+01  0.24254407474E+02  0.54367053735E+02  0.39999930600E+02 0.  0.
         12    1    3    3    0    0 -0.26075008696E+02  0.93594723924E+01 -0.24254407474E+02  0.36820946265E+02  0.00000000000E+00 0. -1.
         11    1    4    4    0    0 -0.35271353189E+01 -0.52690484992E+00  0.23145788370E+02  0.23418920381E+02  0.51100000000E-03 0. -1.
        -11    1    4    4    0    0  0.26524453295E+02 -0.77462281126E+01  0.14243692232E+01  0.27669107331E+02  0.51100000000E-03 0.  1.
         12    1    4    4    0    0  0.30776907199E+01 -0.10863394299E+01 -0.31575011918E+00  0.32790260234E+01  0.00000000000E+00 0. -1.
</event>
<event>
 8    1  0.1244838E-006  0.9118800E+02  0.7816164E-02  0.1184000E+00
        -11   -1    0    0    0    0  0.00000000000E+00  0.00000000000E+00  0.45593999997E+02  0.45594000000E+02  0.51100000000E-03 0. -1.
         11   -1    0    0    0    0 -0.00000000000E+00 -0.00000000000E+00 -0.45593999997E+02  0.45594000000E+02  0.51100000000E-03 0.  1.
         23    2    1    2    0    0  0.35527136788E-14  0.00000000000E+00 -0.17763568394E-14  0.91188000000E+02  0.91188000000E+02 0.  0.
    9900012    2    3    3    0    0 -0.20641343500E+02  0.26960146872E+02  0.14242930670E+02  0.54367141035E+02  0.40000129617E+02 0.  0.
        -12    1    3    3    0    0  0.20641343500E+02 -0.26960146872E+02 -0.14242930670E+02  0.36820858965E+02  0.00000000000E+00 0.  1.
         11    1    4    4    0    0  0.73154785649E+01  0.11951321196E+02  0.54155125407E+01  0.15022585706E+02  0.51100000000E-03 0. -1.
        -11    1    4    4    0    0 -0.26469756325E+01  0.12260633084E+02  0.47964763019E+00  0.12552277313E+02  0.51100000000E-03 0.  1.
        -12    1    4    4    0    0 -0.25309846433E+02  0.27481925918E+01  0.83477704992E+01  0.26792278016E+02  0.00000000000E+00 0.  1.
</event>
<event>
 8    1  0.1244838E-006  0.9118800E+02  0.7816164E-02  0.1184000E+00
        -11   -1    0    0    0    0  0.00000000000E+00  0.00000000000E+00  0.45593999997E+02  0.45594000000E+02  0.51100000000E-03 0.  1.
         11   -1    0    0    0    0 -0.00000000000E+00 -0.00000000000E+00 -0.45593999997E+02  0.45594000000E+02  0.51100000000E-03 0. -1.
         23    2    1    2    0    0 -0.35527136788E-14  0.00000000000E+00  0.88817841970E-15  0.91188000000E+02  0.91188000000E+02 0.  0.
    9900012    2    3    3    0    0  0.16349915324E+02  0.32481390622E+02 -0.57810860329E+01  0.54367062702E+02  0.39999951041E+02 0.  0.
        -12    1    3    3    0    0 -0.16349915324E+02 -0.32481390622E+02  0.57810860329E+01  0.36820937298E+02  0.00000000000E+00 0.  1.
         11    1    4    4    0    0  0.98950362536E+01  0.13652710264E+01  0.84243888575E+01  0.13066982640E+02  0.51100000000E-03 0. -1.
        -11    1    4    4    0    0 -0.54192756283E+01 -0.54124779596E-01 -0.22228435028E+01  0.58576882237E+01  0.51100000000E-03 0.  1.
         12    1    4    4    0    0  0.11874154698E+02  0.31170244375E+02 -0.11982631388E+02  0.35442391838E+02  0.00000000000E+00 0. -1.
</event>
<event>
 8    1  0.1244838E-006  0.9118800E+02  0.7816164E-02  0.1184000E+00
        -11   -1    0    0    0    0  0.00000000000E+00  0.00000000000E+00  0.45593999997E+02  0.45594000000E+02  0.51100000000E-03 0. -1.
         11   -1    0    0    0    0 -0.00000000000E+00 -0.00000000000E+00 -0.45593999997E+02  0.45594000000E+02  0.51100000000E-03 0.  1.
         23    2    1    2    0    0 -0.71054273576E-14  0.00000000000E+00 -0.17763568394E-14  0.91188000000E+02  0.91188000000E+02 0.  0.
    9900012    2    3    3    0    0 -0.34463487276E+02  0.98464309505E+01  0.84318592749E+01  0.54367076485E+02  0.39999982462E+02 0.  0.
         12    1    3    3    0    0  0.34463487276E+02 -0.98464309505E+01 -0.84318592749E+01  0.36820923515E+02  0.00000000000E+00 0. -1.
         11    1    4    4    0    0 -0.11111327208E+02  0.14889517835E+02 -0.10692765796E+01  0.18609209718E+02  0.51100000000E-03 0. -1.
        -11    1    4    4    0    0 -0.11416299297E+02  0.27881092989E+01 -0.72038196310E+01  0.13784065461E+02  0.51100000000E-03 0.  1.
         12    1    4    4    0    0 -0.11935860771E+02 -0.78311961835E+01  0.16704955486E+02  0.21973801305E+02  0.00000000000E+00 0. -1.
</event>
<event>
 8    1  0.1244838E-006  0.9118800E+02  0.7816164E-02  0.1184000E+00
        -11   -1    0    0    0    0  0.00000000000E+00  0.00000000000E+00  0.45593999997E+02  0.45594000000E+02  0.51100000000E-03 0. -1.
         11   -1    0    0    0    0 -0.00000000000E+00 -0.00000000000E+00 -0.45593999997E+02  0.45594000000E+02  0.51100000000E-03 0.  1.
         23    2    1    2    0    0 -0.12212453271E-14  0.17763568394E-14  0.00000000000E+00  0.91188000000E+02  0.91188000000E+02 0.  0.
    9900012    2    3    3    0    0  0.67448052357E+00 -0.15446933538E+02  0.33417302498E+02  0.54367098518E+02  0.40000032692E+02 0.  0.
        -12    1    3    3    0    0 -0.67448052357E+00  0.15446933538E+02 -0.33417302498E+02  0.36820901482E+02  0.00000000000E+00 0.  1.
         11    1    4    4    0    0 -0.82898706219E+01  0.24410137828E+00  0.12729727805E+01  0.83905899895E+01  0.51100000000E-03 0. -1.
        -11    1    4    4    0    0 -0.44812381892E+01 -0.17775985775E+02  0.12933346597E+02  0.22435209391E+02  0.51100000000E-03 0.  1.
        -12    1    4    4    0    0  0.13445589335E+02  0.20849508587E+01  0.19210983120E+02  0.23541299137E+02  0.00000000000E+00 0.  1.
</event>
<event>
 8    1  0.1244838E-006  0.9118800E+02  0.7816164E-02  0.1184000E+00
        -11   -1    0    0    0    0  0.00000000000E+00  0.00000000000E+00  0.45593999997E+02  0.45594000000E+02  0.51100000000E-03 0. -1.
         11   -1    0    0    0    0 -0.00000000000E+00 -0.00000000000E+00 -0.45593999997E+02  0.45594000000E+02  0.51100000000E-03 0.  1.
         23    2    1    2    0    0  0.00000000000E+00  0.17763568394E-14 -0.35527136788E-14  0.91188000000E+02  0.91188000000E+02 0.  0.
    9900012    2    3    3    0    0 -0.23223952160E+02 -0.15064420872E+02  0.24279422123E+02  0.54367094678E+02  0.40000023937E+02 0.  0.
        -12    1    3    3    0    0  0.23223952160E+02  0.15064420872E+02 -0.24279422123E+02  0.36820905322E+02  0.00000000000E+00 0.  1.
         11    1    4    4    0    0 -0.12030419181E+02  0.79639223043E+00  0.17768048253E+02  0.21472511852E+02  0.51100000000E-03 0. -1.
        -11    1    4    4    0    0  0.36957462096E+01 -0.14014779242E+02  0.98502491129E+01  0.17524268461E+02  0.51100000000E-03 0.  1.
         12    1    4    4    0    0 -0.14889279189E+02 -0.18460338602E+01 -0.33388752438E+01  0.15370314365E+02  0.00000000000E+00 0. -1.
</event>
<event>
 8    1  0.1244838E-006  0.9118800E+02  0.7816164E-02  0.1184000E+00
        -11   -1    0    0    0    0  0.00000000000E+00  0.00000000000E+00  0.45593999997E+02  0.45594000000E+02  0.51100000000E-03 0.  1.
         11   -1    0    0    0    0 -0.00000000000E+00 -0.00000000000E+00 -0.45593999997E+02  0.45594000000E+02  0.51100000000E-03 0. -1.
         23    2    1    2    0    0  0.35527136788E-14  0.00000000000E+00 -0.17763568394E-14  0.91188000000E+02  0.91188000000E+02 0.  0.
    9900012    2    3    3    0    0  0.31194012571E+02  0.12020001518E+02 -0.15434783833E+02  0.54367090060E+02  0.40000013411E+02 0.  0.
        -12    1    3    3    0    0 -0.31194012571E+02 -0.12020001518E+02  0.15434783833E+02  0.36820909940E+02  0.00000000000E+00 0.  1.
         11    1    4    4    0    0 -0.59688545991E+01 -0.37393365318E+01 -0.62842543646E+00  0.70714059221E+01  0.51100000000E-03 0. -1.
        -11    1    4    4    0    0  0.30936171369E+02  0.83086396030E+01 -0.32431193289E+01  0.32196242239E+02  0.51100000000E-03 0.  1.
         12    1    4    4    0    0  0.62266958013E+01  0.74506984467E+01 -0.11563239068E+02  0.15099441900E+02  0.00000000000E+00 0. -1.
</event>
<event>
 8    1  0.1244838E-006  0.9118800E+02  0.7816164E-02  0.1184000E+00
        -11   -1    0    0    0    0  0.00000000000E+00  0.00000000000E+00  0.45593999997E+02  0.45594000000E+02  0.51100000000E-03 0. -1.
         11   -1    0    0    0    0 -0.00000000000E+00 -0.00000000000E+00 -0.45593999997E+02  0.45594000000E+02  0.51100000000E-03 0.  1.
         23    2    1    2    0    0 -0.35527136788E-14  0.71054273576E-14  0.66613381478E-15  0.91188000000E+02  0.91188000000E+02 0.  0.
    9900012    2    3    3    0    0 -0.18044876177E+02  0.32046172562E+02  0.17903703530E+01  0.54367079885E+02  0.39999990214E+02 0.  0.
        -12    1    3    3    0    0  0.18044876177E+02 -0.32046172562E+02 -0.17903703530E+01  0.36820920115E+02  0.00000000000E+00 0.  1.
         11    1    4    4    0    0 -0.93689394407E+01  0.12495388944E+02  0.58808044372E+01  0.16688188403E+02  0.51100000000E-03 0. -1.
        -11    1    4    4    0    0 -0.31590684683E+01  0.19677860690E+02  0.10179578629E+02  0.22379046813E+02  0.51100000000E-03 0.  1.
        -12    1    4    4    0    0 -0.55168682675E+01 -0.12707707169E+00 -0.14270012713E+02  0.15299844669E+02  0.00000000000E+00 0.  1.
</event>
<event>
 8    1  0.1244838E-006  0.9118800E+02  0.7816164E-02  0.1184000E+00
        -11   -1    0    0    0    0  0.00000000000E+00  0.00000000000E+00  0.45593999997E+02  0.45594000000E+02  0.51100000000E-03 0.  1.
         11   -1    0    0    0    0 -0.00000000000E+00 -0.00000000000E+00 -0.45593999997E+02  0.45594000000E+02  0.51100000000E-03 0. -1.
         23    2    1    2    0    0 -0.88817841970E-15  0.00000000000E+00 -0.35527136788E-14  0.91188000000E+02  0.91188000000E+02 0.  0.
    9900012    2    3    3    0    0  0.51638244929E+01 -0.28231462442E+02  0.23067276920E+02  0.54367084483E+02  0.40000000696E+02 0.  0.
         12    1    3    3    0    0 -0.51638244929E+01  0.28231462442E+02 -0.23067276920E+02  0.36820915517E+02  0.00000000000E+00 0. -1.
         11    1    4    4    0    0  0.10845797578E+02 -0.13460797302E+02  0.15719576157E+02  0.23365133510E+02  0.51100000000E-03 0. -1.
        -11    1    4    4    0    0  0.39113884871E+00 -0.16213297584E+02 -0.51633968608E+01  0.17020125603E+02  0.51100000000E-03 0.  1.
        -12    1    4    4    0    0 -0.60731119340E+01  0.14426324437E+01  0.12511097623E+02  0.13981825370E+02  0.00000000000E+00 0.  1.
</event>
<event>
 8    1  0.1244838E-006  0.9118800E+02  0.7816164E-02  0.1184000E+00
        -11   -1    0    0    0    0  0.00000000000E+00  0.00000000000E+00  0.45593999997E+02  0.45594000000E+02  0.51100000000E-03 0.  1.
         11   -1    0    0    0    0 -0.00000000000E+00 -0.00000000000E+00 -0.45593999997E+02  0.45594000000E+02  0.51100000000E-03 0. -1.
         23    2    1    2    0    0  0.00000000000E+00  0.00000000000E+00 -0.35527136788E-14  0.91188000000E+02  0.91188000000E+02 0.  0.
    9900012    2    3    3    0    0  0.92435267467E+01  0.18483628347E+02  0.30474455449E+02  0.54367085583E+02  0.40000003204E+02 0.  0.
         12    1    3    3    0    0 -0.92435267467E+01 -0.18483628347E+02 -0.30474455449E+02  0.36820914417E+02  0.00000000000E+00 0. -1.
         11    1    4    4    0    0  0.12463663178E+02  0.48108853603E+01  0.10790961705E+02  0.17173595213E+02  0.51100000000E-03 0. -1.
        -11    1    4    4    0    0 -0.80254787562E+01  0.14083223830E+02 -0.72229799202E+00  0.16225511313E+02  0.51100000000E-03 0.  1.
        -12    1    4    4    0    0  0.48053423247E+01 -0.41048084262E+00  0.20405791736E+02  0.20967979057E+02  0.00000000000E+00 0.  1.
</event>
<event>
 8    1  0.1244838E-006  0.9118800E+02  0.7816164E-02  0.1184000E+00
        -11   -1    0    0    0    0  0.00000000000E+00  0.00000000000E+00  0.45593999997E+02  0.45594000000E+02  0.51100000000E-03 0. -1.
         11   -1    0    0    0    0 -0.00000000000E+00 -0.00000000000E+00 -0.45593999997E+02  0.45594000000E+02  0.51100000000E-03 0.  1.
         23    2    1    2    0    0  0.00000000000E+00  0.00000000000E+00  0.00000000000E+00  0.91188000000E+02  0.91188000000E+02 0.  0.
    9900012    2    3    3    0    0 -0.21426670578E+02 -0.18450389752E+02  0.23585187705E+02  0.54367079681E+02  0.39999989749E+02 0.  0.
        -12    1    3    3    0    0  0.21426670578E+02  0.18450389752E+02 -0.23585187705E+02  0.36820920319E+02  0.00000000000E+00 0.  1.
         11    1    4    4    0    0 -0.38448832158E+00  0.46788933297E+00  0.17096654499E+02  0.17107376976E+02  0.51100000000E-03 0. -1.
        -11    1    4    4    0    0 -0.24308334556E+02 -0.84715770972E+01  0.43430997895E+01  0.26106038831E+02  0.51100000000E-03 0.  1.
        -12    1    4    4    0    0  0.32661522997E+01 -0.10446701988E+02  0.21454334165E+01  0.11153663874E+02  0.00000000000E+00 0.  1.
</event>
<event>
 8    1  0.1244838E-006  0.9118800E+02  0.7816164E-02  0.1184000E+00
        -11   -1    0    0    0    0  0.00000000000E+00  0.00000000000E+00  0.45593999997E+02  0.45594000000E+02  0.51100000000E-03 0.  1.
         11   -1    0    0    0    0 -0.00000000000E+00 -0.00000000000E+00 -0.45593999997E+02  0.45594000000E+02  0.51100000000E-03 0. -1.
         23    2    1    2    0    0  0.00000000000E+00  0.00000000000E+00  0.17763568394E-14  0.91188000000E+02  0.91188000000E+02 0.  0.
    9900012    2    3    3    0    0 -0.33300306142E+02 -0.40992835560E+01  0.15167930099E+02  0.54367073636E+02  0.39999975968E+02 0.  0.
         12    1    3    3    0    0  0.33300306142E+02  0.40992835560E+01 -0.15167930099E+02  0.36820926364E+02  0.00000000000E+00 0. -1.
         11    1    4    4    0    0 -0.55234052706E+01  0.10611387943E+02  0.88661566998E+00  0.11995651190E+02  0.51100000000E-03 0. -1.
        -11    1    4    4    0    0 -0.31075404756E+02 -0.12977859876E+02  0.73008364695E+01  0.34458784672E+02  0.51100000000E-03 0.  1.
        -12    1    4    4    0    0  0.32985038843E+01 -0.17328116226E+01  0.69804779598E+01  0.79126377740E+01  0.00000000000E+00 0.  1.
</event>
<event>
 8    1  0.1244838E-006  0.9118800E+02  0.7816164E-02  0.1184000E+00
        -11   -1    0    0    0    0  0.00000000000E+00  0.00000000000E+00  0.45593999997E+02  0.45594000000E+02  0.51100000000E-03 0.  1.
         11   -1    0    0    0    0 -0.00000000000E+00 -0.00000000000E+00 -0.45593999997E+02  0.45594000000E+02  0.51100000000E-03 0. -1.
         23    2    1    2    0    0 -0.17763568394E-14 -0.88817841970E-15  0.00000000000E+00  0.91188000000E+02  0.91188000000E+02 0.  0.
    9900012    2    3    3    0    0  0.11236525360E+02  0.53114958572E+01 -0.34659903184E+02  0.54367076884E+02  0.39999983372E+02 0.  0.
        -12    1    3    3    0    0 -0.11236525360E+02 -0.53114958572E+01  0.34659903184E+02  0.36820923116E+02  0.00000000000E+00 0.  1.
         11    1    4    4    0    0  0.80721319281E+01  0.14336908182E+02 -0.17943608794E+02  0.24345006611E+02  0.51100000000E-03 0. -1.
        -11    1    4    4    0    0  0.82086605700E+01 -0.12495574436E+01 -0.18773583951E+02  0.20527809352E+02  0.51100000000E-03 0.  1.
        -12    1    4    4    0    0 -0.50442671377E+01 -0.77758548814E+01  0.20572895611E+01  0.94942609207E+01  0.00000000000E+00 0.  1.
</event>
<event>
 8    1  0.1244838E-006  0.9118800E+02  0.7816164E-02  0.1184000E+00
        -11   -1    0    0    0    0  0.00000000000E+00  0.00000000000E+00  0.45593999997E+02  0.45594000000E+02  0.51100000000E-03 0. -1.
         11   -1    0    0    0    0 -0.00000000000E+00 -0.00000000000E+00 -0.45593999997E+02  0.45594000000E+02  0.51100000000E-03 0.  1.
         23    2    1    2    0    0  0.00000000000E+00  0.00000000000E+00 -0.35527136788E-14  0.91188000000E+02  0.91188000000E+02 0.  0.
    9900012    2    3    3    0    0 -0.20816611849E+02 -0.22440018447E+02  0.20466922291E+02  0.54367073004E+02  0.39999974528E+02 0.  0.
        -12    1    3    3    0    0  0.20816611849E+02  0.22440018447E+02 -0.20466922291E+02  0.36820926996E+02  0.00000000000E+00 0.  1.
         11    1    4    4    0    0 -0.24946231465E+02 -0.25337715510E+02  0.10071477391E+02  0.36956040760E+02  0.51100000000E-03 0. -1.
        -11    1    4    4    0    0  0.36445311710E+01  0.72660747802E+01  0.10156991511E+02  0.13009339991E+02  0.51100000000E-03 0.  1.
        -12    1    4    4    0    0  0.48508844471E+00 -0.43683777172E+01  0.23845338877E+00  0.44016922538E+01  0.00000000000E+00 0.  1.
</event>
<event>
 8    1  0.1244838E-006  0.9118800E+02  0.7816164E-02  0.1184000E+00
        -11   -1    0    0    0    0  0.00000000000E+00  0.00000000000E+00  0.45593999997E+02  0.45594000000E+02  0.51100000000E-03 0. -1.
         11   -1    0    0    0    0 -0.00000000000E+00 -0.00000000000E+00 -0.45593999997E+02  0.45594000000E+02  0.51100000000E-03 0.  1.
         23    2    1    2    0    0  0.00000000000E+00  0.00000000000E+00 -0.35527136788E-14  0.91188000000E+02  0.91188000000E+02 0.  0.
    9900012    2    3    3    0    0  0.26936645540E+02 -0.12116630618E+02  0.21985970564E+02  0.54367102237E+02  0.40000041169E+02 0.  0.
        -12    1    3    3    0    0 -0.26936645540E+02  0.12116630618E+02 -0.21985970564E+02  0.36820897763E+02  0.00000000000E+00 0.  1.
         11    1    4    4    0    0  0.23645431876E+02 -0.41231593261E+00  0.17325187554E+02  0.29316182853E+02  0.51100000000E-03 0. -1.
        -11    1    4    4    0    0 -0.14300400469E+01  0.34290719982E+00  0.10679513809E+02  0.10780288277E+02  0.51100000000E-03 0.  1.
         12    1    4    4    0    0  0.47212537106E+01 -0.12047221885E+02 -0.60187307985E+01  0.14270631106E+02  0.00000000000E+00 0. -1.
</event>
<event>
 8    1  0.1244838E-006  0.9118800E+02  0.7816164E-02  0.1184000E+00
        -11   -1    0    0    0    0  0.00000000000E+00  0.00000000000E+00  0.45593999997E+02  0.45594000000E+02  0.51100000000E-03 0. -1.
         11   -1    0    0    0    0 -0.00000000000E+00 -0.00000000000E+00 -0.45593999997E+02  0.45594000000E+02  0.51100000000E-03 0.  1.
         23    2    1    2    0    0  0.00000000000E+00  0.00000000000E+00  0.00000000000E+00  0.91188000000E+02  0.91188000000E+02 0.  0.
    9900012    2    3    3    0    0 -0.19809021195E+02 -0.14087798231E+02 -0.27657113072E+02  0.54367091766E+02  0.40000017298E+02 0.  0.
         12    1    3    3    0    0  0.19809021195E+02  0.14087798231E+02  0.27657113072E+02  0.36820908234E+02  0.00000000000E+00 0. -1.
         11    1    4    4    0    0  0.27044939002E+01 -0.10317467488E+01 -0.29133171790E+01  0.41068486527E+01  0.51100000000E-03 0. -1.
        -11    1    4    4    0    0  0.14663983392E+01  0.22309925272E+01 -0.21468737919E+02  0.21634101780E+02  0.51100000000E-03 0.  1.
        -12    1    4    4    0    0 -0.23979913435E+02 -0.15287044009E+02 -0.32750579746E+01  0.28626141333E+02  0.00000000000E+00 0.  1.
</event>
<event>
 8    1  0.1244838E-006  0.9118800E+02  0.7816164E-02  0.1184000E+00
        -11   -1    0    0    0    0  0.00000000000E+00  0.00000000000E+00  0.45593999997E+02  0.45594000000E+02  0.51100000000E-03 0.  1.
         11   -1    0    0    0    0 -0.00000000000E+00 -0.00000000000E+00 -0.45593999997E+02  0.45594000000E+02  0.51100000000E-03 0. -1.
         23    2    1    2    0    0  0.00000000000E+00  0.17763568394E-14  0.00000000000E+00  0.91188000000E+02  0.91188000000E+02 0.  0.
    9900012    2    3    3    0    0  0.24917951500E+02  0.10862845527E+02 -0.24836996353E+02  0.54367053410E+02  0.39999929860E+02 0.  0.
         12    1    3    3    0    0 -0.24917951500E+02 -0.10862845527E+02  0.24836996353E+02  0.36820946590E+02  0.00000000000E+00 0. -1.
         11    1    4    4    0    0  0.21537972317E+02 -0.69236468643E+01 -0.19994669881E+02  0.30192846194E+02  0.51100000000E-03 0. -1.
        -11    1    4    4    0    0 -0.52834170310E+01  0.62051367904E+01  0.16592760905E+01  0.83169354642E+01  0.51100000000E-03 0.  1.
         12    1    4    4    0    0  0.86633962149E+01  0.11581355601E+02 -0.65016025626E+01  0.15857271752E+02  0.00000000000E+00 0. -1.
</event>
<event>
 8    1  0.1244838E-006  0.9118800E+02  0.7816164E-02  0.1184000E+00
        -11   -1    0    0    0    0  0.00000000000E+00  0.00000000000E+00  0.45593999997E+02  0.45594000000E+02  0.51100000000E-03 0. -1.
         11   -1    0    0    0    0 -0.00000000000E+00 -0.00000000000E+00 -0.45593999997E+02  0.45594000000E+02  0.51100000000E-03 0.  1.
         23    2    1    2    0    0 -0.35527136788E-14  0.00000000000E+00  0.00000000000E+00  0.91188000000E+02  0.91188000000E+02 0.  0.
    9900012    2    3    3    0    0 -0.29509381197E+02  0.15971896978E+02  0.15161580943E+02  0.54367100929E+02  0.40000038188E+02 0.  0.
        -12    1    3    3    0    0  0.29509381197E+02 -0.15971896978E+02 -0.15161580943E+02  0.36820899071E+02  0.00000000000E+00 0.  1.
         11    1    4    4    0    0  0.71917219753E+01  0.82567556354E+01  0.77414750782E+01  0.13409896168E+02  0.51100000000E-03 0. -1.
        -11    1    4    4    0    0 -0.58769530013E+01 -0.40154835717E+01  0.28245731446E+01  0.76577345608E+01  0.51100000000E-03 0.  1.
         12    1    4    4    0    0 -0.30824150171E+02  0.11730624915E+02  0.45955327197E+01  0.33299470200E+02  0.00000000000E+00 0. -1.
</event>
<event>
 8    1  0.1244838E-006  0.9118800E+02  0.7816164E-02  0.1184000E+00
        -11   -1    0    0    0    0  0.00000000000E+00  0.00000000000E+00  0.45593999997E+02  0.45594000000E+02  0.51100000000E-03 0.  1.
         11   -1    0    0    0    0 -0.00000000000E+00 -0.00000000000E+00 -0.45593999997E+02  0.45594000000E+02  0.51100000000E-03 0. -1.
         23    2    1    2    0    0  0.35527136788E-14  0.00000000000E+00 -0.11102230246E-14  0.91188000000E+02  0.91188000000E+02 0.  0.
    9900012    2    3    3    0    0 -0.26244622700E+02 -0.25794476234E+02  0.12835130462E+01  0.54367046311E+02  0.39999913675E+02 0.  0.
         12    1    3    3    0    0  0.26244622700E+02  0.25794476234E+02 -0.12835130462E+01  0.36820953689E+02  0.00000000000E+00 0. -1.
         11    1    4    4    0    0 -0.26160312588E+01 -0.13361052874E+02 -0.99056473507E+01  0.16836959438E+02  0.51100000000E-03 0. -1.
        -11    1    4    4    0    0 -0.13795447987E+02 -0.18841578786E+02  0.10947124563E+02  0.25790676858E+02  0.51100000000E-03 0.  1.
        -12    1    4    4    0    0 -0.98331434540E+01  0.64081554263E+01  0.24203583417E+00  0.11739410015E+02  0.00000000000E+00 0.  1.
</event>
<event>
 8    1  0.1244838E-006  0.9118800E+02  0.7816164E-02  0.1184000E+00
        -11   -1    0    0    0    0  0.00000000000E+00  0.00000000000E+00  0.45593999997E+02  0.45594000000E+02  0.51100000000E-03 0. -1.
         11   -1    0    0    0    0 -0.00000000000E+00 -0.00000000000E+00 -0.45593999997E+02  0.45594000000E+02  0.51100000000E-03 0.  1.
         23    2    1    2    0    0 -0.71054273576E-14  0.17763568394E-14 -0.17763568394E-14  0.91188000000E+02  0.91188000000E+02 0.  0.
    9900012    2    3    3    0    0 -0.34408325248E+02  0.86772542872E+01 -0.98263742346E+01  0.54367011163E+02  0.39999833548E+02 0.  0.
         12    1    3    3    0    0  0.34408325248E+02 -0.86772542872E+01  0.98263742346E+01  0.36820988837E+02  0.00000000000E+00 0. -1.
         11    1    4    4    0    0  0.16018050058E+01 -0.12836909644E+01 -0.53873354523E+01  0.57651561388E+01  0.51100000000E-03 0. -1.
        -11    1    4    4    0    0 -0.26882747486E+02  0.17996555696E+02 -0.11743514315E+02  0.34416104631E+02  0.51100000000E-03 0.  1.
         12    1    4    4    0    0 -0.91273827680E+01 -0.80356104439E+01  0.73044755323E+01  0.14185750393E+02  0.00000000000E+00 0. -1.
</event>
<event>
 8    1  0.1244838E-006  0.9118800E+02  0.7816164E-02  0.1184000E+00
        -11   -1    0    0    0    0  0.00000000000E+00  0.00000000000E+00  0.45593999997E+02  0.45594000000E+02  0.51100000000E-03 0. -1.
         11   -1    0    0    0    0 -0.00000000000E+00 -0.00000000000E+00 -0.45593999997E+02  0.45594000000E+02  0.51100000000E-03 0.  1.
         23    2    1    2    0    0  0.00000000000E+00  0.00000000000E+00  0.00000000000E+00  0.91188000000E+02  0.91188000000E+02 0.  0.
    9900012    2    3    3    0    0  0.13079718988E+02  0.12437573957E+02 -0.32093778509E+02  0.54367042466E+02  0.39999904910E+02 0.  0.
         12    1    3    3    0    0 -0.13079718988E+02 -0.12437573957E+02  0.32093778509E+02  0.36820957534E+02  0.00000000000E+00 0. -1.
         11    1    4    4    0    0  0.19210942725E+02  0.97987056702E+01 -0.23694000868E+02  0.32038736408E+02  0.51100000000E-03 0. -1.
        -11    1    4    4    0    0 -0.97007225339E+01  0.18994953207E+00 -0.12862122488E+02  0.16111309496E+02  0.51100000000E-03 0.  1.
         12    1    4    4    0    0  0.35694987962E+01  0.24489187551E+01  0.44623448475E+01  0.62169965629E+01  0.00000000000E+00 0. -1.
</event>
<event>
 8    1  0.1244838E-006  0.9118800E+02  0.7816164E-02  0.1184000E+00
        -11   -1    0    0    0    0  0.00000000000E+00  0.00000000000E+00  0.45593999997E+02  0.45594000000E+02  0.51100000000E-03 0. -1.
         11   -1    0    0    0    0 -0.00000000000E+00 -0.00000000000E+00 -0.45593999997E+02  0.45594000000E+02  0.51100000000E-03 0.  1.
         23    2    1    2    0    0 -0.22204460493E-15  0.35527136788E-14  0.00000000000E+00  0.91188000000E+02  0.91188000000E+02 0.  0.
    9900012    2    3    3    0    0  0.16574603220E+01 -0.18998561171E+02  0.31497405761E+02  0.54367094648E+02  0.40000023868E+02 0.  0.
        -12    1    3    3    0    0 -0.16574603220E+01  0.18998561171E+02 -0.31497405761E+02  0.36820905352E+02  0.00000000000E+00 0.  1.
         11    1    4    4    0    0 -0.43217544529E+01 -0.61138666414E+01  0.23295195874E+02  0.24468818482E+02  0.51100000000E-03 0. -1.
        -11    1    4    4    0    0  0.69999391718E+01 -0.14730804112E+02 -0.45823177732E+01  0.16940878804E+02  0.51100000000E-03 0.  1.
        -12    1    4    4    0    0 -0.10207243969E+01  0.18461095826E+01  0.12784527661E+02  0.12957397362E+02  0.00000000000E+00 0.  1.
</event>
<event>
 8    1  0.1244838E-006  0.9118800E+02  0.7816164E-02  0.1184000E+00
        -11   -1    0    0    0    0  0.00000000000E+00  0.00000000000E+00  0.45593999997E+02  0.45594000000E+02  0.51100000000E-03 0.  1.
         11   -1    0    0    0    0 -0.00000000000E+00 -0.00000000000E+00 -0.45593999997E+02  0.45594000000E+02  0.51100000000E-03 0. -1.
         23    2    1    2    0    0  0.00000000000E+00  0.00000000000E+00 -0.88817841970E-15  0.91188000000E+02  0.91188000000E+02 0.  0.
    9900012    2    3    3    0    0 -0.27871300615E+02  0.23856745142E+02 -0.31341415591E+01  0.54367129151E+02  0.40000102526E+02 0.  0.
        -12    1    3    3    0    0  0.27871300615E+02 -0.23856745142E+02  0.31341415591E+01  0.36820870849E+02  0.00000000000E+00 0.  1.
         11    1    4    4    0    0 -0.17575975413E+02  0.30212875280E+02  0.41068365791E+01  0.35193733126E+02  0.51100000000E-03 0. -1.
        -11    1    4    4    0    0 -0.29252330034E+01  0.19916337766E+00 -0.87198331581E+01  0.91995730739E+01  0.51100000000E-03 0.  1.
        -12    1    4    4    0    0 -0.73700921994E+01 -0.65552935157E+01  0.14788550199E+01  0.99738229518E+01  0.00000000000E+00 0.  1.
</event>
<event>
 8    1  0.1244838E-006  0.9118800E+02  0.7816164E-02  0.1184000E+00
        -11   -1    0    0    0    0  0.00000000000E+00  0.00000000000E+00  0.45593999997E+02  0.45594000000E+02  0.51100000000E-03 0.  1.
         11   -1    0    0    0    0 -0.00000000000E+00 -0.00000000000E+00 -0.45593999997E+02  0.45594000000E+02  0.51100000000E-03 0. -1.
         23    2    1    2    0    0  0.00000000000E+00  0.00000000000E+00  0.00000000000E+00  0.91188000000E+02  0.91188000000E+02 0.  0.
    9900012    2    3    3    0    0 -0.62442420287E+01 -0.33199881183E+02  0.14647703673E+02  0.54367110658E+02  0.40000060366E+02 0.  0.
         12    1    3    3    0    0  0.62442420287E+01  0.33199881183E+02 -0.14647703673E+02  0.36820889342E+02  0.00000000000E+00 0. -1.
         11    1    4    4    0    0 -0.56891139033E+01 -0.30990413300E+02  0.72641004651E+01  0.32334793788E+02  0.51100000000E-03 0. -1.
        -11    1    4    4    0    0 -0.26074328937E+01 -0.44447735862E+01  0.13910589873E+02  0.14834393462E+02  0.51100000000E-03 0.  1.
         12    1    4    4    0    0  0.20523047683E+01  0.22353057029E+01 -0.65269866651E+01  0.71979234071E+01  0.00000000000E+00 0. -1.
</event>
<event>
 8    1  0.1244838E-006  0.9118800E+02  0.7816164E-02  0.1184000E+00
        -11   -1    0    0    0    0  0.00000000000E+00  0.00000000000E+00  0.45593999997E+02  0.45594000000E+02  0.51100000000E-03 0.  1.
         11   -1    0    0    0    0 -0.00000000000E+00 -0.00000000000E+00 -0.45593999997E+02  0.45594000000E+02  0.51100000000E-03 0. -1.
         23    2    1    2    0    0 -0.35527136788E-14  0.00000000000E+00  0.17763568394E-14  0.91188000000E+02  0.91188000000E+02 0.  0.
    9900012    2    3    3    0    0 -0.23669899049E+02 -0.25849765467E+02 -0.11282974061E+02  0.54367082041E+02  0.39999995129E+02 0.  0.
        -12    1    3    3    0    0  0.23669899049E+02  0.25849765467E+02  0.11282974061E+02  0.36820917959E+02  0.00000000000E+00 0.  1.
         11    1    4    4    0    0 -0.10788592336E+02 -0.42817220806E+01 -0.18564738889E+02  0.21894665991E+02  0.51100000000E-03 0.  1.
        -11    1    4    4    0    0 -0.86716165915E+01 -0.14627285033E+01 -0.32663421184E+01  0.93811246703E+01  0.51100000000E-03 0. -1.
         12    1    4    4    0    0 -0.42096901220E+01 -0.20105314883E+02  0.10548106946E+02  0.23091291380E+02  0.00000000000E+00 0. -1.
</event>
<event>
 8    1  0.1244838E-006  0.9118800E+02  0.7816164E-02  0.1184000E+00
        -11   -1    0    0    0    0  0.00000000000E+00  0.00000000000E+00  0.45593999997E+02  0.45594000000E+02  0.51100000000E-03 0.  1.
         11   -1    0    0    0    0 -0.00000000000E+00 -0.00000000000E+00 -0.45593999997E+02  0.45594000000E+02  0.51100000000E-03 0. -1.
         23    2    1    2    0    0  0.00000000000E+00 -0.17763568394E-14 -0.26645352591E-14  0.91188000000E+02  0.91188000000E+02 0.  0.
    9900012    2    3    3    0    0  0.33068397375E+02 -0.15719874954E+02  0.38920791039E+01  0.54367059582E+02  0.39999943928E+02 0.  0.
        -12    1    3    3    0    0 -0.33068397375E+02  0.15719874954E+02 -0.38920791039E+01  0.36820940418E+02  0.00000000000E+00 0.  1.
         11    1    4    4    0    0  0.10918309610E+02 -0.12836266951E+02 -0.11365266378E+02  0.20326055055E+02  0.51100000000E-03 0. -1.
        -11    1    4    4    0    0  0.18333145603E+01 -0.30258802927E+01 -0.44844595060E+01  0.57120373901E+01  0.51100000000E-03 0.  1.
        -12    1    4    4    0    0  0.20316773205E+02  0.14227228998E+00  0.19741804988E+02  0.28328967137E+02  0.00000000000E+00 0.  1.
</event>
<event>
 8    1  0.1244838E-006  0.9118800E+02  0.7816164E-02  0.1184000E+00
        -11   -1    0    0    0    0  0.00000000000E+00  0.00000000000E+00  0.45593999997E+02  0.45594000000E+02  0.51100000000E-03 0.  1.
         11   -1    0    0    0    0 -0.00000000000E+00 -0.00000000000E+00 -0.45593999997E+02  0.45594000000E+02  0.51100000000E-03 0. -1.
         23    2    1    2    0    0  0.00000000000E+00  0.17763568394E-14  0.00000000000E+00  0.91188000000E+02  0.91188000000E+02 0.  0.
    9900012    2    3    3    0    0 -0.24467311985E+02 -0.15240509567E+02  0.22909778510E+02  0.54367076071E+02  0.39999981518E+02 0.  0.
        -12    1    3    3    0    0  0.24467311985E+02  0.15240509567E+02 -0.22909778510E+02  0.36820923929E+02  0.00000000000E+00 0.  1.
         11    1    4    4    0    0 -0.98637769881E+01 -0.11528615046E+02  0.12526407647E+02  0.19675211565E+02  0.51100000000E-03 0. -1.
        -11    1    4    4    0    0 -0.15967400007E+02  0.48366934871E+01 -0.46715395751E+01  0.17325551914E+02  0.51100000000E-03 0.  1.
        -12    1    4    4    0    0  0.13638650098E+01 -0.85485880079E+01  0.15054910439E+02  0.17366312591E+02  0.00000000000E+00 0.  1.
</event>
<event>
 8    1  0.1244838E-006  0.9118800E+02  0.7816164E-02  0.1184000E+00
        -11   -1    0    0    0    0  0.00000000000E+00  0.00000000000E+00  0.45593999997E+02  0.45594000000E+02  0.51100000000E-03 0.  1.
         11   -1    0    0    0    0 -0.00000000000E+00 -0.00000000000E+00 -0.45593999997E+02  0.45594000000E+02  0.51100000000E-03 0. -1.
         23    2    1    2    0    0  0.00000000000E+00  0.44408920985E-15 -0.17763568394E-14  0.91188000000E+02  0.91188000000E+02 0.  0.
    9900012    2    3    3    0    0 -0.33147724771E+02 -0.24887452643E+01 -0.15837039868E+02  0.54367118122E+02  0.40000077383E+02 0.  0.
        -12    1    3    3    0    0  0.33147724771E+02  0.24887452643E+01  0.15837039868E+02  0.36820881878E+02  0.00000000000E+00 0.  1.
         11    1    4    4    0    0 -0.67037115376E+00 -0.35249256599E+01  0.96273717545E+01  0.10274277860E+02  0.51100000000E-03 0.  1.
        -11    1    4    4    0    0 -0.16811533609E+02  0.81974649746E+01 -0.11903416722E+02  0.22170192246E+02  0.51100000000E-03 0. -1.
         12    1    4    4    0    0 -0.15665820008E+02 -0.71612845789E+01 -0.13560994901E+02  0.21922648016E+02  0.00000000000E+00 0. -1.
</event>
<event>
 8    1  0.1244838E-006  0.9118800E+02  0.7816164E-02  0.1184000E+00
        -11   -1    0    0    0    0  0.00000000000E+00  0.00000000000E+00  0.45593999997E+02  0.45594000000E+02  0.51100000000E-03 0. -1.
         11   -1    0    0    0    0 -0.00000000000E+00 -0.00000000000E+00 -0.45593999997E+02  0.45594000000E+02  0.51100000000E-03 0.  1.
         23    2    1    2    0    0  0.00000000000E+00  0.35527136788E-14  0.17763568394E-14  0.91188000000E+02  0.91188000000E+02 0.  0.
    9900012    2    3    3    0    0 -0.29285751080E+02  0.20453610502E+02  0.89316687898E+01  0.54367080589E+02  0.39999991819E+02 0.  0.
         12    1    3    3    0    0  0.29285751080E+02 -0.20453610502E+02 -0.89316687898E+01  0.36820919411E+02  0.00000000000E+00 0. -1.
         11    1    4    4    0    0 -0.15946371394E+02  0.19753035925E+02  0.14866636855E+02  0.29419144796E+02  0.51100000000E-03 0. -1.
        -11    1    4    4    0    0 -0.16266177793E+02  0.12551765690E+01  0.20335856926E+01  0.16440787062E+02  0.51100000000E-03 0.  1.
        -12    1    4    4    0    0  0.29267981067E+01 -0.55460199203E+00 -0.79685537582E+01  0.85071487306E+01  0.00000000000E+00 0.  1.
</event>
<event>
 8    1  0.1244838E-006  0.9118800E+02  0.7816164E-02  0.1184000E+00
        -11   -1    0    0    0    0  0.00000000000E+00  0.00000000000E+00  0.45593999997E+02  0.45594000000E+02  0.51100000000E-03 0.  1.
         11   -1    0    0    0    0 -0.00000000000E+00 -0.00000000000E+00 -0.45593999997E+02  0.45594000000E+02  0.51100000000E-03 0. -1.
         23    2    1    2    0    0  0.71054273576E-14  0.44408920985E-15  0.00000000000E+00  0.91188000000E+02  0.91188000000E+02 0.  0.
    9900012    2    3    3    0    0  0.32585933466E+02  0.28392621952E+01  0.16907847300E+02  0.54367085155E+02  0.40000002228E+02 0.  0.
         12    1    3    3    0    0 -0.32585933466E+02 -0.28392621952E+01 -0.16907847300E+02  0.36820914845E+02  0.00000000000E+00 0. -1.
         11    1    4    4    0    0  0.17035301356E+02 -0.11005771784E+02 -0.24069569873E+01  0.20423563525E+02  0.51100000000E-03 0. -1.
        -11    1    4    4    0    0 -0.86309738292E-01  0.10661070695E+02  0.12923023576E+02  0.16753221074E+02  0.51100000000E-03 0.  1.
        -12    1    4    4    0    0  0.15636941848E+02  0.31839632838E+01  0.63917807110E+01  0.17190300556E+02  0.00000000000E+00 0.  1.
</event>
<event>
 8    1  0.1244838E-006  0.9118800E+02  0.7816164E-02  0.1184000E+00
        -11   -1    0    0    0    0  0.00000000000E+00  0.00000000000E+00  0.45593999997E+02  0.45594000000E+02  0.51100000000E-03 0. -1.
         11   -1    0    0    0    0 -0.00000000000E+00 -0.00000000000E+00 -0.45593999997E+02  0.45594000000E+02  0.51100000000E-03 0.  1.
         23    2    1    2    0    0  0.00000000000E+00  0.00000000000E+00  0.00000000000E+00  0.91188000000E+02  0.91188000000E+02 0.  0.
    9900012    2    3    3    0    0  0.24506158126E+02 -0.43445915511E+01  0.27135774196E+02  0.54367115939E+02  0.40000072405E+02 0.  0.
         12    1    3    3    0    0 -0.24506158126E+02  0.43445915511E+01 -0.27135774196E+02  0.36820884061E+02  0.00000000000E+00 0. -1.
         11    1    4    4    0    0  0.11284861805E+02 -0.21571039871E+02  0.16995263410E+02  0.29690012558E+02  0.51100000000E-03 0. -1.
        -11    1    4    4    0    0  0.26015016206E+01  0.79878296549E+01  0.43031421876E+01  0.94387640200E+01  0.51100000000E-03 0.  1.
         12    1    4    4    0    0  0.10619794700E+02  0.92386186650E+01  0.58373685989E+01  0.15238339361E+02  0.00000000000E+00 0. -1.
</event>
<event>
 8    1  0.1244838E-006  0.9118800E+02  0.7816164E-02  0.1184000E+00
        -11   -1    0    0    0    0  0.00000000000E+00  0.00000000000E+00  0.45593999997E+02  0.45594000000E+02  0.51100000000E-03 0. -1.
         11   -1    0    0    0    0 -0.00000000000E+00 -0.00000000000E+00 -0.45593999997E+02  0.45594000000E+02  0.51100000000E-03 0.  1.
         23    2    1    2    0    0  0.35527136788E-14  0.00000000000E+00 -0.35527136788E-14  0.91188000000E+02  0.91188000000E+02 0.  0.
    9900012    2    3    3    0    0  0.29048472116E+02  0.55794173954E+01  0.21927995161E+02  0.54367073850E+02  0.39999976456E+02 0.  0.
         12    1    3    3    0    0 -0.29048472116E+02 -0.55794173954E+01 -0.21927995161E+02  0.36820926150E+02  0.00000000000E+00 0. -1.
         11    1    4    4    0    0  0.62492631409E+01 -0.49387987225E+01  0.17092164513E+02  0.18857017543E+02  0.51100000000E-03 0. -1.
        -11    1    4    4    0    0  0.23958262106E+02  0.69913487591E+01 -0.45930644434E+01  0.25376633383E+02  0.51100000000E-03 0.  1.
        -12    1    4    4    0    0 -0.11590531304E+01  0.35268673587E+01  0.94288950913E+01  0.10133422925E+02  0.00000000000E+00 0.  1.
</event>
<event>
 8    1  0.1244838E-006  0.9118800E+02  0.7816164E-02  0.1184000E+00
        -11   -1    0    0    0    0  0.00000000000E+00  0.00000000000E+00  0.45593999997E+02  0.45594000000E+02  0.51100000000E-03 0. -1.
         11   -1    0    0    0    0 -0.00000000000E+00 -0.00000000000E+00 -0.45593999997E+02  0.45594000000E+02  0.51100000000E-03 0.  1.
         23    2    1    2    0    0  0.00000000000E+00  0.00000000000E+00  0.00000000000E+00  0.91188000000E+02  0.91188000000E+02 0.  0.
    9900012    2    3    3    0    0 -0.54700190310E+01  0.32664603292E+02 -0.16089827752E+02  0.54367082392E+02  0.39999995929E+02 0.  0.
         12    1    3    3    0    0  0.54700190310E+01 -0.32664603292E+02  0.16089827752E+02  0.36820917608E+02  0.00000000000E+00 0. -1.
         11    1    4    4    0    0 -0.44529834143E+00  0.78755778283E+01 -0.20263781332E+02  0.21744973002E+02  0.51100000000E-03 0. -1.
        -11    1    4    4    0    0  0.18561276395E+01  0.10309546454E+02  0.11007373806E+02  0.15195204383E+02  0.51100000000E-03 0.  1.
        -12    1    4    4    0    0 -0.68808483291E+01  0.14479479010E+02 -0.68334202260E+01  0.17426905007E+02  0.00000000000E+00 0.  1.
</event>
<event>
 8    1  0.1244838E-006  0.9118800E+02  0.7816164E-02  0.1184000E+00
        -11   -1    0    0    0    0  0.00000000000E+00  0.00000000000E+00  0.45593999997E+02  0.45594000000E+02  0.51100000000E-03 0.  1.
         11   -1    0    0    0    0 -0.00000000000E+00 -0.00000000000E+00 -0.45593999997E+02  0.45594000000E+02  0.51100000000E-03 0. -1.
         23    2    1    2    0    0  0.00000000000E+00  0.00000000000E+00  0.00000000000E+00  0.91188000000E+02  0.91188000000E+02 0.  0.
    9900012    2    3    3    0    0  0.34598246973E+02  0.10928979779E+02  0.62685925072E+01  0.54367128953E+02  0.40000102074E+02 0.  0.
        -12    1    3    3    0    0 -0.34598246973E+02 -0.10928979779E+02 -0.62685925072E+01  0.36820871047E+02  0.00000000000E+00 0.  1.
         11    1    4    4    0    0 -0.33694478452E+01  0.43216118278E+00 -0.86068456122E+01  0.92529851250E+01  0.51100000000E-03 0. -1.
        -11    1    4    4    0    0  0.27017382059E+02  0.17189750743E+01  0.40142532856E+01  0.27368011223E+02  0.51100000000E-03 0.  1.
         12    1    4    4    0    0  0.10950312760E+02  0.87778435222E+01  0.10861184834E+02  0.17746132605E+02  0.00000000000E+00 0. -1.
</event>
<event>
 8    1  0.1244838E-006  0.9118800E+02  0.7816164E-02  0.1184000E+00
        -11   -1    0    0    0    0  0.00000000000E+00  0.00000000000E+00  0.45593999997E+02  0.45594000000E+02  0.51100000000E-03 0.  1.
         11   -1    0    0    0    0 -0.00000000000E+00 -0.00000000000E+00 -0.45593999997E+02  0.45594000000E+02  0.51100000000E-03 0. -1.
         23    2    1    2    0    0  0.00000000000E+00 -0.17763568394E-14 -0.35527136788E-14  0.91188000000E+02  0.91188000000E+02 0.  0.
    9900012    2    3    3    0    0  0.19071737478E+02 -0.76604010041E+01 -0.30550891066E+02  0.54367219741E+02  0.40000309042E+02 0.  0.
        -12    1    3    3    0    0 -0.19071737478E+02  0.76604010041E+01  0.30550891066E+02  0.36820780259E+02  0.00000000000E+00 0.  1.
         11    1    4    4    0    0  0.16361861058E+02 -0.21003152196E+02 -0.22837513117E+02  0.35076985404E+02  0.51100000000E-03 0. -1.
        -11    1    4    4    0    0 -0.43810518708E+01  0.64097442761E+01 -0.33969458853E+01  0.84745311840E+01  0.51100000000E-03 0.  1.
         12    1    4    4    0    0  0.70909282911E+01  0.69330069158E+01 -0.43164320639E+01  0.10815703153E+02  0.00000000000E+00 0. -1.
</event>
<event>
 8    1  0.1244838E-006  0.9118800E+02  0.7816164E-02  0.1184000E+00
        -11   -1    0    0    0    0  0.00000000000E+00  0.00000000000E+00  0.45593999997E+02  0.45594000000E+02  0.51100000000E-03 0. -1.
         11   -1    0    0    0    0 -0.00000000000E+00 -0.00000000000E+00 -0.45593999997E+02  0.45594000000E+02  0.51100000000E-03 0.  1.
         23    2    1    2    0    0  0.35527136788E-14 -0.35527136788E-14 -0.35527136788E-14  0.91188000000E+02  0.91188000000E+02 0.  0.
    9900012    2    3    3    0    0 -0.20982268844E+02  0.14948363094E+02 -0.26307234100E+02  0.54367085685E+02  0.40000003435E+02 0.  0.
         12    1    3    3    0    0  0.20982268844E+02 -0.14948363094E+02  0.26307234100E+02  0.36820914315E+02  0.00000000000E+00 0. -1.
         11    1    4    4    0    0 -0.15301027758E+02 -0.74876987625E+00 -0.33662644854E+01  0.15684828454E+02  0.51100000000E-03 0.  1.
        -11    1    4    4    0    0 -0.16518125255E+01  0.95146385617E+01  0.42184288771E+01  0.10538120043E+02  0.51100000000E-03 0. -1.
         12    1    4    4    0    0 -0.40294285601E+01  0.61824944089E+01 -0.27159398491E+02  0.28144137188E+02  0.00000000000E+00 0. -1.
</event>
<event>
 8    1  0.1244838E-006  0.9118800E+02  0.7816164E-02  0.1184000E+00
        -11   -1    0    0    0    0  0.00000000000E+00  0.00000000000E+00  0.45593999997E+02  0.45594000000E+02  0.51100000000E-03 0.  1.
         11   -1    0    0    0    0 -0.00000000000E+00 -0.00000000000E+00 -0.45593999997E+02  0.45594000000E+02  0.51100000000E-03 0. -1.
         23    2    1    2    0    0  0.00000000000E+00  0.00000000000E+00  0.00000000000E+00  0.91188000000E+02  0.91188000000E+02 0.  0.
    9900012    2    3    3    0    0  0.95643974069E+01 -0.32093991106E+02  0.15306108366E+02  0.54367096750E+02  0.40000028660E+02 0.  0.
        -12    1    3    3    0    0 -0.95643974069E+01  0.32093991106E+02 -0.15306108366E+02  0.36820903250E+02  0.00000000000E+00 0.  1.
         11    1    4    4    0    0  0.74839182774E+01 -0.10746963262E+02 -0.93139833102E+01  0.16070362083E+02  0.51100000000E-03 0. -1.
        -11    1    4    4    0    0 -0.59969802685E+01 -0.19429406820E+02  0.13451256319E+02  0.24380359278E+02  0.51100000000E-03 0.  1.
        -12    1    4    4    0    0  0.80774593979E+01 -0.19176210246E+01  0.11168835357E+02  0.13916375388E+02  0.00000000000E+00 0.  1.
</event>
<event>
 8    1  0.1244838E-006  0.9118800E+02  0.7816164E-02  0.1184000E+00
        -11   -1    0    0    0    0  0.00000000000E+00  0.00000000000E+00  0.45593999997E+02  0.45594000000E+02  0.51100000000E-03 0. -1.
         11   -1    0    0    0    0 -0.00000000000E+00 -0.00000000000E+00 -0.45593999997E+02  0.45594000000E+02  0.51100000000E-03 0.  1.
         23    2    1    2    0    0  0.00000000000E+00 -0.35527136788E-14  0.00000000000E+00  0.91188000000E+02  0.91188000000E+02 0.  0.
    9900012    2    3    3    0    0  0.47815104272E+01  0.19109012196E+02  0.31108917200E+02  0.54367055982E+02  0.39999935722E+02 0.  0.
        -12    1    3    3    0    0 -0.47815104272E+01 -0.19109012196E+02 -0.31108917200E+02  0.36820944018E+02  0.00000000000E+00 0.  1.
         11    1    4    4    0    0 -0.52161118975E+01  0.54348670259E+01  0.77561592867E+01  0.10812197282E+02  0.51100000000E-03 0.  1.
        -11    1    4    4    0    0  0.15366189897E+02  0.10164230753E+02  0.29428563327E+02  0.34719903781E+02  0.51100000000E-03 0. -1.
        -12    1    4    4    0    0 -0.53685675726E+01  0.35099144170E+01 -0.60758054144E+01  0.88349549195E+01  0.00000000000E+00 0.  1.
</event>
<event>
 8    1  0.1244838E-006  0.9118800E+02  0.7816164E-02  0.1184000E+00
        -11   -1    0    0    0    0  0.00000000000E+00  0.00000000000E+00  0.45593999997E+02  0.45594000000E+02  0.51100000000E-03 0.  1.
         11   -1    0    0    0    0 -0.00000000000E+00 -0.00000000000E+00 -0.45593999997E+02  0.45594000000E+02  0.51100000000E-03 0. -1.
         23    2    1    2    0    0  0.00000000000E+00  0.88817841970E-15  0.88817841970E-15  0.91188000000E+02  0.91188000000E+02 0.  0.
    9900012    2    3    3    0    0 -0.36466141296E+02  0.47663196095E+01  0.18094372156E+01  0.54367199809E+02  0.40000263605E+02 0.  0.
         12    1    3    3    0    0  0.36466141296E+02 -0.47663196095E+01 -0.18094372156E+01  0.36820800191E+02  0.00000000000E+00 0. -1.
         11    1    4    4    0    0 -0.10501725231E+02 -0.15420631861E+01 -0.10581454164E+02  0.14987707102E+02  0.51100000000E-03 0. -1.
        -11    1    4    4    0    0 -0.28782480571E+02 -0.10495857204E+01  0.64588891292E+01  0.29516945422E+02  0.51100000000E-03 0.  1.
         12    1    4    4    0    0  0.28180645062E+01  0.73579685159E+01  0.59320022506E+01  0.98625472847E+01  0.00000000000E+00 0. -1.
</event>
<event>
 8    1  0.1244838E-006  0.9118800E+02  0.7816164E-02  0.1184000E+00
        -11   -1    0    0    0    0  0.00000000000E+00  0.00000000000E+00  0.45593999997E+02  0.45594000000E+02  0.51100000000E-03 0.  1.
         11   -1    0    0    0    0 -0.00000000000E+00 -0.00000000000E+00 -0.45593999997E+02  0.45594000000E+02  0.51100000000E-03 0. -1.
         23    2    1    2    0    0 -0.17763568394E-14  0.00000000000E+00  0.00000000000E+00  0.91188000000E+02  0.91188000000E+02 0.  0.
    9900012    2    3    3    0    0  0.10260869328E+02 -0.32380507079E+02  0.14212545285E+02  0.54367093961E+02  0.40000022303E+02 0.  0.
         12    1    3    3    0    0 -0.10260869328E+02  0.32380507079E+02 -0.14212545285E+02  0.36820906039E+02  0.00000000000E+00 0. -1.
         11    1    4    4    0    0  0.71357286020E+01  0.23458717369E+01 -0.86262020712E+01  0.11438229728E+02  0.51100000000E-03 0. -1.
        -11    1    4    4    0    0  0.22907839959E+01 -0.85590504675E+01  0.11191607533E+02  0.14274351672E+02  0.51100000000E-03 0.  1.
         12    1    4    4    0    0  0.83435672974E+00 -0.26167328348E+02  0.11647139823E+02  0.28654512561E+02  0.00000000000E+00 0. -1.
</event>
<event>
 8    1  0.1244838E-006  0.9118800E+02  0.7816164E-02  0.1184000E+00
        -11   -1    0    0    0    0  0.00000000000E+00  0.00000000000E+00  0.45593999997E+02  0.45594000000E+02  0.51100000000E-03 0.  1.
         11   -1    0    0    0    0 -0.00000000000E+00 -0.00000000000E+00 -0.45593999997E+02  0.45594000000E+02  0.51100000000E-03 0. -1.
         23    2    1    2    0    0  0.00000000000E+00 -0.26645352591E-14  0.26367796835E-15  0.91188000000E+02  0.91188000000E+02 0.  0.
    9900012    2    3    3    0    0  0.36501786484E+02  0.48371728825E+01  0.65174032296E-01  0.54367042575E+02  0.39999905158E+02 0.  0.
        -12    1    3    3    0    0 -0.36501786484E+02 -0.48371728825E+01 -0.65174032296E-01  0.36820957425E+02  0.00000000000E+00 0.  1.
         11    1    4    4    0    0  0.10815780605E+02 -0.26426237317E+01  0.84895908759E+01  0.14001347213E+02  0.51100000000E-03 0. -1.
        -11    1    4    4    0    0  0.24424122205E+02  0.16889003418E+02 -0.84450103272E+01  0.30872226703E+02  0.51100000000E-03 0.  1.
        -12    1    4    4    0    0  0.12618836740E+01 -0.94092068035E+01  0.20593483621E-01  0.94934686585E+01  0.00000000000E+00 0.  1.
</event>
<event>
 8    1  0.1244838E-006  0.9118800E+02  0.7816164E-02  0.1184000E+00
        -11   -1    0    0    0    0  0.00000000000E+00  0.00000000000E+00  0.45593999997E+02  0.45594000000E+02  0.51100000000E-03 0.  1.
         11   -1    0    0    0    0 -0.00000000000E+00 -0.00000000000E+00 -0.45593999997E+02  0.45594000000E+02  0.51100000000E-03 0. -1.
         23    2    1    2    0    0  0.00000000000E+00  0.71054273576E-14 -0.17763568394E-14  0.91188000000E+02  0.91188000000E+02 0.  0.
    9900012    2    3    3    0    0  0.11848221743E+02  0.32886472280E+02 -0.11569904353E+02  0.54367311464E+02  0.40000518142E+02 0.  0.
         12    1    3    3    0    0 -0.11848221743E+02 -0.32886472280E+02  0.11569904353E+02  0.36820688536E+02  0.00000000000E+00 0. -1.
         11    1    4    4    0    0 -0.62932897405E+01  0.19540349804E+02  0.27458494982E+01  0.20711601965E+02  0.51100000000E-03 0. -1.
        -11    1    4    4    0    0  0.13422391189E+02  0.12258914466E+02  0.38058814043E+00  0.18182035549E+02  0.51100000000E-03 0.  1.
         12    1    4    4    0    0  0.47191202940E+01  0.10872080103E+01 -0.14696341991E+02  0.15473673951E+02  0.00000000000E+00 0. -1.
</event>
<event>
 8    1  0.1244838E-006  0.9118800E+02  0.7816164E-02  0.1184000E+00
        -11   -1    0    0    0    0  0.00000000000E+00  0.00000000000E+00  0.45593999997E+02  0.45594000000E+02  0.51100000000E-03 0.  1.
         11   -1    0    0    0    0 -0.00000000000E+00 -0.00000000000E+00 -0.45593999997E+02  0.45594000000E+02  0.51100000000E-03 0. -1.
         23    2    1    2    0    0 -0.88817841970E-15 -0.71054273576E-14  0.35527136788E-14  0.91188000000E+02  0.91188000000E+02 0.  0.
    9900012    2    3    3    0    0  0.47481735776E+01  0.25577107156E+02 -0.26058515511E+02  0.54367084837E+02  0.40000001502E+02 0.  0.
        -12    1    3    3    0    0 -0.47481735776E+01 -0.25577107156E+02  0.26058515511E+02  0.36820915163E+02  0.00000000000E+00 0.  1.
         11    1    4    4    0    0 -0.21030691269E+00  0.67726732371E+01 -0.79378263753E+01  0.10436590420E+02  0.51100000000E-03 0. -1.
        -11    1    4    4    0    0  0.28980521130E+01 -0.65120952592E+01 -0.17081490049E+02  0.18509008435E+02  0.51100000000E-03 0.  1.
         12    1    4    4    0    0  0.20604283774E+01  0.25316529179E+02 -0.10391990874E+01  0.25421485981E+02  0.00000000000E+00 0. -1.
</event>
<event>
 8    1  0.1244838E-006  0.9118800E+02  0.7816164E-02  0.1184000E+00
        -11   -1    0    0    0    0  0.00000000000E+00  0.00000000000E+00  0.45593999997E+02  0.45594000000E+02  0.51100000000E-03 0.  1.
         11   -1    0    0    0    0 -0.00000000000E+00 -0.00000000000E+00 -0.45593999997E+02  0.45594000000E+02  0.51100000000E-03 0. -1.
         23    2    1    2    0    0  0.00000000000E+00 -0.44408920985E-15  0.35527136788E-14  0.91188000000E+02  0.91188000000E+02 0.  0.
    9900012    2    3    3    0    0 -0.19517846857E+02  0.32207490502E+01  0.31055767209E+02  0.54367078674E+02  0.39999987453E+02 0.  0.
         12    1    3    3    0    0  0.19517846857E+02 -0.32207490502E+01 -0.31055767209E+02  0.36820921326E+02  0.00000000000E+00 0. -1.
         11    1    4    4    0    0 -0.82503360953E+01 -0.62667928506E+01 -0.36241156819E+01  0.10976108284E+02  0.51100000000E-03 0. -1.
        -11    1    4    4    0    0 -0.73076446701E+01  0.14244491953E+02  0.33445337021E+02  0.37079614216E+02  0.51100000000E-03 0.  1.
        -12    1    4    4    0    0 -0.39598660912E+01 -0.47569500525E+01  0.12345458692E+01  0.63113561749E+01  0.00000000000E+00 0.  1.
</event>
<event>
 8    1  0.1244838E-006  0.9118800E+02  0.7816164E-02  0.1184000E+00
        -11   -1    0    0    0    0  0.00000000000E+00  0.00000000000E+00  0.45593999997E+02  0.45594000000E+02  0.51100000000E-03 0.  1.
         11   -1    0    0    0    0 -0.00000000000E+00 -0.00000000000E+00 -0.45593999997E+02  0.45594000000E+02  0.51100000000E-03 0. -1.
         23    2    1    2    0    0  0.00000000000E+00  0.35527136788E-14 -0.35527136788E-14  0.91188000000E+02  0.91188000000E+02 0.  0.
    9900012    2    3    3    0    0 -0.30656124179E+02 -0.10423677779E+02  0.17530789423E+02  0.54367087655E+02  0.40000007927E+02 0.  0.
         12    1    3    3    0    0  0.30656124179E+02  0.10423677779E+02 -0.17530789423E+02  0.36820912345E+02  0.00000000000E+00 0. -1.
         11    1    4    4    0    0 -0.40038710630E+01  0.57712424197E+01  0.67543673372E+01  0.97447268275E+01  0.51100000000E-03 0. -1.
        -11    1    4    4    0    0 -0.39846412141E+01  0.37796160449E+01 -0.75120959352E+01  0.93056138246E+01  0.51100000000E-03 0.  1.
        -12    1    4    4    0    0 -0.22667611902E+02 -0.19974536243E+02  0.18288518021E+02  0.35316747003E+02  0.00000000000E+00 0.  1.
</event>
<event>
 8    1  0.1244838E-006  0.9118800E+02  0.7816164E-02  0.1184000E+00
        -11   -1    0    0    0    0  0.00000000000E+00  0.00000000000E+00  0.45593999997E+02  0.45594000000E+02  0.51100000000E-03 0.  1.
         11   -1    0    0    0    0 -0.00000000000E+00 -0.00000000000E+00 -0.45593999997E+02  0.45594000000E+02  0.51100000000E-03 0. -1.
         23    2    1    2    0    0  0.00000000000E+00  0.22204460493E-14 -0.44408920985E-15  0.91188000000E+02  0.91188000000E+02 0.  0.
    9900012    2    3    3    0    0 -0.36524308362E+02 -0.25527264527E+01  0.39050707105E+01  0.54366931426E+02  0.39999651771E+02 0.  0.
         12    1    3    3    0    0  0.36524308362E+02  0.25527264527E+01 -0.39050707105E+01  0.36821068574E+02  0.00000000000E+00 0. -1.
         11    1    4    4    0    0 -0.13234304166E+02  0.13348529725E+02  0.14574740487E+02  0.23785565226E+02  0.51100000000E-03 0.  1.
        -11    1    4    4    0    0 -0.22620422291E+02 -0.13952136629E+02 -0.10202412527E+02  0.28468137325E+02  0.51100000000E-03 0. -1.
        -12    1    4    4    0    0 -0.66958190431E+00 -0.19491195487E+01 -0.46725724940E+00  0.21132288752E+01  0.00000000000E+00 0.  1.
</event>
<event>
 8    1  0.1244838E-006  0.9118800E+02  0.7816164E-02  0.1184000E+00
        -11   -1    0    0    0    0  0.00000000000E+00  0.00000000000E+00  0.45593999997E+02  0.45594000000E+02  0.51100000000E-03 0. -1.
         11   -1    0    0    0    0 -0.00000000000E+00 -0.00000000000E+00 -0.45593999997E+02  0.45594000000E+02  0.51100000000E-03 0.  1.
         23    2    1    2    0    0 -0.35527136788E-14  0.00000000000E+00  0.00000000000E+00  0.91188000000E+02  0.91188000000E+02 0.  0.
    9900012    2    3    3    0    0  0.16606063723E+02  0.32819619352E+02 -0.17001615560E+01  0.54367091319E+02  0.40000016280E+02 0.  0.
         12    1    3    3    0    0 -0.16606063723E+02 -0.32819619352E+02  0.17001615560E+01  0.36820908681E+02  0.00000000000E+00 0. -1.
         11    1    4    4    0    0  0.18398818788E+02  0.48567188072E+01  0.20946746143E+01  0.19143978488E+02  0.51100000000E-03 0. -1.
        -11    1    4    4    0    0  0.41477040227E+01  0.53333803000E+01  0.67588568922E+01  0.95567013574E+01  0.51100000000E-03 0.  1.
        -12    1    4    4    0    0 -0.59404590872E+01  0.22629520244E+02 -0.10553693062E+02  0.25666411473E+02  0.00000000000E+00 0.  1.
</event>
<event>
 8    1  0.1244838E-006  0.9118800E+02  0.7816164E-02  0.1184000E+00
        -11   -1    0    0    0    0  0.00000000000E+00  0.00000000000E+00  0.45593999997E+02  0.45594000000E+02  0.51100000000E-03 0.  1.
         11   -1    0    0    0    0 -0.00000000000E+00 -0.00000000000E+00 -0.45593999997E+02  0.45594000000E+02  0.51100000000E-03 0. -1.
         23    2    1    2    0    0 -0.35527136788E-14  0.35527136788E-14 -0.17763568394E-14  0.91188000000E+02  0.91188000000E+02 0.  0.
    9900012    2    3    3    0    0  0.30632430902E+02 -0.17972013426E+02  0.97177398609E+01  0.54367169516E+02  0.40000194545E+02 0.  0.
        -12    1    3    3    0    0 -0.30632430902E+02  0.17972013426E+02 -0.97177398609E+01  0.36820830484E+02  0.00000000000E+00 0.  1.
         11    1    4    4    0    0  0.34704723400E+02 -0.10115949446E+02  0.28837188258E+01  0.36263840034E+02  0.51100000000E-03 0. -1.
        -11    1    4    4    0    0 -0.44686529912E+01 -0.94721717361E+01 -0.59500169295E+00  0.10490229942E+02  0.51100000000E-03 0.  1.
        -12    1    4    4    0    0  0.39636049311E+00  0.16161077565E+01  0.74290227281E+01  0.76130995407E+01  0.00000000000E+00 0.  1.
</event>
<event>
 8    1  0.1244838E-006  0.9118800E+02  0.7816164E-02  0.1184000E+00
        -11   -1    0    0    0    0  0.00000000000E+00  0.00000000000E+00  0.45593999997E+02  0.45594000000E+02  0.51100000000E-03 0.  1.
         11   -1    0    0    0    0 -0.00000000000E+00 -0.00000000000E+00 -0.45593999997E+02  0.45594000000E+02  0.51100000000E-03 0. -1.
         23    2    1    2    0    0 -0.35527136788E-14  0.00000000000E+00  0.00000000000E+00  0.91188000000E+02  0.91188000000E+02 0.  0.
    9900012    2    3    3    0    0  0.29640434380E+02 -0.14494726638E+02 -0.16344014735E+02  0.54367091969E+02  0.40000017762E+02 0.  0.
        -12    1    3    3    0    0 -0.29640434380E+02  0.14494726638E+02  0.16344014735E+02  0.36820908031E+02  0.00000000000E+00 0.  1.
         11    1    4    4    0    0  0.55212521273E+01 -0.14422724611E+02 -0.42968887376E+00  0.15449396203E+02  0.51100000000E-03 0. -1.
        -11    1    4    4    0    0  0.89848708848E+01  0.79280779562E+01 -0.18051081591E+02  0.21666191908E+02  0.51100000000E-03 0.  1.
        -12    1    4    4    0    0  0.15134311368E+02 -0.80000799830E+01  0.21367557298E+01  0.17251503858E+02  0.00000000000E+00 0.  1.
</event>
<event>
 8    1  0.1244838E-006  0.9118800E+02  0.7816164E-02  0.1184000E+00
        -11   -1    0    0    0    0  0.00000000000E+00  0.00000000000E+00  0.45593999997E+02  0.45594000000E+02  0.51100000000E-03 0. -1.
         11   -1    0    0    0    0 -0.00000000000E+00 -0.00000000000E+00 -0.45593999997E+02  0.45594000000E+02  0.51100000000E-03 0.  1.
         23    2    1    2    0    0  0.00000000000E+00  0.00000000000E+00  0.00000000000E+00  0.91188000000E+02  0.91188000000E+02 0.  0.
    9900012    2    3    3    0    0  0.32314063657E+02  0.14796592555E+02 -0.96250190183E+01  0.54367097616E+02  0.40000030634E+02 0.  0.
        -12    1    3    3    0    0 -0.32314063657E+02 -0.14796592555E+02  0.96250190183E+01  0.36820902384E+02  0.00000000000E+00 0.  1.
         11    1    4    4    0    0  0.30400733425E+02  0.21416258297E+01  0.86259086913E+01  0.31673292455E+02  0.51100000000E-03 0. -1.
        -11    1    4    4    0    0  0.20721617116E+01  0.92689951479E+01 -0.10090435651E+02  0.13857309158E+02  0.51100000000E-03 0.  1.
         12    1    4    4    0    0 -0.15883147869E+00  0.33859715777E+01 -0.81604920584E+01  0.88364960023E+01  0.00000000000E+00 0. -1.
</event>
<event>
 8    1  0.1244838E-006  0.9118800E+02  0.7816164E-02  0.1184000E+00
        -11   -1    0    0    0    0  0.00000000000E+00  0.00000000000E+00  0.45593999997E+02  0.45594000000E+02  0.51100000000E-03 0. -1.
         11   -1    0    0    0    0 -0.00000000000E+00 -0.00000000000E+00 -0.45593999997E+02  0.45594000000E+02  0.51100000000E-03 0.  1.
         23    2    1    2    0    0  0.00000000000E+00  0.00000000000E+00 -0.35527136788E-14  0.91188000000E+02  0.91188000000E+02 0.  0.
    9900012    2    3    3    0    0  0.10253718066E+02 -0.22575802459E+02  0.27220839232E+02  0.54367086386E+02  0.40000005035E+02 0.  0.
        -12    1    3    3    0    0 -0.10253718066E+02  0.22575802459E+02 -0.27220839232E+02  0.36820913614E+02  0.00000000000E+00 0.  1.
         11    1    4    4    0    0  0.11832984862E+02 -0.17309475084E+02  0.15500945862E+02  0.26075213926E+02  0.51100000000E-03 0. -1.
        -11    1    4    4    0    0  0.27103574035E+00  0.32394161814E+00  0.18957047989E+02  0.18961752747E+02  0.51100000000E-03 0.  1.
         12    1    4    4    0    0 -0.18503025356E+01 -0.55902689936E+01 -0.72371546183E+01  0.93301197132E+01  0.00000000000E+00 0. -1.
</event>
<event>
 8    1  0.1244838E-006  0.9118800E+02  0.7816164E-02  0.1184000E+00
        -11   -1    0    0    0    0  0.00000000000E+00  0.00000000000E+00  0.45593999997E+02  0.45594000000E+02  0.51100000000E-03 0. -1.
         11   -1    0    0    0    0 -0.00000000000E+00 -0.00000000000E+00 -0.45593999997E+02  0.45594000000E+02  0.51100000000E-03 0.  1.
         23    2    1    2    0    0  0.88817841970E-15 -0.44408920985E-15  0.14210854715E-13  0.91188000000E+02  0.91188000000E+02 0.  0.
    9900012    2    3    3    0    0  0.42365853207E+01 -0.37347160202E+01 -0.36385210449E+02  0.54367077981E+02  0.39999985873E+02 0.  0.
         12    1    3    3    0    0 -0.42365853207E+01  0.37347160202E+01  0.36385210449E+02  0.36820922019E+02  0.00000000000E+00 0. -1.
         11    1    4    4    0    0 -0.35922714995E+01  0.88821363864E+01 -0.14496782976E+02  0.17376808632E+02  0.51100000000E-03 0. -1.
        -11    1    4    4    0    0  0.14461990535E+02 -0.46702931966E+01 -0.30575127380E+01  0.15501909340E+02  0.51100000000E-03 0.  1.
        -12    1    4    4    0    0 -0.66331337146E+01 -0.79465592100E+01 -0.18830914734E+02  0.21488360009E+02  0.00000000000E+00 0.  1.
</event>
<event>
 8    1  0.1244838E-006  0.9118800E+02  0.7816164E-02  0.1184000E+00
        -11   -1    0    0    0    0  0.00000000000E+00  0.00000000000E+00  0.45593999997E+02  0.45594000000E+02  0.51100000000E-03 0.  1.
         11   -1    0    0    0    0 -0.00000000000E+00 -0.00000000000E+00 -0.45593999997E+02  0.45594000000E+02  0.51100000000E-03 0. -1.
         23    2    1    2    0    0  0.00000000000E+00  0.17763568394E-14  0.00000000000E+00  0.91188000000E+02  0.91188000000E+02 0.  0.
    9900012    2    3    3    0    0 -0.18472253739E+02  0.77769370973E+01  0.30888066069E+02  0.54367115514E+02  0.40000071437E+02 0.  0.
         12    1    3    3    0    0  0.18472253739E+02 -0.77769370973E+01 -0.30888066069E+02  0.36820884486E+02  0.00000000000E+00 0. -1.
         11    1    4    4    0    0 -0.28603354711E+01  0.10789449413E+02 -0.26643332554E+01  0.11475731332E+02  0.51100000000E-03 0. -1.
        -11    1    4    4    0    0  0.42181736136E+00  0.64857579539E+01  0.31278261033E+01  0.72129246853E+01  0.51100000000E-03 0.  1.
        -12    1    4    4    0    0 -0.16033735629E+02 -0.94982702698E+01  0.30424573221E+02  0.35678459497E+02  0.00000000000E+00 0.  1.
</event>
<event>
 8    1  0.1244838E-006  0.9118800E+02  0.7816164E-02  0.1184000E+00
        -11   -1    0    0    0    0  0.00000000000E+00  0.00000000000E+00  0.45593999997E+02  0.45594000000E+02  0.51100000000E-03 0.  1.
         11   -1    0    0    0    0 -0.00000000000E+00 -0.00000000000E+00 -0.45593999997E+02  0.45594000000E+02  0.51100000000E-03 0. -1.
         23    2    1    2    0    0  0.00000000000E+00 -0.88817841970E-15  0.17763568394E-14  0.91188000000E+02  0.91188000000E+02 0.  0.
    9900012    2    3    3    0    0 -0.34905657434E+02 -0.69920737290E+01 -0.94068077760E+01  0.54367054216E+02  0.39999931696E+02 0.  0.
        -12    1    3    3    0    0  0.34905657434E+02  0.69920737290E+01  0.94068077760E+01  0.36820945784E+02  0.00000000000E+00 0.  1.
         11    1    4    4    0    0 -0.96428260196E+01  0.11812256790E+02 -0.28201235254E+01  0.15506985558E+02  0.51100000000E-03 0. -1.
        -11    1    4    4    0    0 -0.26121312440E+02 -0.19186591780E+02 -0.20673325775E+00  0.32411279003E+02  0.51100000000E-03 0.  1.
        -12    1    4    4    0    0  0.85848102593E+00  0.38226126102E+00 -0.63799509928E+01  0.64487896550E+01  0.00000000000E+00 0.  1.
</event>
<event>
 8    1  0.1244838E-006  0.9118800E+02  0.7816164E-02  0.1184000E+00
        -11   -1    0    0    0    0  0.00000000000E+00  0.00000000000E+00  0.45593999997E+02  0.45594000000E+02  0.51100000000E-03 0. -1.
         11   -1    0    0    0    0 -0.00000000000E+00 -0.00000000000E+00 -0.45593999997E+02  0.45594000000E+02  0.51100000000E-03 0.  1.
         23    2    1    2    0    0 -0.35527136788E-14  0.00000000000E+00  0.35527136788E-14  0.91188000000E+02  0.91188000000E+02 0.  0.
    9900012    2    3    3    0    0  0.25706397716E+02 -0.44676194107E+01 -0.25980819650E+02  0.54367061712E+02  0.39999948786E+02 0.  0.
         12    1    3    3    0    0 -0.25706397716E+02  0.44676194107E+01  0.25980819650E+02  0.36820938288E+02  0.00000000000E+00 0. -1.
         11    1    4    4    0    0  0.21384054412E+02  0.11770360656E+02 -0.18733806645E+02  0.30769704008E+02  0.51100000000E-03 0.  1.
        -11    1    4    4    0    0  0.96359908787E-01 -0.30102840234E+01  0.44958802581E+01  0.54114725066E+01  0.51100000000E-03 0. -1.
        -12    1    4    4    0    0  0.42259833952E+01 -0.13227696043E+02 -0.11742893262E+02  0.18185885198E+02  0.00000000000E+00 0.  1.
</event>
<event>
 8    1  0.1244838E-006  0.9118800E+02  0.7816164E-02  0.1184000E+00
        -11   -1    0    0    0    0  0.00000000000E+00  0.00000000000E+00  0.45593999997E+02  0.45594000000E+02  0.51100000000E-03 0. -1.
         11   -1    0    0    0    0 -0.00000000000E+00 -0.00000000000E+00 -0.45593999997E+02  0.45594000000E+02  0.51100000000E-03 0.  1.
         23    2    1    2    0    0  0.00000000000E+00  0.00000000000E+00 -0.35527136788E-14  0.91188000000E+02  0.91188000000E+02 0.  0.
    9900012    2    3    3    0    0 -0.28711325301E+02 -0.13111606970E+02 -0.18961120547E+02  0.54367101990E+02  0.40000040607E+02 0.  0.
         12    1    3    3    0    0  0.28711325301E+02  0.13111606970E+02  0.18961120547E+02  0.36820898010E+02  0.00000000000E+00 0. -1.
         11    1    4    4    0    0 -0.19770885592E+02 -0.15458442637E+02 -0.77383058822E+01  0.26262763450E+02  0.51100000000E-03 0. -1.
        -11    1    4    4    0    0 -0.14519607438E+02  0.23056521100E+01 -0.15281321626E+02  0.21205042388E+02  0.51100000000E-03 0.  1.
        -12    1    4    4    0    0  0.55791677289E+01  0.41183557056E-01  0.40585069613E+01  0.68992961515E+01  0.00000000000E+00 0.  1.
</event>
<event>
 8    1  0.1244838E-006  0.9118800E+02  0.7816164E-02  0.1184000E+00
        -11   -1    0    0    0    0  0.00000000000E+00  0.00000000000E+00  0.45593999997E+02  0.45594000000E+02  0.51100000000E-03 0. -1.
         11   -1    0    0    0    0 -0.00000000000E+00 -0.00000000000E+00 -0.45593999997E+02  0.45594000000E+02  0.51100000000E-03 0.  1.
         23    2    1    2    0    0 -0.35527136788E-14  0.99920072216E-15  0.00000000000E+00  0.91188000000E+02  0.91188000000E+02 0.  0.
    9900012    2    3    3    0    0 -0.19819812993E+02  0.40029054731E+00 -0.31028954739E+02  0.54367065033E+02  0.39999956356E+02 0.  0.
         12    1    3    3    0    0  0.19819812993E+02 -0.40029054731E+00  0.31028954739E+02  0.36820934967E+02  0.00000000000E+00 0. -1.
         11    1    4    4    0    0  0.16530680528E+01  0.75857326360E+01 -0.78831511276E+01  0.11064359248E+02  0.51100000000E-03 0. -1.
        -11    1    4    4    0    0 -0.16786748225E+02 -0.45463565374E+01 -0.29947782243E+02  0.34631401001E+02  0.51100000000E-03 0.  1.
         12    1    4    4    0    0 -0.46861328208E+01 -0.26390855514E+01  0.68019786312E+01  0.86713047842E+01  0.00000000000E+00 0. -1.
</event>
<event>
 8    1  0.1244838E-006  0.9118800E+02  0.7816164E-02  0.1184000E+00
        -11   -1    0    0    0    0  0.00000000000E+00  0.00000000000E+00  0.45593999997E+02  0.45594000000E+02  0.51100000000E-03 0. -1.
         11   -1    0    0    0    0 -0.00000000000E+00 -0.00000000000E+00 -0.45593999997E+02  0.45594000000E+02  0.51100000000E-03 0.  1.
         23    2    1    2    0    0  0.00000000000E+00  0.00000000000E+00  0.17763568394E-14  0.91188000000E+02  0.91188000000E+02 0.  0.
    9900012    2    3    3    0    0  0.10155704671E+02  0.33466604804E+02 -0.11516431879E+02  0.54367079619E+02  0.39999989607E+02 0.  0.
         12    1    3    3    0    0 -0.10155704671E+02 -0.33466604804E+02  0.11516431879E+02  0.36820920381E+02  0.00000000000E+00 0. -1.
         11    1    4    4    0    0  0.14143497839E+02  0.21676860178E+02  0.98229207171E+01  0.27684193504E+02  0.51100000000E-03 0. -1.
        -11    1    4    4    0    0 -0.12760009246E+01 -0.13488779623E+01 -0.54247889548E+00  0.19344078500E+01  0.51100000000E-03 0.  1.
        -12    1    4    4    0    0 -0.27117922434E+01  0.13138622588E+02 -0.20796873701E+02  0.24748478264E+02  0.00000000000E+00 0.  1.
</event>
<event>
 8    1  0.1244838E-006  0.9118800E+02  0.7816164E-02  0.1184000E+00
        -11   -1    0    0    0    0  0.00000000000E+00  0.00000000000E+00  0.45593999997E+02  0.45594000000E+02  0.51100000000E-03 0.  1.
         11   -1    0    0    0    0 -0.00000000000E+00 -0.00000000000E+00 -0.45593999997E+02  0.45594000000E+02  0.51100000000E-03 0. -1.
         23    2    1    2    0    0  0.00000000000E+00  0.00000000000E+00 -0.35527136788E-14  0.91188000000E+02  0.91188000000E+02 0.  0.
    9900012    2    3    3    0    0 -0.21575989860E+02  0.24178453717E+02 -0.17483074570E+02  0.54367097526E+02  0.40000030430E+02 0.  0.
        -12    1    3    3    0    0  0.21575989860E+02 -0.24178453717E+02  0.17483074570E+02  0.36820902474E+02  0.00000000000E+00 0.  1.
         11    1    4    4    0    0 -0.78898021952E+01  0.21729849257E+02 -0.11944163669E+02  0.26021113993E+02  0.51100000000E-03 0. -1.
        -11    1    4    4    0    0 -0.15440096165E+02  0.47665762058E+01 -0.12741993671E+02  0.20578513583E+02  0.51100000000E-03 0.  1.
        -12    1    4    4    0    0  0.17539085000E+01 -0.23179717450E+01  0.72030827706E+01  0.77674699508E+01  0.00000000000E+00 0.  1.
</event>
<event>
 8    1  0.1244838E-006  0.9118800E+02  0.7816164E-02  0.1184000E+00
        -11   -1    0    0    0    0  0.00000000000E+00  0.00000000000E+00  0.45593999997E+02  0.45594000000E+02  0.51100000000E-03 0.  1.
         11   -1    0    0    0    0 -0.00000000000E+00 -0.00000000000E+00 -0.45593999997E+02  0.45594000000E+02  0.51100000000E-03 0. -1.
         23    2    1    2    0    0  0.00000000000E+00 -0.17763568394E-14 -0.71054273576E-14  0.91188000000E+02  0.91188000000E+02 0.  0.
    9900012    2    3    3    0    0 -0.81815189261E+01  0.48523839323E+01  0.35571038289E+02  0.54367059671E+02  0.39999944132E+02 0.  0.
         12    1    3    3    0    0  0.81815189261E+01 -0.48523839323E+01 -0.35571038289E+02  0.36820940329E+02  0.00000000000E+00 0. -1.
         11    1    4    4    0    0 -0.64519779014E+01 -0.28609834916E+00 -0.63636940932E+01  0.90667785833E+01  0.51100000000E-03 0. -1.
        -11    1    4    4    0    0 -0.24736867618E+01  0.10960641586E+02  0.26278335064E+02  0.28579812529E+02  0.51100000000E-03 0.  1.
         12    1    4    4    0    0  0.74414573709E+00 -0.58221593049E+01  0.15656397318E+02  0.16720468559E+02  0.00000000000E+00 0. -1.
</event>
<event>
 8    1  0.1244838E-006  0.9118800E+02  0.7816164E-02  0.1184000E+00
        -11   -1    0    0    0    0  0.00000000000E+00  0.00000000000E+00  0.45593999997E+02  0.45594000000E+02  0.51100000000E-03 0. -1.
         11   -1    0    0    0    0 -0.00000000000E+00 -0.00000000000E+00 -0.45593999997E+02  0.45594000000E+02  0.51100000000E-03 0.  1.
         23    2    1    2    0    0  0.00000000000E+00  0.00000000000E+00 -0.71054273576E-14  0.91188000000E+02  0.91188000000E+02 0.  0.
    9900012    2    3    3    0    0  0.18103464731E+02 -0.22264823648E+01  0.31985644200E+02  0.54367162233E+02  0.40000177942E+02 0.  0.
        -12    1    3    3    0    0 -0.18103464731E+02  0.22264823648E+01 -0.31985644200E+02  0.36820837767E+02  0.00000000000E+00 0.  1.
         11    1    4    4    0    0  0.84176226465E+01  0.10433196893E+02  0.64879731923E+01  0.14893010603E+02  0.51100000000E-03 0. -1.
        -11    1    4    4    0    0 -0.27873961562E+01  0.59824041613E+01  0.10801898037E+02  0.12658583584E+02  0.51100000000E-03 0.  1.
        -12    1    4    4    0    0  0.12473238240E+02 -0.18642083419E+02  0.14695772971E+02  0.26815568046E+02  0.00000000000E+00 0.  1.
</event>
<event>
 8    1  0.1244838E-006  0.9118800E+02  0.7816164E-02  0.1184000E+00
        -11   -1    0    0    0    0  0.00000000000E+00  0.00000000000E+00  0.45593999997E+02  0.45594000000E+02  0.51100000000E-03 0.  1.
         11   -1    0    0    0    0 -0.00000000000E+00 -0.00000000000E+00 -0.45593999997E+02  0.45594000000E+02  0.51100000000E-03 0. -1.
         23    2    1    2    0    0  0.00000000000E+00  0.88817841970E-15 -0.71054273576E-14  0.91188000000E+02  0.91188000000E+02 0.  0.
    9900012    2    3    3    0    0 -0.32422953080E+02 -0.55976514336E+01  0.16528585390E+02  0.54367140111E+02  0.40000127510E+02 0.  0.
         12    1    3    3    0    0  0.32422953080E+02  0.55976514336E+01 -0.16528585390E+02  0.36820859889E+02  0.00000000000E+00 0. -1.
         11    1    4    4    0    0 -0.33288934161E+01 -0.28712057115E+01  0.54934981019E+00  0.44302527116E+01  0.51100000000E-03 0. -1.
        -11    1    4    4    0    0  0.88349790734E+01 -0.31438995516E+01  0.33622686787E+01  0.99622191577E+01  0.51100000000E-03 0.  1.
         12    1    4    4    0    0 -0.37929038737E+02  0.41745382950E+00  0.12616966902E+02  0.39974668241E+02  0.00000000000E+00 0. -1.
</event>
<event>
 8    1  0.1244838E-006  0.9118800E+02  0.7816164E-02  0.1184000E+00
        -11   -1    0    0    0    0  0.00000000000E+00  0.00000000000E+00  0.45593999997E+02  0.45594000000E+02  0.51100000000E-03 0. -1.
         11   -1    0    0    0    0 -0.00000000000E+00 -0.00000000000E+00 -0.45593999997E+02  0.45594000000E+02  0.51100000000E-03 0.  1.
         23    2    1    2    0    0  0.00000000000E+00  0.35527136788E-14  0.35527136788E-14  0.91188000000E+02  0.91188000000E+02 0.  0.
    9900012    2    3    3    0    0 -0.17265147173E+02  0.23049091510E+02  0.22944153710E+02  0.54367080459E+02  0.39999991523E+02 0.  0.
         12    1    3    3    0    0  0.17265147173E+02 -0.23049091510E+02 -0.22944153710E+02  0.36820919541E+02  0.00000000000E+00 0. -1.
         11    1    4    4    0    0  0.99188706119E+01  0.16517430412E+00  0.78893177742E+01  0.12674881142E+02  0.51100000000E-03 0. -1.
        -11    1    4    4    0    0  0.16730138094E+01  0.36700051580E+01  0.28478644993E+01  0.49374330916E+01  0.51100000000E-03 0.  1.
        -12    1    4    4    0    0 -0.28857031594E+02  0.19213912048E+02  0.12206971437E+02  0.36754766225E+02  0.00000000000E+00 0.  1.
</event>
<event>
 8    1  0.1244838E-006  0.9118800E+02  0.7816164E-02  0.1184000E+00
        -11   -1    0    0    0    0  0.00000000000E+00  0.00000000000E+00  0.45593999997E+02  0.45594000000E+02  0.51100000000E-03 0. -1.
         11   -1    0    0    0    0 -0.00000000000E+00 -0.00000000000E+00 -0.45593999997E+02  0.45594000000E+02  0.51100000000E-03 0.  1.
         23    2    1    2    0    0 -0.35527136788E-14 -0.35527136788E-14  0.00000000000E+00  0.91188000000E+02  0.91188000000E+02 0.  0.
    9900012    2    3    3    0    0 -0.24397290610E+02 -0.23130895424E+02  0.15017103770E+02  0.54367088579E+02  0.40000010034E+02 0.  0.
        -12    1    3    3    0    0  0.24397290610E+02  0.23130895424E+02 -0.15017103770E+02  0.36820911421E+02  0.00000000000E+00 0.  1.
         11    1    4    4    0    0 -0.25821136696E+02 -0.77089885588E+01  0.17246487741E+02  0.31993764151E+02  0.51100000000E-03 0. -1.
        -11    1    4    4    0    0 -0.47582343092E+01 -0.15155052546E+01  0.35148795753E+01  0.61067117672E+01  0.51100000000E-03 0.  1.
        -12    1    4    4    0    0  0.61820803956E+01 -0.13906401611E+02 -0.57442635464E+01  0.16266612661E+02  0.00000000000E+00 0.  1.
</event>
<event>
 8    1  0.1244838E-006  0.9118800E+02  0.7816164E-02  0.1184000E+00
        -11   -1    0    0    0    0  0.00000000000E+00  0.00000000000E+00  0.45593999997E+02  0.45594000000E+02  0.51100000000E-03 0.  1.
         11   -1    0    0    0    0 -0.00000000000E+00 -0.00000000000E+00 -0.45593999997E+02  0.45594000000E+02  0.51100000000E-03 0. -1.
         23    2    1    2    0    0  0.00000000000E+00  0.00000000000E+00  0.35527136788E-14  0.91188000000E+02  0.91188000000E+02 0.  0.
    9900012    2    3    3    0    0 -0.30388964314E+02 -0.13261123453E+02 -0.16013512823E+02  0.54367093707E+02  0.40000021724E+02 0.  0.
        -12    1    3    3    0    0  0.30388964314E+02  0.13261123453E+02  0.16013512823E+02  0.36820906293E+02  0.00000000000E+00 0.  1.
         11    1    4    4    0    0 -0.15924159320E+02 -0.92947768791E+01  0.21011694720E+01  0.18557657199E+02  0.51100000000E-03 0. -1.
        -11    1    4    4    0    0  0.38795504250E+01 -0.80526001978E+01  0.10107164492E+01  0.89953782271E+01  0.51100000000E-03 0.  1.
        -12    1    4    4    0    0 -0.18344355418E+02  0.40862536236E+01 -0.19125398744E+02  0.26814058281E+02  0.00000000000E+00 0.  1.
</event>
<event>
 8    1  0.1244838E-006  0.9118800E+02  0.7816164E-02  0.1184000E+00
        -11   -1    0    0    0    0  0.00000000000E+00  0.00000000000E+00  0.45593999997E+02  0.45594000000E+02  0.51100000000E-03 0.  1.
         11   -1    0    0    0    0 -0.00000000000E+00 -0.00000000000E+00 -0.45593999997E+02  0.45594000000E+02  0.51100000000E-03 0. -1.
         23    2    1    2    0    0  0.00000000000E+00  0.17763568394E-14  0.00000000000E+00  0.91188000000E+02  0.91188000000E+02 0.  0.
    9900012    2    3    3    0    0  0.31696513964E+02 -0.67686704700E+01 -0.17472734457E+02  0.54367077323E+02  0.39999984374E+02 0.  0.
        -12    1    3    3    0    0 -0.31696513964E+02  0.67686704700E+01  0.17472734457E+02  0.36820922677E+02  0.00000000000E+00 0.  1.
         11    1    4    4    0    0  0.24280928959E+01  0.77322239763E+01 -0.10510559507E+02  0.13272331527E+02  0.51100000000E-03 0. -1.
        -11    1    4    4    0    0  0.32191044876E+01 -0.34009603131E+01  0.78486704210E+01  0.91395181707E+01  0.51100000000E-03 0.  1.
        -12    1    4    4    0    0  0.26049316580E+02 -0.11099934133E+02 -0.14810845370E+02  0.31955227626E+02  0.00000000000E+00 0.  1.
</event>
<event>
 8    1  0.1244838E-006  0.9118800E+02  0.7816164E-02  0.1184000E+00
        -11   -1    0    0    0    0  0.00000000000E+00  0.00000000000E+00  0.45593999997E+02  0.45594000000E+02  0.51100000000E-03 0. -1.
         11   -1    0    0    0    0 -0.00000000000E+00 -0.00000000000E+00 -0.45593999997E+02  0.45594000000E+02  0.51100000000E-03 0.  1.
         23    2    1    2    0    0  0.00000000000E+00  0.00000000000E+00 -0.35527136788E-14  0.91188000000E+02  0.91188000000E+02 0.  0.
    9900012    2    3    3    0    0  0.25319094228E+02 -0.16972810030E+02 -0.20655439877E+02  0.54367081905E+02  0.39999994820E+02 0.  0.
         12    1    3    3    0    0 -0.25319094228E+02  0.16972810030E+02  0.20655439877E+02  0.36820918095E+02  0.00000000000E+00 0. -1.
         11    1    4    4    0    0  0.78863838699E+01  0.62232778795E+01 -0.66206119823E+01  0.12031489575E+02  0.51100000000E-03 0. -1.
        -11    1    4    4    0    0  0.82140840845E+01 -0.15205324668E+02 -0.21841499926E+02  0.27851825701E+02  0.51100000000E-03 0.  1.
         12    1    4    4    0    0  0.92186262736E+01 -0.79907632414E+01  0.78066720320E+01  0.14483766629E+02  0.00000000000E+00 0. -1.
</event>
<event>
 8    1  0.1244838E-006  0.9118800E+02  0.7816164E-02  0.1184000E+00
        -11   -1    0    0    0    0  0.00000000000E+00  0.00000000000E+00  0.45593999997E+02  0.45594000000E+02  0.51100000000E-03 0.  1.
         11   -1    0    0    0    0 -0.00000000000E+00 -0.00000000000E+00 -0.45593999997E+02  0.45594000000E+02  0.51100000000E-03 0. -1.
         23    2    1    2    0    0  0.00000000000E+00 -0.71054273576E-14 -0.17763568394E-14  0.91188000000E+02  0.91188000000E+02 0.  0.
    9900012    2    3    3    0    0  0.12322770836E+02  0.31896595930E+02  0.13657810966E+02  0.54367091356E+02  0.40000016363E+02 0.  0.
        -12    1    3    3    0    0 -0.12322770836E+02 -0.31896595930E+02 -0.13657810966E+02  0.36820908644E+02  0.00000000000E+00 0.  1.
         11    1    4    4    0    0  0.72770635140E+01 -0.15039769291E+01 -0.96767367345E+00  0.74935967726E+01  0.51100000000E-03 0. -1.
        -11    1    4    4    0    0  0.84732627288E+01  0.46108670677E+01  0.15051352337E+02  0.17877345547E+02  0.51100000000E-03 0.  1.
         12    1    4    4    0    0 -0.34275554064E+01  0.28789705791E+02 -0.42586769708E+00  0.28996149036E+02  0.00000000000E+00 0. -1.
</event>
<event>
 8    1  0.1244838E-006  0.9118800E+02  0.7816164E-02  0.1184000E+00
        -11   -1    0    0    0    0  0.00000000000E+00  0.00000000000E+00  0.45593999997E+02  0.45594000000E+02  0.51100000000E-03 0.  1.
         11   -1    0    0    0    0 -0.00000000000E+00 -0.00000000000E+00 -0.45593999997E+02  0.45594000000E+02  0.51100000000E-03 0. -1.
         23    2    1    2    0    0  0.17763568394E-14  0.71054273576E-14 -0.33306690739E-15  0.91188000000E+02  0.91188000000E+02 0.  0.
    9900012    2    3    3    0    0 -0.92435136327E+01  0.35639044701E+02 -0.44492810650E+00  0.54367054704E+02  0.39999932808E+02 0.  0.
         12    1    3    3    0    0  0.92435136327E+01 -0.35639044701E+02  0.44492810650E+00  0.36820945296E+02  0.00000000000E+00 0. -1.
         11    1    4    4    0    0 -0.14525351645E+02  0.21721106999E+02  0.32231758209E+01  0.26328334400E+02  0.51100000000E-03 0. -1.
        -11    1    4    4    0    0  0.56321278609E+01  0.19471038425E+02  0.16571930775E+01  0.20336875147E+02  0.51100000000E-03 0.  1.
         12    1    4    4    0    0 -0.35028984899E+00 -0.55531007233E+01 -0.53252970049E+01  0.77018451563E+01  0.00000000000E+00 0. -1.
</event>
<event>
 8    1  0.1244838E-006  0.9118800E+02  0.7816164E-02  0.1184000E+00
        -11   -1    0    0    0    0  0.00000000000E+00  0.00000000000E+00  0.45593999997E+02  0.45594000000E+02  0.51100000000E-03 0. -1.
         11   -1    0    0    0    0 -0.00000000000E+00 -0.00000000000E+00 -0.45593999997E+02  0.45594000000E+02  0.51100000000E-03 0.  1.
         23    2    1    2    0    0 -0.88817841970E-15  0.00000000000E+00 -0.17763568394E-14  0.91188000000E+02  0.91188000000E+02 0.  0.
    9900012    2    3    3    0    0 -0.22182569816E+01 -0.33941924234E+02  0.14099896338E+02  0.54367055397E+02  0.39999934389E+02 0.  0.
        -12    1    3    3    0    0  0.22182569816E+01  0.33941924234E+02 -0.14099896338E+02  0.36820944603E+02  0.00000000000E+00 0.  1.
         11    1    4    4    0    0 -0.83877659583E+01 -0.18561964257E+02  0.40185195046E+01  0.20761734853E+02  0.51100000000E-03 0. -1.
        -11    1    4    4    0    0  0.11169668174E+02  0.41967740180E+00 -0.39867751414E+01  0.11867265588E+02  0.51100000000E-03 0.  1.
        -12    1    4    4    0    0 -0.50001591975E+01 -0.15799637379E+02  0.14068151974E+02  0.21738054956E+02  0.00000000000E+00 0.  1.
</event>
<event>
 8    1  0.1244838E-006  0.9118800E+02  0.7816164E-02  0.1184000E+00
        -11   -1    0    0    0    0  0.00000000000E+00  0.00000000000E+00  0.45593999997E+02  0.45594000000E+02  0.51100000000E-03 0.  1.
         11   -1    0    0    0    0 -0.00000000000E+00 -0.00000000000E+00 -0.45593999997E+02  0.45594000000E+02  0.51100000000E-03 0. -1.
         23    2    1    2    0    0  0.00000000000E+00 -0.13322676296E-14  0.17763568394E-14  0.91188000000E+02  0.91188000000E+02 0.  0.
    9900012    2    3    3    0    0 -0.33608047495E+02  0.15472988153E+01 -0.14962820073E+02  0.54367068798E+02  0.39999964939E+02 0.  0.
        -12    1    3    3    0    0  0.33608047495E+02 -0.15472988153E+01  0.14962820073E+02  0.36820931202E+02  0.00000000000E+00 0.  1.
         11    1    4    4    0    0 -0.60683359299E+01  0.16582379033E+02 -0.36743288664E+01  0.18036094040E+02  0.51100000000E-03 0. -1.
        -11    1    4    4    0    0 -0.58490184881E+00 -0.33674741064E+01  0.21427471686E+01  0.40340250024E+01  0.51100000000E-03 0.  1.
         12    1    4    4    0    0 -0.26954809716E+02 -0.11667606111E+02 -0.13431238375E+02  0.32296949755E+02  0.00000000000E+00 0. -1.
</event>
<event>
 8    1  0.1244838E-006  0.9118800E+02  0.7816164E-02  0.1184000E+00
        -11   -1    0    0    0    0  0.00000000000E+00  0.00000000000E+00  0.45593999997E+02  0.45594000000E+02  0.51100000000E-03 0.  1.
         11   -1    0    0    0    0 -0.00000000000E+00 -0.00000000000E+00 -0.45593999997E+02  0.45594000000E+02  0.51100000000E-03 0. -1.
         23    2    1    2    0    0  0.00000000000E+00  0.00000000000E+00 -0.88817841970E-15  0.91188000000E+02  0.91188000000E+02 0.  0.
    9900012    2    3    3    0    0 -0.19924182672E+02 -0.30699434444E+02 -0.40437416343E+01  0.54367079632E+02  0.39999989637E+02 0.  0.
         12    1    3    3    0    0  0.19924182672E+02  0.30699434444E+02  0.40437416343E+01  0.36820920368E+02  0.00000000000E+00 0. -1.
         11    1    4    4    0    0 -0.11417529699E+02 -0.42552711129E+01 -0.10742130388E+02  0.16243789035E+02  0.51100000000E-03 0. -1.
        -11    1    4    4    0    0 -0.16816814935E+02 -0.14893946385E+02  0.16185270904E+00  0.22464663364E+02  0.51100000000E-03 0.  1.
         12    1    4    4    0    0  0.83101619629E+01 -0.11550216946E+02  0.65365360447E+01  0.15658627233E+02  0.00000000000E+00 0. -1.
</event>
<event>
 8    1  0.1244838E-006  0.9118800E+02  0.7816164E-02  0.1184000E+00
        -11   -1    0    0    0    0  0.00000000000E+00  0.00000000000E+00  0.45593999997E+02  0.45594000000E+02  0.51100000000E-03 0. -1.
         11   -1    0    0    0    0 -0.00000000000E+00 -0.00000000000E+00 -0.45593999997E+02  0.45594000000E+02  0.51100000000E-03 0.  1.
         23    2    1    2    0    0  0.00000000000E+00  0.00000000000E+00  0.00000000000E+00  0.91188000000E+02  0.91188000000E+02 0.  0.
    9900012    2    3    3    0    0 -0.23030036810E+02  0.20999004593E+02 -0.19607099680E+02  0.54367093612E+02  0.40000021508E+02 0.  0.
        -12    1    3    3    0    0  0.23030036810E+02 -0.20999004593E+02  0.19607099680E+02  0.36820906388E+02  0.00000000000E+00 0.  1.
         11    1    4    4    0    0 -0.28087935754E+02  0.62178608453E+01 -0.17864935354E+02  0.33863695071E+02  0.51100000000E-03 0. -1.
        -11    1    4    4    0    0  0.64064237081E+01  0.32399798536E+01 -0.46141431546E+01  0.85340524660E+01  0.51100000000E-03 0.  1.
         12    1    4    4    0    0 -0.13485247636E+01  0.11541163895E+02  0.28719788280E+01  0.11969346075E+02  0.00000000000E+00 0. -1.
</event>
<event>
 8    1  0.1244838E-006  0.9118800E+02  0.7816164E-02  0.1184000E+00
        -11   -1    0    0    0    0  0.00000000000E+00  0.00000000000E+00  0.45593999997E+02  0.45594000000E+02  0.51100000000E-03 0. -1.
         11   -1    0    0    0    0 -0.00000000000E+00 -0.00000000000E+00 -0.45593999997E+02  0.45594000000E+02  0.51100000000E-03 0.  1.
         23    2    1    2    0    0  0.00000000000E+00  0.00000000000E+00  0.00000000000E+00  0.91188000000E+02  0.91188000000E+02 0.  0.
    9900012    2    3    3    0    0 -0.20434280083E+01 -0.32707770086E+02  0.16787047484E+02  0.54367098528E+02  0.40000032713E+02 0.  0.
        -12    1    3    3    0    0  0.20434280083E+01  0.32707770086E+02 -0.16787047484E+02  0.36820901472E+02  0.00000000000E+00 0.  1.
         11    1    4    4    0    0 -0.11488303981E+02 -0.22640012706E+02  0.18916554122E+02  0.31660501004E+02  0.51100000000E-03 0. -1.
        -11    1    4    4    0    0  0.10109118910E+02 -0.14162298002E+02  0.11216479047E+01  0.17436257170E+02  0.51100000000E-03 0.  1.
         12    1    4    4    0    0 -0.66424293763E+00  0.40945406219E+01 -0.32511545426E+01  0.52703403537E+01  0.00000000000E+00 0. -1.
</event>
<event>
 8    1  0.1244838E-006  0.9118800E+02  0.7816164E-02  0.1184000E+00
        -11   -1    0    0    0    0  0.00000000000E+00  0.00000000000E+00  0.45593999997E+02  0.45594000000E+02  0.51100000000E-03 0. -1.
         11   -1    0    0    0    0 -0.00000000000E+00 -0.00000000000E+00 -0.45593999997E+02  0.45594000000E+02  0.51100000000E-03 0.  1.
         23    2    1    2    0    0  0.00000000000E+00 -0.17763568394E-14  0.17763568394E-14  0.91188000000E+02  0.91188000000E+02 0.  0.
    9900012    2    3    3    0    0 -0.33719009967E+02 -0.58603630480E+01 -0.13581758641E+02  0.54367086703E+02  0.40000005757E+02 0.  0.
         12    1    3    3    0    0  0.33719009967E+02  0.58603630480E+01  0.13581758641E+02  0.36820913297E+02  0.00000000000E+00 0. -1.
         11    1    4    4    0    0 -0.50978631636E+01  0.11528225391E+02 -0.50883614449E+01  0.13593366469E+02  0.51100000000E-03 0. -1.
        -11    1    4    4    0    0 -0.15075904795E+02 -0.69530448473E+01 -0.15100929444E+02  0.22442500047E+02  0.51100000000E-03 0.  1.
         12    1    4    4    0    0 -0.13545242008E+02 -0.10435543592E+02  0.66075322471E+01  0.18331220186E+02  0.00000000000E+00 0. -1.
</event>
<event>
 8    1  0.1244838E-006  0.9118800E+02  0.7816164E-02  0.1184000E+00
        -11   -1    0    0    0    0  0.00000000000E+00  0.00000000000E+00  0.45593999997E+02  0.45594000000E+02  0.51100000000E-03 0.  1.
         11   -1    0    0    0    0 -0.00000000000E+00 -0.00000000000E+00 -0.45593999997E+02  0.45594000000E+02  0.51100000000E-03 0. -1.
         23    2    1    2    0    0  0.00000000000E+00  0.35527136788E-14  0.00000000000E+00  0.91188000000E+02  0.91188000000E+02 0.  0.
    9900012    2    3    3    0    0 -0.17081961907E+02 -0.30541390794E+02  0.11454726980E+02  0.54367071924E+02  0.39999972064E+02 0.  0.
         12    1    3    3    0    0  0.17081961907E+02  0.30541390794E+02 -0.11454726980E+02  0.36820928076E+02  0.00000000000E+00 0. -1.
         11    1    4    4    0    0 -0.12587933161E+02 -0.31842557853E+02  0.18153493175E+01  0.34288482692E+02  0.51100000000E-03 0. -1.
        -11    1    4    4    0    0 -0.53339572321E+01  0.84937182545E+01  0.75126211802E+01  0.12531313850E+02  0.51100000000E-03 0.  1.
        -12    1    4    4    0    0  0.83992848617E+00 -0.71925511952E+01  0.21267564827E+01  0.75472753821E+01  0.00000000000E+00 0.  1.
</event>
<event>
 8    1  0.1244838E-006  0.9118800E+02  0.7816164E-02  0.1184000E+00
        -11   -1    0    0    0    0  0.00000000000E+00  0.00000000000E+00  0.45593999997E+02  0.45594000000E+02  0.51100000000E-03 0. -1.
         11   -1    0    0    0    0 -0.00000000000E+00 -0.00000000000E+00 -0.45593999997E+02  0.45594000000E+02  0.51100000000E-03 0.  1.
         23    2    1    2    0    0 -0.35527136788E-14 -0.35527136788E-14  0.17763568394E-14  0.91188000000E+02  0.91188000000E+02 0.  0.
    9900012    2    3    3    0    0 -0.25795395479E+02 -0.24845478072E+02 -0.85483797798E+01  0.54367149855E+02  0.40000149725E+02 0.  0.
         12    1    3    3    0    0  0.25795395479E+02  0.24845478072E+02  0.85483797798E+01  0.36820850145E+02  0.00000000000E+00 0. -1.
         11    1    4    4    0    0 -0.20875957779E+01 -0.12402357870E+01  0.47979007419E+01  0.53773685692E+01  0.51100000000E-03 0. -1.
        -11    1    4    4    0    0  0.46698876910E+01 -0.63310958036E+01  0.65750217909E+01  0.10252879446E+02  0.51100000000E-03 0.  1.
        -12    1    4    4    0    0 -0.28377687392E+02 -0.17274146481E+02 -0.19921302313E+02  0.38736901840E+02  0.00000000000E+00 0.  1.
</event>
<event>
 8    1  0.1244838E-006  0.9118800E+02  0.7816164E-02  0.1184000E+00
        -11   -1    0    0    0    0  0.00000000000E+00  0.00000000000E+00  0.45593999997E+02  0.45594000000E+02  0.51100000000E-03 0.  1.
         11   -1    0    0    0    0 -0.00000000000E+00 -0.00000000000E+00 -0.45593999997E+02  0.45594000000E+02  0.51100000000E-03 0. -1.
         23    2    1    2    0    0  0.00000000000E+00  0.35527136788E-14  0.00000000000E+00  0.91188000000E+02  0.91188000000E+02 0.  0.
    9900012    2    3    3    0    0 -0.14509749570E+02  0.31588888125E+02  0.12140425583E+02  0.54367073628E+02  0.39999975949E+02 0.  0.
        -12    1    3    3    0    0  0.14509749570E+02 -0.31588888125E+02 -0.12140425583E+02  0.36820926372E+02  0.00000000000E+00 0.  1.
         11    1    4    4    0    0  0.88879471955E+01  0.14139109052E+02  0.16735195239E+02  0.23642689569E+02  0.51100000000E-03 0.  1.
        -11    1    4    4    0    0 -0.11983862402E+02  0.13560359534E+02 -0.92700144314E+00  0.18120586103E+02  0.51100000000E-03 0. -1.
         12    1    4    4    0    0 -0.11413834364E+02  0.38894195396E+01 -0.36677682131E+01  0.12603797956E+02  0.00000000000E+00 0. -1.
</event>
<event>
 8    1  0.1244838E-006  0.9118800E+02  0.7816164E-02  0.1184000E+00
        -11   -1    0    0    0    0  0.00000000000E+00  0.00000000000E+00  0.45593999997E+02  0.45594000000E+02  0.51100000000E-03 0.  1.
         11   -1    0    0    0    0 -0.00000000000E+00 -0.00000000000E+00 -0.45593999997E+02  0.45594000000E+02  0.51100000000E-03 0. -1.
         23    2    1    2    0    0  0.00000000000E+00  0.00000000000E+00  0.11102230246E-15  0.91188000000E+02  0.91188000000E+02 0.  0.
    9900012    2    3    3    0    0 -0.78644587392E+01 -0.35967102175E+02 -0.54614561112E+00  0.54367076259E+02  0.39999981947E+02 0.  0.
        -12    1    3    3    0    0  0.78644587392E+01  0.35967102175E+02  0.54614561112E+00  0.36820923741E+02  0.00000000000E+00 0.  1.
         11    1    4    4    0    0  0.27070346937E+01 -0.30782661837E+02  0.95749332950E+01  0.32350883365E+02  0.51100000000E-03 0.  1.
        -11    1    4    4    0    0 -0.72740359981E+01 -0.81098209757E+01  0.89810864828E-01  0.10894441804E+02  0.51100000000E-03 0. -1.
         12    1    4    4    0    0 -0.32974574348E+01  0.29253806377E+01 -0.10210889771E+02  0.11121751091E+02  0.00000000000E+00 0. -1.
</event>
<event>
 8    1  0.1244838E-006  0.9118800E+02  0.7816164E-02  0.1184000E+00
        -11   -1    0    0    0    0  0.00000000000E+00  0.00000000000E+00  0.45593999997E+02  0.45594000000E+02  0.51100000000E-03 0.  1.
         11   -1    0    0    0    0 -0.00000000000E+00 -0.00000000000E+00 -0.45593999997E+02  0.45594000000E+02  0.51100000000E-03 0. -1.
         23    2    1    2    0    0 -0.35527136788E-14  0.35527136788E-14  0.88817841970E-15  0.91188000000E+02  0.91188000000E+02 0.  0.
    9900012    2    3    3    0    0  0.27455941889E+02 -0.24097462651E+02 -0.46112137270E+01  0.54367085519E+02  0.40000003057E+02 0.  0.
         12    1    3    3    0    0 -0.27455941889E+02  0.24097462651E+02  0.46112137270E+01  0.36820914481E+02  0.00000000000E+00 0. -1.
         11    1    4    4    0    0  0.25821108525E+02 -0.15870752662E+02 -0.92094723574E+01  0.31676881426E+02  0.51100000000E-03 0. -1.
        -11    1    4    4    0    0 -0.42392942948E+01 -0.10657282881E+02  0.93139779583E+01  0.14774961259E+02  0.51100000000E-03 0.  1.
        -12    1    4    4    0    0  0.58741276583E+01  0.24305728925E+01 -0.47157193278E+01  0.79152428333E+01  0.00000000000E+00 0.  1.
</event>
<event>
 8    1  0.1244838E-006  0.9118800E+02  0.7816164E-02  0.1184000E+00
        -11   -1    0    0    0    0  0.00000000000E+00  0.00000000000E+00  0.45593999997E+02  0.45594000000E+02  0.51100000000E-03 0.  1.
         11   -1    0    0    0    0 -0.00000000000E+00 -0.00000000000E+00 -0.45593999997E+02  0.45594000000E+02  0.51100000000E-03 0. -1.
         23    2    1    2    0    0  0.00000000000E+00  0.00000000000E+00  0.00000000000E+00  0.91188000000E+02  0.91188000000E+02 0.  0.
    9900012    2    3    3    0    0 -0.14102682022E+02 -0.32510815826E+02  0.99970466139E+01  0.54367085741E+02  0.40000003564E+02 0.  0.
         12    1    3    3    0    0  0.14102682022E+02  0.32510815826E+02 -0.99970466139E+01  0.36820914259E+02  0.00000000000E+00 0. -1.
         11    1    4    4    0    0  0.50895185373E+01 -0.16901076231E+02  0.45893341873E+01  0.18237641439E+02  0.51100000000E-03 0. -1.
        -11    1    4    4    0    0 -0.76959248665E+01 -0.18265633049E+02 -0.49496103684E+01  0.20429372318E+02  0.51100000000E-03 0.  1.
        -12    1    4    4    0    0 -0.11496275692E+02  0.26558934548E+01  0.10357322795E+02  0.15700071984E+02  0.00000000000E+00 0.  1.
</event>
<event>
 8    1  0.1244838E-006  0.9118800E+02  0.7816164E-02  0.1184000E+00
        -11   -1    0    0    0    0  0.00000000000E+00  0.00000000000E+00  0.45593999997E+02  0.45594000000E+02  0.51100000000E-03 0.  1.
         11   -1    0    0    0    0 -0.00000000000E+00 -0.00000000000E+00 -0.45593999997E+02  0.45594000000E+02  0.51100000000E-03 0. -1.
         23    2    1    2    0    0  0.00000000000E+00  0.00000000000E+00  0.88817841970E-15  0.91188000000E+02  0.91188000000E+02 0.  0.
    9900012    2    3    3    0    0  0.16694937450E+02 -0.32644865049E+02 -0.33724749976E+01  0.54367058430E+02  0.39999941303E+02 0.  0.
        -12    1    3    3    0    0 -0.16694937450E+02  0.32644865049E+02  0.33724749976E+01  0.36820941570E+02  0.00000000000E+00 0.  1.
         11    1    4    4    0    0  0.45535698651E+01  0.61583265763E+00 -0.52394140666E+01  0.69689101300E+01  0.51100000000E-03 0. -1.
        -11    1    4    4    0    0  0.61180722263E+01  0.10267477656E+01 -0.89982801645E+01  0.10929504331E+02  0.51100000000E-03 0.  1.
         12    1    4    4    0    0  0.60232953583E+01 -0.34287445472E+02  0.10865219233E+02  0.36468643969E+02  0.00000000000E+00 0. -1.
</event>
<event>
 8    1  0.1244838E-006  0.9118800E+02  0.7816164E-02  0.1184000E+00
        -11   -1    0    0    0    0  0.00000000000E+00  0.00000000000E+00  0.45593999997E+02  0.45594000000E+02  0.51100000000E-03 0.  1.
         11   -1    0    0    0    0 -0.00000000000E+00 -0.00000000000E+00 -0.45593999997E+02  0.45594000000E+02  0.51100000000E-03 0. -1.
         23    2    1    2    0    0  0.00000000000E+00 -0.88817841970E-15  0.00000000000E+00  0.91188000000E+02  0.91188000000E+02 0.  0.
    9900012    2    3    3    0    0  0.33959386750E+02 -0.64078338941E+01 -0.12707421705E+02  0.54367097648E+02  0.40000030709E+02 0.  0.
        -12    1    3    3    0    0 -0.33959386750E+02  0.64078338941E+01  0.12707421705E+02  0.36820902352E+02  0.00000000000E+00 0.  1.
         11    1    4    4    0    0  0.60829009679E+01  0.80141879277E+01 -0.13436401299E+02  0.16785880151E+02  0.51100000000E-03 0. -1.
        -11    1    4    4    0    0  0.55089591997E+01 -0.13426891841E+02 -0.31682997266E+01  0.14854904220E+02  0.51100000000E-03 0.  1.
         12    1    4    4    0    0  0.22367526582E+02 -0.99512998128E+00  0.38972793206E+01  0.22726313277E+02  0.00000000000E+00 0. -1.
</event>
<event>
 8    1  0.1244838E-006  0.9118800E+02  0.7816164E-02  0.1184000E+00
        -11   -1    0    0    0    0  0.00000000000E+00  0.00000000000E+00  0.45593999997E+02  0.45594000000E+02  0.51100000000E-03 0.  1.
         11   -1    0    0    0    0 -0.00000000000E+00 -0.00000000000E+00 -0.45593999997E+02  0.45594000000E+02  0.51100000000E-03 0. -1.
         23    2    1    2    0    0 -0.88817841970E-15  0.00000000000E+00 -0.88817841970E-15  0.91188000000E+02  0.91188000000E+02 0.  0.
    9900012    2    3    3    0    0  0.79096230642E+01 -0.35716971814E+02 -0.41848177359E+01  0.54367123964E+02  0.40000090701E+02 0.  0.
        -12    1    3    3    0    0 -0.79096230642E+01  0.35716971814E+02  0.41848177359E+01  0.36820876036E+02  0.00000000000E+00 0.  1.
         11    1    4    4    0    0  0.13581232950E+01 -0.38722203371E+02  0.54406362374E+01  0.39126130089E+02  0.51100000000E-03 0. -1.
        -11    1    4    4    0    0  0.15512000225E+01 -0.53757453567E+00 -0.89229146222E+01  0.90726850219E+01  0.51100000000E-03 0.  1.
         12    1    4    4    0    0  0.50002997467E+01  0.35428060929E+01 -0.70253935107E+00  0.61683088532E+01  0.00000000000E+00 0. -1.
</event>
<event>
 8    1  0.1244838E-006  0.9118800E+02  0.7816164E-02  0.1184000E+00
        -11   -1    0    0    0    0  0.00000000000E+00  0.00000000000E+00  0.45593999997E+02  0.45594000000E+02  0.51100000000E-03 0. -1.
         11   -1    0    0    0    0 -0.00000000000E+00 -0.00000000000E+00 -0.45593999997E+02  0.45594000000E+02  0.51100000000E-03 0.  1.
         23    2    1    2    0    0  0.00000000000E+00  0.35527136788E-14  0.00000000000E+00  0.91188000000E+02  0.91188000000E+02 0.  0.
    9900012    2    3    3    0    0  0.13487421035E+02  0.28255770996E+02 -0.19377253594E+02  0.54367121716E+02  0.40000085576E+02 0.  0.
         12    1    3    3    0    0 -0.13487421035E+02 -0.28255770996E+02  0.19377253594E+02  0.36820878284E+02  0.00000000000E+00 0. -1.
         11    1    4    4    0    0  0.60062474212E+01  0.16206099270E+02 -0.82567650320E+01  0.19154290138E+02  0.51100000000E-03 0. -1.
        -11    1    4    4    0    0  0.57392607228E+01 -0.80343562081E+01  0.33179112588E+01  0.10416262703E+02  0.51100000000E-03 0.  1.
        -12    1    4    4    0    0  0.17419128909E+01  0.20084027934E+02 -0.14438399821E+02  0.24796568874E+02  0.00000000000E+00 0.  1.
</event>
<event>
 8    1  0.1244838E-006  0.9118800E+02  0.7816164E-02  0.1184000E+00
        -11   -1    0    0    0    0  0.00000000000E+00  0.00000000000E+00  0.45593999997E+02  0.45594000000E+02  0.51100000000E-03 0.  1.
         11   -1    0    0    0    0 -0.00000000000E+00 -0.00000000000E+00 -0.45593999997E+02  0.45594000000E+02  0.51100000000E-03 0. -1.
         23    2    1    2    0    0  0.00000000000E+00 -0.17763568394E-14  0.00000000000E+00  0.91188000000E+02  0.91188000000E+02 0.  0.
    9900012    2    3    3    0    0 -0.30576324891E+02 -0.73522917069E+01  0.19152358832E+02  0.54367072716E+02  0.39999973871E+02 0.  0.
         12    1    3    3    0    0  0.30576324891E+02  0.73522917069E+01 -0.19152358832E+02  0.36820927284E+02  0.00000000000E+00 0. -1.
         11    1    4    4    0    0 -0.78543271612E+01  0.66890765773E+01 -0.55005787014E+01  0.11691474112E+02  0.51100000000E-03 0. -1.
        -11    1    4    4    0    0  0.23338685107E+01 -0.46372675191E+01  0.11995697068E+02  0.13070881404E+02  0.51100000000E-03 0.  1.
         12    1    4    4    0    0 -0.25055866240E+02 -0.94041007650E+01  0.12657240465E+02  0.29604717199E+02  0.00000000000E+00 0. -1.
</event>
<event>
 8    1  0.1244838E-006  0.9118800E+02  0.7816164E-02  0.1184000E+00
        -11   -1    0    0    0    0  0.00000000000E+00  0.00000000000E+00  0.45593999997E+02  0.45594000000E+02  0.51100000000E-03 0.  1.
         11   -1    0    0    0    0 -0.00000000000E+00 -0.00000000000E+00 -0.45593999997E+02  0.45594000000E+02  0.51100000000E-03 0. -1.
         23    2    1    2    0    0  0.00000000000E+00  0.17763568394E-14  0.00000000000E+00  0.91188000000E+02  0.91188000000E+02 0.  0.
    9900012    2    3    3    0    0 -0.34311838095E+02  0.13291420332E+02 -0.13477717840E+01  0.54367074201E+02  0.39999977256E+02 0.  0.
        -12    1    3    3    0    0  0.34311838095E+02 -0.13291420332E+02  0.13477717840E+01  0.36820925799E+02  0.00000000000E+00 0.  1.
         11    1    4    4    0    0  0.26458056494E+01  0.49492364016E+01 -0.51130183876E+01  0.75919816772E+01  0.51100000000E-03 0. -1.
        -11    1    4    4    0    0 -0.85719571846E+01  0.15019398851E+02 -0.52146552425E+00  0.17301234591E+02  0.51100000000E-03 0.  1.
         12    1    4    4    0    0 -0.28385686560E+02 -0.66772149206E+01  0.42867121278E+01  0.29473857933E+02  0.00000000000E+00 0. -1.
</event>
<event>
 8    1  0.1244838E-006  0.9118800E+02  0.7816164E-02  0.1184000E+00
        -11   -1    0    0    0    0  0.00000000000E+00  0.00000000000E+00  0.45593999997E+02  0.45594000000E+02  0.51100000000E-03 0.  1.
         11   -1    0    0    0    0 -0.00000000000E+00 -0.00000000000E+00 -0.45593999997E+02  0.45594000000E+02  0.51100000000E-03 0. -1.
         23    2    1    2    0    0 -0.35527136788E-14 -0.10658141036E-13  0.17763568394E-14  0.91188000000E+02  0.91188000000E+02 0.  0.
    9900012    2    3    3    0    0 -0.19743576923E+02 -0.29041370239E+02 -0.11071157548E+02  0.54367074638E+02  0.39999978251E+02 0.  0.
        -12    1    3    3    0    0  0.19743576923E+02  0.29041370239E+02  0.11071157548E+02  0.36820925362E+02  0.00000000000E+00 0.  1.
         11    1    4    4    0    0 -0.44614817425E+01 -0.60238012991E+01 -0.13604579981E+00  0.74973001908E+01  0.51100000000E-03 0. -1.
        -11    1    4    4    0    0  0.47050335668E+01 -0.32679775211E+01 -0.17159099016E+02  0.18090099426E+02  0.51100000000E-03 0.  1.
        -12    1    4    4    0    0 -0.19987128747E+02 -0.19749591419E+02  0.62239872678E+01  0.28779675021E+02  0.00000000000E+00 0.  1.
</event>
<event>
 8    1  0.1244838E-006  0.9118800E+02  0.7816164E-02  0.1184000E+00
        -11   -1    0    0    0    0  0.00000000000E+00  0.00000000000E+00  0.45593999997E+02  0.45594000000E+02  0.51100000000E-03 0.  1.
         11   -1    0    0    0    0 -0.00000000000E+00 -0.00000000000E+00 -0.45593999997E+02  0.45594000000E+02  0.51100000000E-03 0. -1.
         23    2    1    2    0    0  0.00000000000E+00  0.00000000000E+00 -0.44408920985E-15  0.91188000000E+02  0.91188000000E+02 0.  0.
    9900012    2    3    3    0    0  0.35270520329E+02 -0.98445978485E+01  0.38538513638E+01  0.54367110801E+02  0.40000060693E+02 0.  0.
        -12    1    3    3    0    0 -0.35270520329E+02  0.98445978485E+01 -0.38538513638E+01  0.36820889199E+02  0.00000000000E+00 0.  1.
         11    1    4    4    0    0  0.18279567692E+02 -0.44568172090E+01  0.13370214968E+02  0.23081777730E+02  0.51100000000E-03 0. -1.
        -11    1    4    4    0    0  0.60132638721E+01  0.68103667473E+01  0.40942246307E+01  0.99650947420E+01  0.51100000000E-03 0.  1.
         12    1    4    4    0    0  0.10977688765E+02 -0.12198147387E+02 -0.13610588235E+02  0.21320238329E+02  0.00000000000E+00 0. -1.
</event>
<event>
 8    1  0.1244838E-006  0.9118800E+02  0.7816164E-02  0.1184000E+00
        -11   -1    0    0    0    0  0.00000000000E+00  0.00000000000E+00  0.45593999997E+02  0.45594000000E+02  0.51100000000E-03 0. -1.
         11   -1    0    0    0    0 -0.00000000000E+00 -0.00000000000E+00 -0.45593999997E+02  0.45594000000E+02  0.51100000000E-03 0.  1.
         23    2    1    2    0    0  0.00000000000E+00  0.00000000000E+00  0.35527136788E-14  0.91188000000E+02  0.91188000000E+02 0.  0.
    9900012    2    3    3    0    0 -0.22026417534E+02 -0.35592423349E+01 -0.29290748563E+02  0.54367092532E+02  0.40000019045E+02 0.  0.
         12    1    3    3    0    0  0.22026417534E+02  0.35592423349E+01  0.29290748563E+02  0.36820907468E+02  0.00000000000E+00 0. -1.
         11    1    4    4    0    0 -0.18379553847E+02 -0.47364287210E+00 -0.30400096151E+01  0.18635288995E+02  0.51100000000E-03 0. -1.
        -11    1    4    4    0    0  0.18459718783E+01  0.86668646104E+01 -0.34703632387E+01  0.95165947491E+01  0.51100000000E-03 0.  1.
         12    1    4    4    0    0 -0.54928355652E+01 -0.11752464073E+02 -0.22780375709E+02  0.26215208788E+02  0.00000000000E+00 0. -1.
</event>
<event>
 8    1  0.1244838E-006  0.9118800E+02  0.7816164E-02  0.1184000E+00
        -11   -1    0    0    0    0  0.00000000000E+00  0.00000000000E+00  0.45593999997E+02  0.45594000000E+02  0.51100000000E-03 0. -1.
         11   -1    0    0    0    0 -0.00000000000E+00 -0.00000000000E+00 -0.45593999997E+02  0.45594000000E+02  0.51100000000E-03 0.  1.
         23    2    1    2    0    0  0.00000000000E+00 -0.88817841970E-15 -0.17763568394E-14  0.91188000000E+02  0.91188000000E+02 0.  0.
    9900012    2    3    3    0    0 -0.34621559584E+02 -0.48259378528E+01  0.11568782346E+02  0.54367098475E+02  0.40000032592E+02 0.  0.
        -12    1    3    3    0    0  0.34621559584E+02  0.48259378528E+01 -0.11568782346E+02  0.36820901525E+02  0.00000000000E+00 0.  1.
         11    1    4    4    0    0 -0.36402428446E+02 -0.14841393708E+02  0.84056257177E+01  0.40200227710E+02  0.51100000000E-03 0. -1.
        -11    1    4    4    0    0 -0.61996844133E+00 -0.31282180321E+00  0.34897746832E+01  0.35581941978E+01  0.51100000000E-03 0.  1.
        -12    1    4    4    0    0  0.24008373040E+01  0.10328277658E+02 -0.32661805437E+00  0.10608676567E+02  0.00000000000E+00 0.  1.
</event>
<event>
 8    1  0.1244838E-006  0.9118800E+02  0.7816164E-02  0.1184000E+00
        -11   -1    0    0    0    0  0.00000000000E+00  0.00000000000E+00  0.45593999997E+02  0.45594000000E+02  0.51100000000E-03 0.  1.
         11   -1    0    0    0    0 -0.00000000000E+00 -0.00000000000E+00 -0.45593999997E+02  0.45594000000E+02  0.51100000000E-03 0. -1.
         23    2    1    2    0    0  0.17763568394E-14 -0.71054273576E-14  0.17763568394E-14  0.91188000000E+02  0.91188000000E+02 0.  0.
    9900012    2    3    3    0    0 -0.99406574725E+01  0.33986387599E+02 -0.10094032897E+02  0.54367072348E+02  0.39999973033E+02 0.  0.
         12    1    3    3    0    0  0.99406574725E+01 -0.33986387599E+02  0.10094032897E+02  0.36820927652E+02  0.00000000000E+00 0. -1.
         11    1    4    4    0    0 -0.12604744997E+02 -0.36802306933E+00  0.18832414667E+01  0.12749966121E+02  0.51100000000E-03 0. -1.
        -11    1    4    4    0    0  0.35850392559E+01  0.18419113815E+02 -0.16542284734E+02  0.25015264234E+02  0.51100000000E-03 0.  1.
        -12    1    4    4    0    0 -0.92095173161E+00  0.15935296853E+02  0.45650103707E+01  0.16601841993E+02  0.00000000000E+00 0.  1.
</event>
<event>
 8    1  0.1244838E-006  0.9118800E+02  0.7816164E-02  0.1184000E+00
        -11   -1    0    0    0    0  0.00000000000E+00  0.00000000000E+00  0.45593999997E+02  0.45594000000E+02  0.51100000000E-03 0. -1.
         11   -1    0    0    0    0 -0.00000000000E+00 -0.00000000000E+00 -0.45593999997E+02  0.45594000000E+02  0.51100000000E-03 0.  1.
         23    2    1    2    0    0 -0.35527136788E-14  0.17763568394E-14  0.35527136788E-14  0.91188000000E+02  0.91188000000E+02 0.  0.
    9900012    2    3    3    0    0 -0.24535968119E+02 -0.14536884589E+02  0.23290344658E+02  0.54367151294E+02  0.40000153005E+02 0.  0.
        -12    1    3    3    0    0  0.24535968119E+02  0.14536884589E+02 -0.23290344658E+02  0.36820848706E+02  0.00000000000E+00 0.  1.
         11    1    4    4    0    0  0.51290844742E+01  0.53463377068E+01  0.74960579477E+01  0.10539531272E+02  0.51100000000E-03 0. -1.
        -11    1    4    4    0    0 -0.42244961069E+01  0.38119927898E+01  0.11990822965E+00  0.56914000590E+01  0.51100000000E-03 0.  1.
        -12    1    4    4    0    0 -0.25440556486E+02 -0.23695215086E+02  0.15674378481E+02  0.38136219963E+02  0.00000000000E+00 0.  1.
</event>
<event>
 8    1  0.1244838E-006  0.9118800E+02  0.7816164E-02  0.1184000E+00
        -11   -1    0    0    0    0  0.00000000000E+00  0.00000000000E+00  0.45593999997E+02  0.45594000000E+02  0.51100000000E-03 0. -1.
         11   -1    0    0    0    0 -0.00000000000E+00 -0.00000000000E+00 -0.45593999997E+02  0.45594000000E+02  0.51100000000E-03 0.  1.
         23    2    1    2    0    0  0.00000000000E+00  0.22204460493E-15  0.00000000000E+00  0.91188000000E+02  0.91188000000E+02 0.  0.
    9900012    2    3    3    0    0 -0.34963306782E+02  0.13007002468E+01 -0.11474136247E+02  0.54367075991E+02  0.39999981337E+02 0.  0.
         12    1    3    3    0    0  0.34963306782E+02 -0.13007002468E+01  0.11474136247E+02  0.36820924009E+02  0.00000000000E+00 0. -1.
         11    1    4    4    0    0 -0.26207623858E+02  0.47562995072E+01 -0.32533384427E+01  0.26833675569E+02  0.51100000000E-03 0.  1.
        -11    1    4    4    0    0 -0.20454700041E+01 -0.14248958137E+01 -0.16498502914E+02  0.16685768615E+02  0.51100000000E-03 0. -1.
         12    1    4    4    0    0 -0.67102129200E+01 -0.20307034467E+01  0.82777051102E+01  0.10847631807E+02  0.00000000000E+00 0. -1.
</event>
<event>
 8    1  0.1244838E-006  0.9118800E+02  0.7816164E-02  0.1184000E+00
        -11   -1    0    0    0    0  0.00000000000E+00  0.00000000000E+00  0.45593999997E+02  0.45594000000E+02  0.51100000000E-03 0.  1.
         11   -1    0    0    0    0 -0.00000000000E+00 -0.00000000000E+00 -0.45593999997E+02  0.45594000000E+02  0.51100000000E-03 0. -1.
         23    2    1    2    0    0  0.00000000000E+00  0.00000000000E+00  0.35527136788E-14  0.91188000000E+02  0.91188000000E+02 0.  0.
    9900012    2    3    3    0    0 -0.11083236027E+02  0.29924789416E+02 -0.18369581701E+02  0.54367181510E+02  0.40000221887E+02 0.  0.
        -12    1    3    3    0    0  0.11083236027E+02 -0.29924789416E+02  0.18369581701E+02  0.36820818490E+02  0.00000000000E+00 0.  1.
         11    1    4    4    0    0 -0.56079682221E+01  0.15359563034E+02 -0.10620064973E+02  0.19497468156E+02  0.51100000000E-03 0. -1.
        -11    1    4    4    0    0 -0.24108107246E+01  0.14020428145E+02  0.96523834270E+01  0.17191652620E+02  0.51100000000E-03 0.  1.
         12    1    4    4    0    0 -0.30644570804E+01  0.54479823657E+00 -0.17401900155E+02  0.17678060734E+02  0.00000000000E+00 0. -1.
</event>
<event>
 8    1  0.1244838E-006  0.9118800E+02  0.7816164E-02  0.1184000E+00
        -11   -1    0    0    0    0  0.00000000000E+00  0.00000000000E+00  0.45593999997E+02  0.45594000000E+02  0.51100000000E-03 0.  1.
         11   -1    0    0    0    0 -0.00000000000E+00 -0.00000000000E+00 -0.45593999997E+02  0.45594000000E+02  0.51100000000E-03 0. -1.
         23    2    1    2    0    0 -0.35527136788E-14  0.00000000000E+00  0.35527136788E-14  0.91188000000E+02  0.91188000000E+02 0.  0.
    9900012    2    3    3    0    0 -0.19786785191E+02  0.18097859329E+02  0.25233537772E+02  0.54367071047E+02  0.39999970066E+02 0.  0.
         12    1    3    3    0    0  0.19786785191E+02 -0.18097859329E+02 -0.25233537772E+02  0.36820928953E+02  0.00000000000E+00 0. -1.
         11    1    4    4    0    0 -0.65470971754E+01 -0.53204960334E+01  0.47166574282E+01  0.96653513657E+01  0.51100000000E-03 0. -1.
        -11    1    4    4    0    0  0.14755752916E+01  0.13617039383E+02 -0.41872182174E+01  0.14322495616E+02  0.51100000000E-03 0.  1.
         12    1    4    4    0    0 -0.14715263307E+02  0.98013159793E+01  0.24704098561E+02  0.30379224066E+02  0.00000000000E+00 0. -1.
</event>
<event>
 8    1  0.1244838E-006  0.9118800E+02  0.7816164E-02  0.1184000E+00
        -11   -1    0    0    0    0  0.00000000000E+00  0.00000000000E+00  0.45593999997E+02  0.45594000000E+02  0.51100000000E-03 0.  1.
         11   -1    0    0    0    0 -0.00000000000E+00 -0.00000000000E+00 -0.45593999997E+02  0.45594000000E+02  0.51100000000E-03 0. -1.
         23    2    1    2    0    0  0.71054273576E-14  0.00000000000E+00  0.88817841970E-15  0.91188000000E+02  0.91188000000E+02 0.  0.
    9900012    2    3    3    0    0  0.34328542536E+02 -0.12562676607E+02 -0.44169253083E+01  0.54367096897E+02  0.40000028996E+02 0.  0.
         12    1    3    3    0    0 -0.34328542536E+02  0.12562676607E+02  0.44169253083E+01  0.36820903103E+02  0.00000000000E+00 0. -1.
         11    1    4    4    0    0 -0.23486284571E+01 -0.14132309177E+01 -0.48371563589E+00  0.27833897201E+01  0.51100000000E-03 0. -1.
        -11    1    4    4    0    0  0.35961992117E+02 -0.88763175413E+01 -0.15221360545E+02  0.40046768999E+02  0.51100000000E-03 0.  1.
        -12    1    4    4    0    0  0.71517887541E+00 -0.22731281478E+01  0.11288150872E+02  0.11536938178E+02  0.00000000000E+00 0.  1.
</event>
<event>
 8    1  0.1244838E-006  0.9118800E+02  0.7816164E-02  0.1184000E+00
        -11   -1    0    0    0    0  0.00000000000E+00  0.00000000000E+00  0.45593999997E+02  0.45594000000E+02  0.51100000000E-03 0.  1.
         11   -1    0    0    0    0 -0.00000000000E+00 -0.00000000000E+00 -0.45593999997E+02  0.45594000000E+02  0.51100000000E-03 0. -1.
         23    2    1    2    0    0 -0.35527136788E-14 -0.35527136788E-14  0.00000000000E+00  0.91188000000E+02  0.91188000000E+02 0.  0.
    9900012    2    3    3    0    0 -0.18115842489E+02 -0.24722330318E+02 -0.20405952291E+02  0.54367078578E+02  0.39999987235E+02 0.  0.
        -12    1    3    3    0    0  0.18115842489E+02  0.24722330318E+02  0.20405952291E+02  0.36820921422E+02  0.00000000000E+00 0.  1.
         11    1    4    4    0    0 -0.86611109739E+01 -0.13108730575E+02 -0.98137513507E+01  0.18524669401E+02  0.51100000000E-03 0. -1.
        -11    1    4    4    0    0  0.24208829873E+01 -0.19412831089E+02 -0.31883048031E+01  0.19821300994E+02  0.51100000000E-03 0.  1.
         12    1    4    4    0    0 -0.11875614503E+02  0.77992313456E+01 -0.74038961375E+01  0.16021108183E+02  0.00000000000E+00 0. -1.
</event>
<event>
 8    1  0.1244838E-006  0.9118800E+02  0.7816164E-02  0.1184000E+00
        -11   -1    0    0    0    0  0.00000000000E+00  0.00000000000E+00  0.45593999997E+02  0.45594000000E+02  0.51100000000E-03 0. -1.
         11   -1    0    0    0    0 -0.00000000000E+00 -0.00000000000E+00 -0.45593999997E+02  0.45594000000E+02  0.51100000000E-03 0.  1.
         23    2    1    2    0    0  0.35527136788E-14  0.00000000000E+00  0.17763568394E-14  0.91188000000E+02  0.91188000000E+02 0.  0.
    9900012    2    3    3    0    0  0.24346039383E+02 -0.22805455173E+02  0.15587245236E+02  0.54367073432E+02  0.39999975503E+02 0.  0.
        -12    1    3    3    0    0 -0.24346039383E+02  0.22805455173E+02 -0.15587245236E+02  0.36820926568E+02  0.00000000000E+00 0.  1.
         11    1    4    4    0    0  0.22173053043E+02 -0.17884112503E+02  0.55077214620E+00  0.28491913089E+02  0.51100000000E-03 0. -1.
        -11    1    4    4    0    0 -0.32682532474E+01 -0.11519555006E+02  0.58600717422E+01  0.13331244049E+02  0.51100000000E-03 0.  1.
         12    1    4    4    0    0  0.54412395879E+01  0.65982123360E+01  0.91764013476E+01  0.12543916293E+02  0.00000000000E+00 0. -1.
</event>
<event>
 8    1  0.1244838E-006  0.9118800E+02  0.7816164E-02  0.1184000E+00
        -11   -1    0    0    0    0  0.00000000000E+00  0.00000000000E+00  0.45593999997E+02  0.45594000000E+02  0.51100000000E-03 0.  1.
         11   -1    0    0    0    0 -0.00000000000E+00 -0.00000000000E+00 -0.45593999997E+02  0.45594000000E+02  0.51100000000E-03 0. -1.
         23    2    1    2    0    0  0.00000000000E+00  0.00000000000E+00  0.00000000000E+00  0.91188000000E+02  0.91188000000E+02 0.  0.
    9900012    2    3    3    0    0 -0.27132163738E+02  0.44171854259E+01 -0.24497224314E+02  0.54367084268E+02  0.40000000207E+02 0.  0.
        -12    1    3    3    0    0  0.27132163738E+02 -0.44171854259E+01  0.24497224314E+02  0.36820915732E+02  0.00000000000E+00 0.  1.
         11    1    4    4    0    0  0.79845340611E+01 -0.62562761534E+01 -0.72339314175E+01  0.12458873926E+02  0.51100000000E-03 0. -1.
        -11    1    4    4    0    0 -0.82651726116E+01 -0.13709602242E+01 -0.14599816725E+01  0.85043610566E+01  0.51100000000E-03 0.  1.
        -12    1    4    4    0    0 -0.26851525188E+02  0.12044421803E+02 -0.15803311224E+02  0.33403849286E+02  0.00000000000E+00 0.  1.
</event>
<event>
 8    1  0.1244838E-006  0.9118800E+02  0.7816164E-02  0.1184000E+00
        -11   -1    0    0    0    0  0.00000000000E+00  0.00000000000E+00  0.45593999997E+02  0.45594000000E+02  0.51100000000E-03 0.  1.
         11   -1    0    0    0    0 -0.00000000000E+00 -0.00000000000E+00 -0.45593999997E+02  0.45594000000E+02  0.51100000000E-03 0. -1.
         23    2    1    2    0    0  0.00000000000E+00  0.00000000000E+00  0.00000000000E+00  0.91188000000E+02  0.91188000000E+02 0.  0.
    9900012    2    3    3    0    0 -0.14712196432E+02 -0.21656709258E+02  0.25890510389E+02  0.54367077851E+02  0.39999985577E+02 0.  0.
         12    1    3    3    0    0  0.14712196432E+02  0.21656709258E+02 -0.25890510389E+02  0.36820922149E+02  0.00000000000E+00 0. -1.
         11    1    4    4    0    0 -0.84581354833E+00  0.73837000254E+01 -0.44263999849E+01  0.86502857589E+01  0.51100000000E-03 0. -1.
        -11    1    4    4    0    0 -0.14069970042E+02 -0.26698400402E+02  0.22750421733E+02  0.37793522333E+02  0.51100000000E-03 0.  1.
        -12    1    4    4    0    0  0.20358715871E+00 -0.23420088806E+01  0.75664886408E+01  0.79232697593E+01  0.00000000000E+00 0.  1.
</event>
<event>
 8    1  0.1244838E-006  0.9118800E+02  0.7816164E-02  0.1184000E+00
        -11   -1    0    0    0    0  0.00000000000E+00  0.00000000000E+00  0.45593999997E+02  0.45594000000E+02  0.51100000000E-03 0.  1.
         11   -1    0    0    0    0 -0.00000000000E+00 -0.00000000000E+00 -0.45593999997E+02  0.45594000000E+02  0.51100000000E-03 0. -1.
         23    2    1    2    0    0  0.00000000000E+00  0.35527136788E-14  0.35527136788E-14  0.91188000000E+02  0.91188000000E+02 0.  0.
    9900012    2    3    3    0    0 -0.11780007350E+02 -0.29614252746E+02 -0.18439220988E+02  0.54367117209E+02  0.40000075301E+02 0.  0.
        -12    1    3    3    0    0  0.11780007350E+02  0.29614252746E+02  0.18439220988E+02  0.36820882791E+02  0.00000000000E+00 0.  1.
         11    1    4    4    0    0 -0.98628213602E+01 -0.10315726264E+02 -0.35606296727E+01  0.14709437021E+02  0.51100000000E-03 0. -1.
        -11    1    4    4    0    0 -0.84972359477E+01 -0.20484844308E+02  0.12353505247E+01  0.22211662618E+02  0.51100000000E-03 0.  1.
        -12    1    4    4    0    0  0.65800499578E+01  0.11863178264E+01 -0.16113941840E+02  0.17446017570E+02  0.00000000000E+00 0.  1.
</event>
<event>
 8    1  0.1244838E-006  0.9118800E+02  0.7816164E-02  0.1184000E+00
        -11   -1    0    0    0    0  0.00000000000E+00  0.00000000000E+00  0.45593999997E+02  0.45594000000E+02  0.51100000000E-03 0. -1.
         11   -1    0    0    0    0 -0.00000000000E+00 -0.00000000000E+00 -0.45593999997E+02  0.45594000000E+02  0.51100000000E-03 0.  1.
         23    2    1    2    0    0  0.17763568394E-14  0.35527136788E-14  0.00000000000E+00  0.91188000000E+02  0.91188000000E+02 0.  0.
    9900012    2    3    3    0    0  0.14881001994E+02  0.30054213144E+02  0.15201310654E+02  0.54367084834E+02  0.40000001497E+02 0.  0.
        -12    1    3    3    0    0 -0.14881001994E+02 -0.30054213144E+02 -0.15201310654E+02  0.36820915166E+02  0.00000000000E+00 0.  1.
         11    1    4    4    0    0  0.17225220732E+02  0.96669445590E+01  0.82578877369E+01  0.21409127879E+02  0.51100000000E-03 0. -1.
        -11    1    4    4    0    0  0.41871345409E+01 -0.42220170686E+01  0.43448131164E+01  0.73644365072E+01  0.51100000000E-03 0.  1.
         12    1    4    4    0    0 -0.65313532798E+01  0.24609285654E+02  0.25986098009E+01  0.25593520448E+02  0.00000000000E+00 0. -1.
</event>
<event>
 8    1  0.1244838E-006  0.9118800E+02  0.7816164E-02  0.1184000E+00
        -11   -1    0    0    0    0  0.00000000000E+00  0.00000000000E+00  0.45593999997E+02  0.45594000000E+02  0.51100000000E-03 0.  1.
         11   -1    0    0    0    0 -0.00000000000E+00 -0.00000000000E+00 -0.45593999997E+02  0.45594000000E+02  0.51100000000E-03 0. -1.
         23    2    1    2    0    0  0.17763568394E-14  0.00000000000E+00  0.00000000000E+00  0.91188000000E+02  0.91188000000E+02 0.  0.
    9900012    2    3    3    0    0 -0.14738316471E+02  0.87716610280E+01  0.32582482754E+02  0.54367106583E+02  0.40000051077E+02 0.  0.
         12    1    3    3    0    0  0.14738316471E+02 -0.87716610280E+01 -0.32582482754E+02  0.36820893417E+02  0.00000000000E+00 0. -1.
         11    1    4    4    0    0  0.53464030166E+00  0.15693464641E+02  0.44109717709E+01  0.16310344721E+02  0.51100000000E-03 0. -1.
        -11    1    4    4    0    0  0.30084108806E+01  0.19344522581E+01  0.10636458139E+02  0.11221714823E+02  0.51100000000E-03 0.  1.
         12    1    4    4    0    0 -0.18281367654E+02 -0.88562558707E+01  0.17535052845E+02  0.26835047040E+02  0.00000000000E+00 0. -1.
</event>
<event>
 8    1  0.1244838E-006  0.9118800E+02  0.7816164E-02  0.1184000E+00
        -11   -1    0    0    0    0  0.00000000000E+00  0.00000000000E+00  0.45593999997E+02  0.45594000000E+02  0.51100000000E-03 0.  1.
         11   -1    0    0    0    0 -0.00000000000E+00 -0.00000000000E+00 -0.45593999997E+02  0.45594000000E+02  0.51100000000E-03 0. -1.
         23    2    1    2    0    0  0.00000000000E+00 -0.44408920985E-15  0.00000000000E+00  0.91188000000E+02  0.91188000000E+02 0.  0.
    9900012    2    3    3    0    0  0.36405866609E+02 -0.36697930757E+01 -0.41141860201E+01  0.54367068027E+02  0.39999963181E+02 0.  0.
         12    1    3    3    0    0 -0.36405866609E+02  0.36697930757E+01  0.41141860201E+01  0.36820931973E+02  0.00000000000E+00 0. -1.
         11    1    4    4    0    0 -0.45072447834E+00 -0.23557325653E+01 -0.43403021549E+01  0.49589163666E+01  0.51100000000E-03 0. -1.
        -11    1    4    4    0    0  0.15775594848E+02  0.56610615845E+01 -0.14993241657E+02  0.22488092554E+02  0.51100000000E-03 0.  1.
        -12    1    4    4    0    0  0.21080996239E+02 -0.69751220950E+01  0.15219357792E+02  0.26920059106E+02  0.00000000000E+00 0.  1.
</event>
<event>
 8    1  0.1244838E-006  0.9118800E+02  0.7816164E-02  0.1184000E+00
        -11   -1    0    0    0    0  0.00000000000E+00  0.00000000000E+00  0.45593999997E+02  0.45594000000E+02  0.51100000000E-03 0.  1.
         11   -1    0    0    0    0 -0.00000000000E+00 -0.00000000000E+00 -0.45593999997E+02  0.45594000000E+02  0.51100000000E-03 0. -1.
         23    2    1    2    0    0  0.17763568394E-14 -0.35527136788E-14  0.35527136788E-14  0.91188000000E+02  0.91188000000E+02 0.  0.
    9900012    2    3    3    0    0  0.12740777469E+02  0.26724135600E+02 -0.21892313427E+02  0.54367079028E+02  0.39999988259E+02 0.  0.
        -12    1    3    3    0    0 -0.12740777469E+02 -0.26724135600E+02  0.21892313427E+02  0.36820920972E+02  0.00000000000E+00 0.  1.
         11    1    4    4    0    0  0.38126085782E+01  0.17659560352E+01 -0.21929350310E+02  0.22328255421E+02  0.51100000000E-03 0. -1.
        -11    1    4    4    0    0 -0.31234084646E+01  0.12798535619E+02  0.51906885529E+01  0.14159853189E+02  0.51100000000E-03 0.  1.
         12    1    4    4    0    0  0.12051577355E+02  0.12159643946E+02 -0.51536516698E+01  0.17878970417E+02  0.00000000000E+00 0. -1.
</event>
<event>
 8    1  0.1244838E-006  0.9118800E+02  0.7816164E-02  0.1184000E+00
        -11   -1    0    0    0    0  0.00000000000E+00  0.00000000000E+00  0.45593999997E+02  0.45594000000E+02  0.51100000000E-03 0. -1.
         11   -1    0    0    0    0 -0.00000000000E+00 -0.00000000000E+00 -0.45593999997E+02  0.45594000000E+02  0.51100000000E-03 0.  1.
         23    2    1    2    0    0  0.00000000000E+00  0.35527136788E-14  0.35527136788E-14  0.91188000000E+02  0.91188000000E+02 0.  0.
    9900012    2    3    3    0    0  0.77698773787E+01 -0.29395284226E+02  0.20768342150E+02  0.54367112384E+02  0.40000064301E+02 0.  0.
        -12    1    3    3    0    0 -0.77698773787E+01  0.29395284226E+02 -0.20768342150E+02  0.36820887616E+02  0.00000000000E+00 0.  1.
         11    1    4    4    0    0  0.51434686367E+00 -0.24114299731E+02  0.16927396264E+02  0.29466943322E+02  0.51100000000E-03 0. -1.
        -11    1    4    4    0    0  0.33550219270E+01 -0.29146745151E+00 -0.95287358153E+01  0.10106331278E+02  0.51100000000E-03 0.  1.
        -12    1    4    4    0    0  0.39005085881E+01 -0.49895170438E+01  0.13369681701E+02  0.14793837783E+02  0.00000000000E+00 0.  1.
</event>
<event>
 8    1  0.1244838E-006  0.9118800E+02  0.7816164E-02  0.1184000E+00
        -11   -1    0    0    0    0  0.00000000000E+00  0.00000000000E+00  0.45593999997E+02  0.45594000000E+02  0.51100000000E-03 0.  1.
         11   -1    0    0    0    0 -0.00000000000E+00 -0.00000000000E+00 -0.45593999997E+02  0.45594000000E+02  0.51100000000E-03 0. -1.
         23    2    1    2    0    0  0.00000000000E+00  0.00000000000E+00  0.71054273576E-14  0.91188000000E+02  0.91188000000E+02 0.  0.
    9900012    2    3    3    0    0 -0.19036986561E+02  0.93750316670E+01 -0.30091217768E+02  0.54367089326E+02  0.40000011736E+02 0.  0.
        -12    1    3    3    0    0  0.19036986561E+02 -0.93750316670E+01  0.30091217768E+02  0.36820910674E+02  0.00000000000E+00 0.  1.
         11    1    4    4    0    0 -0.16010478192E+02  0.18026848011E+02 -0.18949437069E+02  0.30665678317E+02  0.51100000000E-03 0. -1.
        -11    1    4    4    0    0 -0.44886539655E+00  0.20019837147E+01  0.43002220235E+01  0.47645911315E+01  0.51100000000E-03 0.  1.
        -12    1    4    4    0    0 -0.25776429731E+01 -0.10653800059E+02 -0.15442002722E+02  0.18936819877E+02  0.00000000000E+00 0.  1.
</event>
<event>
 8    1  0.1244838E-006  0.9118800E+02  0.7816164E-02  0.1184000E+00
        -11   -1    0    0    0    0  0.00000000000E+00  0.00000000000E+00  0.45593999997E+02  0.45594000000E+02  0.51100000000E-03 0.  1.
         11   -1    0    0    0    0 -0.00000000000E+00 -0.00000000000E+00 -0.45593999997E+02  0.45594000000E+02  0.51100000000E-03 0. -1.
         23    2    1    2    0    0  0.35527136788E-14  0.00000000000E+00  0.22204460493E-15  0.91188000000E+02  0.91188000000E+02 0.  0.
    9900012    2    3    3    0    0 -0.24418520271E+02 -0.27537770095E+02  0.10895032169E+01  0.54367082965E+02  0.39999997234E+02 0.  0.
         12    1    3    3    0    0  0.24418520271E+02  0.27537770095E+02 -0.10895032169E+01  0.36820917035E+02  0.00000000000E+00 0. -1.
         11    1    4    4    0    0 -0.20475175114E-01 -0.31705313265E+01 -0.85274973624E+01  0.90978513756E+01  0.51100000000E-03 0. -1.
        -11    1    4    4    0    0 -0.10057324567E+02 -0.17881749595E+02 -0.76587801830E+01  0.21898941987E+02  0.51100000000E-03 0.  1.
        -12    1    4    4    0    0 -0.14340720529E+02 -0.64854891744E+01  0.17275780762E+02  0.23370289602E+02  0.00000000000E+00 0.  1.
</event>
<event>
 8    1  0.1244838E-006  0.9118800E+02  0.7816164E-02  0.1184000E+00
        -11   -1    0    0    0    0  0.00000000000E+00  0.00000000000E+00  0.45593999997E+02  0.45594000000E+02  0.51100000000E-03 0.  1.
         11   -1    0    0    0    0 -0.00000000000E+00 -0.00000000000E+00 -0.45593999997E+02  0.45594000000E+02  0.51100000000E-03 0. -1.
         23    2    1    2    0    0  0.00000000000E+00  0.00000000000E+00 -0.83266726847E-15  0.91188000000E+02  0.91188000000E+02 0.  0.
    9900012    2    3    3    0    0  0.15547827732E+02 -0.33374587995E+02 -0.42879887297E+00  0.54367055695E+02  0.39999935069E+02 0.  0.
        -12    1    3    3    0    0 -0.15547827732E+02  0.33374587995E+02  0.42879887297E+00  0.36820944305E+02  0.00000000000E+00 0.  1.
         11    1    4    4    0    0  0.21341988919E+02 -0.30935947095E+02  0.76062678527E+01  0.38345385963E+02  0.51100000000E-03 0. -1.
        -11    1    4    4    0    0 -0.31160642772E+01 -0.53068061377E+01  0.94078598372E+00  0.62255221862E+01  0.51100000000E-03 0.  1.
         12    1    4    4    0    0 -0.26780969098E+01  0.28681652383E+01 -0.89758527094E+01  0.97961475466E+01  0.00000000000E+00 0. -1.
</event>
<event>
 8    1  0.1244838E-006  0.9118800E+02  0.7816164E-02  0.1184000E+00
        -11   -1    0    0    0    0  0.00000000000E+00  0.00000000000E+00  0.45593999997E+02  0.45594000000E+02  0.51100000000E-03 0.  1.
         11   -1    0    0    0    0 -0.00000000000E+00 -0.00000000000E+00 -0.45593999997E+02  0.45594000000E+02  0.51100000000E-03 0. -1.
         23    2    1    2    0    0  0.35527136788E-14  0.35527136788E-14  0.00000000000E+00  0.91188000000E+02  0.91188000000E+02 0.  0.
    9900012    2    3    3    0    0 -0.23796171211E+02  0.20821341406E+02 -0.18867789198E+02  0.54367088938E+02  0.40000010852E+02 0.  0.
        -12    1    3    3    0    0  0.23796171211E+02 -0.20821341406E+02  0.18867789198E+02  0.36820911062E+02  0.00000000000E+00 0.  1.
         11    1    4    4    0    0 -0.10276396308E+02  0.67769787863E+01 -0.15175635983E+02  0.19540514075E+02  0.51100000000E-03 0. -1.
        -11    1    4    4    0    0  0.27707208335E+01 -0.72648769891E+01 -0.20482571601E+00  0.77780000925E+01  0.51100000000E-03 0.  1.
        -12    1    4    4    0    0 -0.16290495736E+02  0.21309239609E+02 -0.34873274984E+01  0.27048574771E+02  0.00000000000E+00 0.  1.
</event>
<event>
 8    1  0.1244838E-006  0.9118800E+02  0.7816164E-02  0.1184000E+00
        -11   -1    0    0    0    0  0.00000000000E+00  0.00000000000E+00  0.45593999997E+02  0.45594000000E+02  0.51100000000E-03 0. -1.
         11   -1    0    0    0    0 -0.00000000000E+00 -0.00000000000E+00 -0.45593999997E+02  0.45594000000E+02  0.51100000000E-03 0.  1.
         23    2    1    2    0    0  0.00000000000E+00  0.00000000000E+00  0.00000000000E+00  0.91188000000E+02  0.91188000000E+02 0.  0.
    9900012    2    3    3    0    0  0.17407863291E+02 -0.30906795721E+02  0.98747231833E+01  0.54367165082E+02  0.40000184436E+02 0.  0.
         12    1    3    3    0    0 -0.17407863291E+02  0.30906795721E+02 -0.98747231833E+01  0.36820834918E+02  0.00000000000E+00 0. -1.
         11    1    4    4    0    0  0.13788944105E+02 -0.13194601905E+02  0.65051366115E+01  0.20163067762E+02  0.51100000000E-03 0. -1.
        -11    1    4    4    0    0  0.88328562162E+01 -0.92721090470E+01  0.14465782574E+02  0.19319684802E+02  0.51100000000E-03 0.  1.
         12    1    4    4    0    0 -0.52139370303E+01 -0.84400847690E+01 -0.11096196002E+02  0.14884412517E+02  0.00000000000E+00 0. -1.
</event>
<event>
 8    1  0.1244838E-006  0.9118800E+02  0.7816164E-02  0.1184000E+00
        -11   -1    0    0    0    0  0.00000000000E+00  0.00000000000E+00  0.45593999997E+02  0.45594000000E+02  0.51100000000E-03 0.  1.
         11   -1    0    0    0    0 -0.00000000000E+00 -0.00000000000E+00 -0.45593999997E+02  0.45594000000E+02  0.51100000000E-03 0. -1.
         23    2    1    2    0    0  0.17763568394E-14  0.00000000000E+00  0.71054273576E-14  0.91188000000E+02  0.91188000000E+02 0.  0.
    9900012    2    3    3    0    0 -0.70770638430E+01  0.10042158544E+02  0.34710957308E+02  0.54367077441E+02  0.39999984643E+02 0.  0.
         12    1    3    3    0    0  0.70770638430E+01 -0.10042158544E+02 -0.34710957308E+02  0.36820922559E+02  0.00000000000E+00 0. -1.
         11    1    4    4    0    0 -0.76925977406E+00 -0.47057859423E+01  0.13023125524E+02  0.13868596923E+02  0.51100000000E-03 0. -1.
        -11    1    4    4    0    0  0.10617066733E+02  0.60675360437E+01  0.81024329693E+00  0.12255349612E+02  0.51100000000E-03 0.  1.
        -12    1    4    4    0    0 -0.16924870801E+02  0.86804084426E+01  0.20877588487E+02  0.28243130907E+02  0.00000000000E+00 0.  1.
</event>
<event>
 8    1  0.1244838E-006  0.9118800E+02  0.7816164E-02  0.1184000E+00
        -11   -1    0    0    0    0  0.00000000000E+00  0.00000000000E+00  0.45593999997E+02  0.45594000000E+02  0.51100000000E-03 0.  1.
         11   -1    0    0    0    0 -0.00000000000E+00 -0.00000000000E+00 -0.45593999997E+02  0.45594000000E+02  0.51100000000E-03 0. -1.
         23    2    1    2    0    0  0.17763568394E-14 -0.44408920985E-15 -0.71054273576E-14  0.91188000000E+02  0.91188000000E+02 0.  0.
    9900012    2    3    3    0    0 -0.44863573772E+01  0.23785389557E+01  0.36469180598E+02  0.54367000780E+02  0.39999809877E+02 0.  0.
         12    1    3    3    0    0  0.44863573772E+01 -0.23785389557E+01 -0.36469180598E+02  0.36820999220E+02  0.00000000000E+00 0. -1.
         11    1    4    4    0    0  0.12310792057E+02 -0.12604040167E+01  0.16909015541E+02  0.20953735375E+02  0.51100000000E-03 0. -1.
        -11    1    4    4    0    0  0.46546154067E+01 -0.16336469005E+01  0.45055995967E+01  0.66809187068E+01  0.51100000000E-03 0.  1.
        -12    1    4    4    0    0 -0.21451764841E+02  0.52725898729E+01  0.15054565461E+02  0.26732346698E+02  0.00000000000E+00 0.  1.
</event>
<event>
 8    1  0.1244838E-006  0.9118800E+02  0.7816164E-02  0.1184000E+00
        -11   -1    0    0    0    0  0.00000000000E+00  0.00000000000E+00  0.45593999997E+02  0.45594000000E+02  0.51100000000E-03 0.  1.
         11   -1    0    0    0    0 -0.00000000000E+00 -0.00000000000E+00 -0.45593999997E+02  0.45594000000E+02  0.51100000000E-03 0. -1.
         23    2    1    2    0    0  0.00000000000E+00  0.35527136788E-14  0.00000000000E+00  0.91188000000E+02  0.91188000000E+02 0.  0.
    9900012    2    3    3    0    0  0.38734310688E+01 -0.30602869988E+02 -0.20105722817E+02  0.54367092763E+02  0.40000019572E+02 0.  0.
        -12    1    3    3    0    0 -0.38734310688E+01  0.30602869988E+02  0.20105722817E+02  0.36820907237E+02  0.00000000000E+00 0.  1.
         11    1    4    4    0    0 -0.24453208603E+01 -0.10353715939E+02 -0.32775854386E+01  0.11132007655E+02  0.51100000000E-03 0. -1.
        -11    1    4    4    0    0  0.20142437053E+01 -0.64877664511E+01  0.10401552945E+02  0.12423389037E+02  0.51100000000E-03 0.  1.
        -12    1    4    4    0    0  0.43045082237E+01 -0.13761387598E+02 -0.27229690323E+02  0.30811696071E+02  0.00000000000E+00 0.  1.
</event>
<event>
 8    1  0.1244838E-006  0.9118800E+02  0.7816164E-02  0.1184000E+00
        -11   -1    0    0    0    0  0.00000000000E+00  0.00000000000E+00  0.45593999997E+02  0.45594000000E+02  0.51100000000E-03 0. -1.
         11   -1    0    0    0    0 -0.00000000000E+00 -0.00000000000E+00 -0.45593999997E+02  0.45594000000E+02  0.51100000000E-03 0.  1.
         23    2    1    2    0    0  0.11102230246E-14  0.35527136788E-14  0.00000000000E+00  0.91188000000E+02  0.91188000000E+02 0.  0.
    9900012    2    3    3    0    0 -0.63691291667E+00  0.27802342326E+02 -0.24133046882E+02  0.54367084086E+02  0.39999999792E+02 0.  0.
         12    1    3    3    0    0  0.63691291667E+00 -0.27802342326E+02  0.24133046882E+02  0.36820915914E+02  0.00000000000E+00 0. -1.
         11    1    4    4    0    0  0.10771176975E+02  0.17974942121E+02 -0.12720084639E+02  0.24513615628E+02  0.51100000000E-03 0. -1.
        -11    1    4    4    0    0 -0.80155220642E+01  0.16927290356E+02 -0.11511597320E+02  0.21984053900E+02  0.51100000000E-03 0.  1.
         12    1    4    4    0    0 -0.33925678276E+01 -0.70998901506E+01  0.98635076757E-01  0.78694145585E+01  0.00000000000E+00 0. -1.
</event>
<event>
 8    1  0.1244838E-006  0.9118800E+02  0.7816164E-02  0.1184000E+00
        -11   -1    0    0    0    0  0.00000000000E+00  0.00000000000E+00  0.45593999997E+02  0.45594000000E+02  0.51100000000E-03 0.  1.
         11   -1    0    0    0    0 -0.00000000000E+00 -0.00000000000E+00 -0.45593999997E+02  0.45594000000E+02  0.51100000000E-03 0. -1.
         23    2    1    2    0    0 -0.10658141036E-13  0.35527136788E-14  0.35527136788E-14  0.91188000000E+02  0.91188000000E+02 0.  0.
    9900012    2    3    3    0    0  0.20290309669E+02 -0.23712426532E+02 -0.19539944875E+02  0.54367010276E+02  0.39999831527E+02 0.  0.
        -12    1    3    3    0    0 -0.20290309669E+02  0.23712426532E+02  0.19539944875E+02  0.36820989724E+02  0.00000000000E+00 0.  1.
         11    1    4    4    0    0 -0.70185031054E+01 -0.73288410939E+01 -0.16012160462E+02  0.18956808290E+02  0.51100000000E-03 0. -1.
        -11    1    4    4    0    0 -0.12135053134E+01  0.10954403529E+01  0.51678636575E+00  0.17145416651E+01  0.51100000000E-03 0.  1.
        -12    1    4    4    0    0  0.28522318088E+02 -0.17479025791E+02 -0.40445707788E+01  0.33695660321E+02  0.00000000000E+00 0.  1.
</event>
<event>
 8    1  0.1244838E-006  0.9118800E+02  0.7816164E-02  0.1184000E+00
        -11   -1    0    0    0    0  0.00000000000E+00  0.00000000000E+00  0.45593999997E+02  0.45594000000E+02  0.51100000000E-03 0.  1.
         11   -1    0    0    0    0 -0.00000000000E+00 -0.00000000000E+00 -0.45593999997E+02  0.45594000000E+02  0.51100000000E-03 0. -1.
         23    2    1    2    0    0  0.00000000000E+00 -0.44408920985E-15 -0.35527136788E-14  0.91188000000E+02  0.91188000000E+02 0.  0.
    9900012    2    3    3    0    0 -0.28417554775E+02 -0.38941189172E+01 -0.23088029527E+02  0.54367099835E+02  0.40000035693E+02 0.  0.
        -12    1    3    3    0    0  0.28417554775E+02  0.38941189172E+01  0.23088029527E+02  0.36820900165E+02  0.00000000000E+00 0.  1.
         11    1    4    4    0    0 -0.26749272739E+01 -0.69962922041E+01  0.54582485140E+01  0.92679996562E+01  0.51100000000E-03 0. -1.
        -11    1    4    4    0    0 -0.30647725099E+00  0.62941751386E+01  0.54391606206E+00  0.63250623653E+01  0.51100000000E-03 0.  1.
         12    1    4    4    0    0 -0.25436150251E+02 -0.31920018518E+01 -0.29090194103E+02  0.38774037813E+02  0.00000000000E+00 0. -1.
</event>
<event>
 8    1  0.1244838E-006  0.9118800E+02  0.7816164E-02  0.1184000E+00
        -11   -1    0    0    0    0  0.00000000000E+00  0.00000000000E+00  0.45593999997E+02  0.45594000000E+02  0.51100000000E-03 0.  1.
         11   -1    0    0    0    0 -0.00000000000E+00 -0.00000000000E+00 -0.45593999997E+02  0.45594000000E+02  0.51100000000E-03 0. -1.
         23    2    1    2    0    0  0.00000000000E+00  0.99920072216E-15  0.00000000000E+00  0.91188000000E+02  0.91188000000E+02 0.  0.
    9900012    2    3    3    0    0 -0.14718100570E+02  0.50052497130E+00  0.33747697052E+02  0.54367081136E+02  0.39999993066E+02 0.  0.
         12    1    3    3    0    0  0.14718100570E+02 -0.50052497130E+00 -0.33747697052E+02  0.36820918864E+02  0.00000000000E+00 0. -1.
         11    1    4    4    0    0 -0.11140770501E+02  0.59525486110E+00  0.26600067800E+01  0.11469382374E+02  0.51100000000E-03 0. -1.
        -11    1    4    4    0    0 -0.10905300243E+02 -0.10669404377E+02  0.23325632271E+02  0.27871973096E+02  0.51100000000E-03 0.  1.
        -12    1    4    4    0    0  0.73279701742E+01  0.10574674487E+02  0.77620580010E+01  0.15025725666E+02  0.00000000000E+00 0.  1.
</event>
<event>
 8    1  0.1244838E-006  0.9118800E+02  0.7816164E-02  0.1184000E+00
        -11   -1    0    0    0    0  0.00000000000E+00  0.00000000000E+00  0.45593999997E+02  0.45594000000E+02  0.51100000000E-03 0. -1.
         11   -1    0    0    0    0 -0.00000000000E+00 -0.00000000000E+00 -0.45593999997E+02  0.45594000000E+02  0.51100000000E-03 0.  1.
         23    2    1    2    0    0  0.00000000000E+00  0.00000000000E+00 -0.88817841970E-15  0.91188000000E+02  0.91188000000E+02 0.  0.
    9900012    2    3    3    0    0 -0.86818374048E+01 -0.35137400447E+02  0.67638850885E+01  0.54367335253E+02  0.40000572373E+02 0.  0.
        -12    1    3    3    0    0  0.86818374048E+01  0.35137400447E+02 -0.67638850885E+01  0.36820664747E+02  0.00000000000E+00 0.  1.
         11    1    4    4    0    0  0.51186074020E+01 -0.13857291646E+01  0.49536542355E+01  0.72566574674E+01  0.51100000000E-03 0. -1.
        -11    1    4    4    0    0 -0.13268376838E+02 -0.22135857381E+02  0.14740601128E+02  0.29720890428E+02  0.51100000000E-03 0.  1.
        -12    1    4    4    0    0 -0.53206796838E+00 -0.11615813901E+02 -0.12930370275E+02  0.17389787358E+02  0.00000000000E+00 0.  1.
</event>
<event>
 8    1  0.1244838E-006  0.9118800E+02  0.7816164E-02  0.1184000E+00
        -11   -1    0    0    0    0  0.00000000000E+00  0.00000000000E+00  0.45593999997E+02  0.45594000000E+02  0.51100000000E-03 0.  1.
         11   -1    0    0    0    0 -0.00000000000E+00 -0.00000000000E+00 -0.45593999997E+02  0.45594000000E+02  0.51100000000E-03 0. -1.
         23    2    1    2    0    0  0.00000000000E+00  0.00000000000E+00  0.88817841970E-15  0.91188000000E+02  0.91188000000E+02 0.  0.
    9900012    2    3    3    0    0  0.34742046907E+02  0.10322127456E+02 -0.64980178280E+01  0.54367076951E+02  0.39999983526E+02 0.  0.
        -12    1    3    3    0    0 -0.34742046907E+02 -0.10322127456E+02  0.64980178280E+01  0.36820923049E+02  0.00000000000E+00 0.  1.
         11    1    4    4    0    0  0.34341143961E+01  0.78844903051E+01  0.96812535264E-01  0.86004477782E+01  0.51100000000E-03 0. -1.
        -11    1    4    4    0    0  0.13135655681E+02  0.13509159724E+02 -0.13739501951E+02  0.23319879089E+02  0.51100000000E-03 0.  1.
         12    1    4    4    0    0  0.18172276830E+02 -0.11071522573E+02  0.71446715874E+01  0.22446750084E+02  0.00000000000E+00 0. -1.
</event>
<event>
 8    1  0.1244838E-006  0.9118800E+02  0.7816164E-02  0.1184000E+00
        -11   -1    0    0    0    0  0.00000000000E+00  0.00000000000E+00  0.45593999997E+02  0.45594000000E+02  0.51100000000E-03 0. -1.
         11   -1    0    0    0    0 -0.00000000000E+00 -0.00000000000E+00 -0.45593999997E+02  0.45594000000E+02  0.51100000000E-03 0.  1.
         23    2    1    2    0    0  0.35527136788E-14 -0.35527136788E-14 -0.35527136788E-14  0.91188000000E+02  0.91188000000E+02 0.  0.
    9900012    2    3    3    0    0  0.11730674476E+02 -0.17567839551E+02 -0.30158611431E+02  0.54367088095E+02  0.40000008929E+02 0.  0.
         12    1    3    3    0    0 -0.11730674476E+02  0.17567839551E+02  0.30158611431E+02  0.36820911905E+02  0.00000000000E+00 0. -1.
         11    1    4    4    0    0  0.17879900111E+02 -0.11380261637E+02 -0.53159438220E+01  0.21850868219E+02  0.51100000000E-03 0. -1.
        -11    1    4    4    0    0  0.59288102012E+01  0.64693447226E+00 -0.12881764404E+02  0.14195392529E+02  0.51100000000E-03 0.  1.
        -12    1    4    4    0    0 -0.12078035837E+02 -0.68345123855E+01 -0.11960903204E+02  0.18320827347E+02  0.00000000000E+00 0.  1.
</event>
<event>
 8    1  0.1244838E-006  0.9118800E+02  0.7816164E-02  0.1184000E+00
        -11   -1    0    0    0    0  0.00000000000E+00  0.00000000000E+00  0.45593999997E+02  0.45594000000E+02  0.51100000000E-03 0. -1.
         11   -1    0    0    0    0 -0.00000000000E+00 -0.00000000000E+00 -0.45593999997E+02  0.45594000000E+02  0.51100000000E-03 0.  1.
         23    2    1    2    0    0  0.00000000000E+00  0.17763568394E-14 -0.17763568394E-14  0.91188000000E+02  0.91188000000E+02 0.  0.
    9900012    2    3    3    0    0  0.32653541822E+02 -0.14137324408E+02  0.94689880189E+01  0.54367089242E+02  0.40000011545E+02 0.  0.
         12    1    3    3    0    0 -0.32653541822E+02  0.14137324408E+02 -0.94689880189E+01  0.36820910758E+02  0.00000000000E+00 0. -1.
         11    1    4    4    0    0  0.15698751397E+02 -0.11047054096E+01  0.91984779937E+01  0.18228635910E+02  0.51100000000E-03 0. -1.
        -11    1    4    4    0    0  0.20904625521E+02 -0.58405399364E+00 -0.58495144593E+01  0.21715462393E+02  0.51100000000E-03 0.  1.
        -12    1    4    4    0    0 -0.39498350962E+01 -0.12448565004E+02  0.61200244845E+01  0.14422990940E+02  0.00000000000E+00 0.  1.
</event>
<event>
 8    1  0.1244838E-006  0.9118800E+02  0.7816164E-02  0.1184000E+00
        -11   -1    0    0    0    0  0.00000000000E+00  0.00000000000E+00  0.45593999997E+02  0.45594000000E+02  0.51100000000E-03 0.  1.
         11   -1    0    0    0    0 -0.00000000000E+00 -0.00000000000E+00 -0.45593999997E+02  0.45594000000E+02  0.51100000000E-03 0. -1.
         23    2    1    2    0    0  0.00000000000E+00  0.00000000000E+00  0.00000000000E+00  0.91188000000E+02  0.91188000000E+02 0.  0.
    9900012    2    3    3    0    0 -0.23500571325E+02 -0.12180568408E+02 -0.25595640315E+02  0.54367083356E+02  0.39999998128E+02 0.  0.
        -12    1    3    3    0    0  0.23500571325E+02  0.12180568408E+02  0.25595640315E+02  0.36820916644E+02  0.00000000000E+00 0.  1.
         11    1    4    4    0    0  0.40069949564E+00 -0.42373141605E+01 -0.10626404431E+02  0.11447089707E+02  0.51100000000E-03 0. -1.
        -11    1    4    4    0    0 -0.30296072156E+02 -0.11515073847E+02 -0.14704966365E+02  0.35590517695E+02  0.51100000000E-03 0.  1.
        -12    1    4    4    0    0  0.63948013359E+01  0.35718195994E+01 -0.26426951999E+00  0.73294759537E+01  0.00000000000E+00 0.  1.
</event>
<event>
 8    1  0.1244838E-006  0.9118800E+02  0.7816164E-02  0.1184000E+00
        -11   -1    0    0    0    0  0.00000000000E+00  0.00000000000E+00  0.45593999997E+02  0.45594000000E+02  0.51100000000E-03 0.  1.
         11   -1    0    0    0    0 -0.00000000000E+00 -0.00000000000E+00 -0.45593999997E+02  0.45594000000E+02  0.51100000000E-03 0. -1.
         23    2    1    2    0    0  0.00000000000E+00  0.35527136788E-14  0.00000000000E+00  0.91188000000E+02  0.91188000000E+02 0.  0.
    9900012    2    3    3    0    0  0.88097151469E+01  0.23413959760E+02 -0.27017651889E+02  0.54367107748E+02  0.40000053733E+02 0.  0.
        -12    1    3    3    0    0 -0.88097151469E+01 -0.23413959760E+02  0.27017651889E+02  0.36820892252E+02  0.00000000000E+00 0.  1.
         11    1    4    4    0    0  0.73135915529E+01  0.63316169889E+01  0.29824477890E+01  0.10122894357E+02  0.51100000000E-03 0. -1.
        -11    1    4    4    0    0  0.13906420246E+02  0.70624410369E+01 -0.94725535460E+01  0.18248174385E+02  0.51100000000E-03 0.  1.
         12    1    4    4    0    0 -0.12410296652E+02  0.10019901735E+02 -0.20527546132E+02  0.25996039005E+02  0.00000000000E+00 0. -1.
</event>
<event>
 8    1  0.1244838E-006  0.9118800E+02  0.7816164E-02  0.1184000E+00
        -11   -1    0    0    0    0  0.00000000000E+00  0.00000000000E+00  0.45593999997E+02  0.45594000000E+02  0.51100000000E-03 0.  1.
         11   -1    0    0    0    0 -0.00000000000E+00 -0.00000000000E+00 -0.45593999997E+02  0.45594000000E+02  0.51100000000E-03 0. -1.
         23    2    1    2    0    0  0.00000000000E+00 -0.88817841970E-15  0.00000000000E+00  0.91188000000E+02  0.91188000000E+02 0.  0.
    9900012    2    3    3    0    0  0.17958042945E+02 -0.51329163809E+01  0.31732294592E+02  0.54367127426E+02  0.40000098593E+02 0.  0.
         12    1    3    3    0    0 -0.17958042945E+02  0.51329163809E+01 -0.31732294592E+02  0.36820872574E+02  0.00000000000E+00 0. -1.
         11    1    4    4    0    0 -0.52230871147E+01  0.90328608543E+01  0.31598195175E+01  0.10902186655E+02  0.51100000000E-03 0. -1.
        -11    1    4    4    0    0  0.25779568608E+02 -0.12975152010E+02  0.28565075873E+02  0.40606702491E+02  0.51100000000E-03 0.  1.
        -12    1    4    4    0    0 -0.25984385485E+01 -0.11906252256E+01  0.73992023133E-02  0.28582382802E+01  0.00000000000E+00 0.  1.
</event>
<event>
 8    1  0.1244838E-006  0.9118800E+02  0.7816164E-02  0.1184000E+00
        -11   -1    0    0    0    0  0.00000000000E+00  0.00000000000E+00  0.45593999997E+02  0.45594000000E+02  0.51100000000E-03 0.  1.
         11   -1    0    0    0    0 -0.00000000000E+00 -0.00000000000E+00 -0.45593999997E+02  0.45594000000E+02  0.51100000000E-03 0. -1.
         23    2    1    2    0    0  0.35527136788E-14  0.00000000000E+00  0.35527136788E-14  0.91188000000E+02  0.91188000000E+02 0.  0.
    9900012    2    3    3    0    0  0.17370652954E+02  0.59442530801E+01  0.31917170268E+02  0.54367089003E+02  0.40000011000E+02 0.  0.
         12    1    3    3    0    0 -0.17370652954E+02 -0.59442530801E+01 -0.31917170268E+02  0.36820910997E+02  0.00000000000E+00 0. -1.
         11    1    4    4    0    0  0.35404672020E+01  0.54360607378E+01  0.69736924257E+01  0.95246023887E+01  0.51100000000E-03 0. -1.
        -11    1    4    4    0    0 -0.53353723989E+01  0.12349076018E+02  0.38792384184E+01  0.14000513137E+02  0.51100000000E-03 0.  1.
         12    1    4    4    0    0  0.19165558151E+02 -0.11840883676E+02  0.21064239424E+02  0.30841973477E+02  0.00000000000E+00 0. -1.
</event>
<event>
 8    1  0.1244838E-006  0.9118800E+02  0.7816164E-02  0.1184000E+00
        -11   -1    0    0    0    0  0.00000000000E+00  0.00000000000E+00  0.45593999997E+02  0.45594000000E+02  0.51100000000E-03 0.  1.
         11   -1    0    0    0    0 -0.00000000000E+00 -0.00000000000E+00 -0.45593999997E+02  0.45594000000E+02  0.51100000000E-03 0. -1.
         23    2    1    2    0    0 -0.17763568394E-14  0.00000000000E+00  0.17763568394E-14  0.91188000000E+02  0.91188000000E+02 0.  0.
    9900012    2    3    3    0    0  0.13046522478E+02 -0.33298747230E+02  0.87613103545E+01  0.54367097309E+02  0.40000029936E+02 0.  0.
         12    1    3    3    0    0 -0.13046522478E+02  0.33298747230E+02 -0.87613103545E+01  0.36820902691E+02  0.00000000000E+00 0. -1.
         11    1    4    4    0    0  0.52836605303E+01  0.43480229767E+01  0.17523366610E+01  0.70635017123E+01  0.51100000000E-03 0. -1.
        -11    1    4    4    0    0 -0.77920063674E+01 -0.23635324264E+02 -0.95502466063E+00  0.24904939042E+02  0.51100000000E-03 0.  1.
        -12    1    4    4    0    0  0.15554868315E+02 -0.14011445942E+02  0.79639983542E+01  0.22398656555E+02  0.00000000000E+00 0.  1.
</event>
<event>
 8    1  0.1244838E-006  0.9118800E+02  0.7816164E-02  0.1184000E+00
        -11   -1    0    0    0    0  0.00000000000E+00  0.00000000000E+00  0.45593999997E+02  0.45594000000E+02  0.51100000000E-03 0.  1.
         11   -1    0    0    0    0 -0.00000000000E+00 -0.00000000000E+00 -0.45593999997E+02  0.45594000000E+02  0.51100000000E-03 0. -1.
         23    2    1    2    0    0  0.35527136788E-14  0.88817841970E-15  0.00000000000E+00  0.91188000000E+02  0.91188000000E+02 0.  0.
    9900012    2    3    3    0    0  0.27540350864E+02  0.67177801770E+01 -0.23498484349E+02  0.54367105620E+02  0.40000048882E+02 0.  0.
        -12    1    3    3    0    0 -0.27540350864E+02 -0.67177801770E+01  0.23498484349E+02  0.36820894380E+02  0.00000000000E+00 0.  1.
         11    1    4    4    0    0  0.29790300527E+02  0.35859330961E+01 -0.26642738852E+02  0.40126754859E+02  0.51100000000E-03 0. -1.
        -11    1    4    4    0    0  0.11728658437E+01  0.46812966611E+01 -0.39342986489E+01  0.62264643929E+01  0.51100000000E-03 0.  1.
         12    1    4    4    0    0 -0.34228155069E+01 -0.15494495801E+01  0.70785531521E+01  0.80138863682E+01  0.00000000000E+00 0. -1.
</event>
<event>
 8    1  0.1244838E-006  0.9118800E+02  0.7816164E-02  0.1184000E+00
        -11   -1    0    0    0    0  0.00000000000E+00  0.00000000000E+00  0.45593999997E+02  0.45594000000E+02  0.51100000000E-03 0.  1.
         11   -1    0    0    0    0 -0.00000000000E+00 -0.00000000000E+00 -0.45593999997E+02  0.45594000000E+02  0.51100000000E-03 0. -1.
         23    2    1    2    0    0  0.00000000000E+00 -0.88817841970E-15  0.00000000000E+00  0.91188000000E+02  0.91188000000E+02 0.  0.
    9900012    2    3    3    0    0 -0.27989159755E+02  0.47505413725E+01 -0.23448224899E+02  0.54367082602E+02  0.39999996408E+02 0.  0.
        -12    1    3    3    0    0  0.27989159755E+02 -0.47505413725E+01  0.23448224899E+02  0.36820917398E+02  0.00000000000E+00 0.  1.
         11    1    4    4    0    0  0.58564846307E+01  0.95788168226E+01 -0.80539046274E+01  0.13817290760E+02  0.51100000000E-03 0. -1.
        -11    1    4    4    0    0 -0.21008146346E+01 -0.53088032717E+01 -0.31608649385E+01  0.65259391452E+01  0.51100000000E-03 0.  1.
         12    1    4    4    0    0 -0.31744829751E+02  0.48052782150E+00 -0.12233455333E+02  0.34023852696E+02  0.00000000000E+00 0. -1.
</event>
<event>
 8    1  0.1244838E-006  0.9118800E+02  0.7816164E-02  0.1184000E+00
        -11   -1    0    0    0    0  0.00000000000E+00  0.00000000000E+00  0.45593999997E+02  0.45594000000E+02  0.51100000000E-03 0.  1.
         11   -1    0    0    0    0 -0.00000000000E+00 -0.00000000000E+00 -0.45593999997E+02  0.45594000000E+02  0.51100000000E-03 0. -1.
         23    2    1    2    0    0  0.00000000000E+00  0.00000000000E+00  0.00000000000E+00  0.91188000000E+02  0.91188000000E+02 0.  0.
    9900012    2    3    3    0    0  0.11698599657E+02 -0.33753269067E+02 -0.89240994142E+01  0.54367082616E+02  0.39999996439E+02 0.  0.
        -12    1    3    3    0    0 -0.11698599657E+02  0.33753269067E+02  0.89240994142E+01  0.36820917384E+02  0.00000000000E+00 0.  1.
         11    1    4    4    0    0 -0.10493144511E+01  0.43668762420E+00 -0.20948751398E+01  0.23833293962E+01  0.51100000000E-03 0. -1.
        -11    1    4    4    0    0  0.42013221013E+01  0.75911756536E+01 -0.29384841716E+01  0.91603354028E+01  0.51100000000E-03 0.  1.
        -12    1    4    4    0    0  0.85465920069E+01 -0.41781132345E+02 -0.38907401028E+01  0.42823417817E+02  0.00000000000E+00 0.  1.
</event>
<event>
 8    1  0.1244838E-006  0.9118800E+02  0.7816164E-02  0.1184000E+00
        -11   -1    0    0    0    0  0.00000000000E+00  0.00000000000E+00  0.45593999997E+02  0.45594000000E+02  0.51100000000E-03 0. -1.
         11   -1    0    0    0    0 -0.00000000000E+00 -0.00000000000E+00 -0.45593999997E+02  0.45594000000E+02  0.51100000000E-03 0.  1.
         23    2    1    2    0    0  0.00000000000E+00  0.00000000000E+00  0.35527136788E-14  0.91188000000E+02  0.91188000000E+02 0.  0.
    9900012    2    3    3    0    0 -0.26355066692E+02  0.46078749334E+01 -0.25297384509E+02  0.54367085905E+02  0.40000003939E+02 0.  0.
         12    1    3    3    0    0  0.26355066692E+02 -0.46078749334E+01  0.25297384509E+02  0.36820914095E+02  0.00000000000E+00 0. -1.
         11    1    4    4    0    0 -0.13896549867E+02  0.33905814840E+01 -0.27451782850E+00  0.14306834077E+02  0.51100000000E-03 0. -1.
        -11    1    4    4    0    0  0.81291679746E+01  0.60142997582E+01 -0.72508197889E+01  0.12443052737E+02  0.51100000000E-03 0.  1.
        -12    1    4    4    0    0 -0.20587684800E+02 -0.47970063088E+01 -0.17772046892E+02  0.27617199092E+02  0.00000000000E+00 0.  1.
</event>
<event>
 8    1  0.1244838E-006  0.9118800E+02  0.7816164E-02  0.1184000E+00
        -11   -1    0    0    0    0  0.00000000000E+00  0.00000000000E+00  0.45593999997E+02  0.45594000000E+02  0.51100000000E-03 0.  1.
         11   -1    0    0    0    0 -0.00000000000E+00 -0.00000000000E+00 -0.45593999997E+02  0.45594000000E+02  0.51100000000E-03 0. -1.
         23    2    1    2    0    0 -0.88817841970E-15  0.00000000000E+00  0.00000000000E+00  0.91188000000E+02  0.91188000000E+02 0.  0.
    9900012    2    3    3    0    0  0.49320238680E+01 -0.36409461716E+02  0.24097881635E+01  0.54367070614E+02  0.39999969078E+02 0.  0.
         12    1    3    3    0    0 -0.49320238680E+01  0.36409461716E+02 -0.24097881635E+01  0.36820929386E+02  0.00000000000E+00 0. -1.
         11    1    4    4    0    0  0.86221734380E+01 -0.28812296172E+01  0.12601508656E+01  0.91777633096E+01  0.51100000000E-03 0. -1.
        -11    1    4    4    0    0  0.31181471398E+01 -0.93246465771E+01  0.13878147933E+02  0.17008082363E+02  0.51100000000E-03 0.  1.
         12    1    4    4    0    0 -0.68082967098E+01 -0.24203585521E+02 -0.12728510635E+02  0.28181224941E+02  0.00000000000E+00 0. -1.
</event>
<event>
 8    1  0.1244838E-006  0.9118800E+02  0.7816164E-02  0.1184000E+00
        -11   -1    0    0    0    0  0.00000000000E+00  0.00000000000E+00  0.45593999997E+02  0.45594000000E+02  0.51100000000E-03 0.  1.
         11   -1    0    0    0    0 -0.00000000000E+00 -0.00000000000E+00 -0.45593999997E+02  0.45594000000E+02  0.51100000000E-03 0. -1.
         23    2    1    2    0    0  0.88817841970E-15  0.00000000000E+00 -0.35527136788E-14  0.91188000000E+02  0.91188000000E+02 0.  0.
    9900012    2    3    3    0    0 -0.21042301510E+01 -0.27064053832E+02  0.24877310513E+02  0.54367199184E+02  0.40000262180E+02 0.  0.
         12    1    3    3    0    0  0.21042301510E+01  0.27064053832E+02 -0.24877310513E+02  0.36820800816E+02  0.00000000000E+00 0. -1.
         11    1    4    4    0    0 -0.10137447287E+01 -0.11612812112E+02 -0.93724961969E+01  0.14957565602E+02  0.51100000000E-03 0. -1.
        -11    1    4    4    0    0 -0.45345979562E+01 -0.10969026785E+02  0.13845268427E+02  0.18236600158E+02  0.51100000000E-03 0.  1.
         12    1    4    4    0    0  0.34441125340E+01 -0.44822149354E+01  0.20404538282E+02  0.21173033424E+02  0.00000000000E+00 0. -1.
</event>
<event>
 8    1  0.1244838E-006  0.9118800E+02  0.7816164E-02  0.1184000E+00
        -11   -1    0    0    0    0  0.00000000000E+00  0.00000000000E+00  0.45593999997E+02  0.45594000000E+02  0.51100000000E-03 0.  1.
         11   -1    0    0    0    0 -0.00000000000E+00 -0.00000000000E+00 -0.45593999997E+02  0.45594000000E+02  0.51100000000E-03 0. -1.
         23    2    1    2    0    0 -0.17763568394E-14  0.00000000000E+00  0.00000000000E+00  0.91188000000E+02  0.91188000000E+02 0.  0.
    9900012    2    3    3    0    0  0.78534408453E+01 -0.15356616633E+02  0.32531146866E+02  0.54367112939E+02  0.40000065567E+02 0.  0.
        -12    1    3    3    0    0 -0.78534408453E+01  0.15356616633E+02 -0.32531146866E+02  0.36820887061E+02  0.00000000000E+00 0.  1.
         11    1    4    4    0    0 -0.97491427987E+01 -0.62027737474E+01  0.26290018856E+01  0.11850394029E+02  0.51100000000E-03 0. -1.
        -11    1    4    4    0    0 -0.17971750564E+01 -0.10493570978E+02  0.87158404006E+01  0.13759024101E+02  0.51100000000E-03 0.  1.
        -12    1    4    4    0    0  0.19399758701E+02  0.13397280918E+01  0.21186304580E+02  0.28757694809E+02  0.00000000000E+00 0.  1.
</event>
<event>
 8    1  0.1244838E-006  0.9118800E+02  0.7816164E-02  0.1184000E+00
        -11   -1    0    0    0    0  0.00000000000E+00  0.00000000000E+00  0.45593999997E+02  0.45594000000E+02  0.51100000000E-03 0.  1.
         11   -1    0    0    0    0 -0.00000000000E+00 -0.00000000000E+00 -0.45593999997E+02  0.45594000000E+02  0.51100000000E-03 0. -1.
         23    2    1    2    0    0  0.00000000000E+00 -0.17763568394E-14  0.00000000000E+00  0.91188000000E+02  0.91188000000E+02 0.  0.
    9900012    2    3    3    0    0 -0.35616120881E+02 -0.72607565521E+01 -0.58777851569E+01  0.54367149783E+02  0.40000149560E+02 0.  0.
         12    1    3    3    0    0  0.35616120881E+02  0.72607565521E+01  0.58777851569E+01  0.36820850217E+02  0.00000000000E+00 0. -1.
         11    1    4    4    0    0 -0.15402376211E+02  0.14923422385E+02  0.11469604916E+01  0.21476900318E+02  0.51100000000E-03 0. -1.
        -11    1    4    4    0    0 -0.15387417357E+02 -0.84092870564E+01 -0.38570276664E+01  0.17954536597E+02  0.51100000000E-03 0.  1.
         12    1    4    4    0    0 -0.48263273123E+01 -0.13774891881E+02 -0.31677179821E+01  0.14935712868E+02  0.00000000000E+00 0. -1.
</event>
<event>
 8    1  0.1244838E-006  0.9118800E+02  0.7816164E-02  0.1184000E+00
        -11   -1    0    0    0    0  0.00000000000E+00  0.00000000000E+00  0.45593999997E+02  0.45594000000E+02  0.51100000000E-03 0.  1.
         11   -1    0    0    0    0 -0.00000000000E+00 -0.00000000000E+00 -0.45593999997E+02  0.45594000000E+02  0.51100000000E-03 0. -1.
         23    2    1    2    0    0 -0.17763568394E-14  0.66613381478E-15  0.00000000000E+00  0.91188000000E+02  0.91188000000E+02 0.  0.
    9900012    2    3    3    0    0 -0.13608121959E+02  0.76370342473E+00 -0.34205489234E+02  0.54367085836E+02  0.40000003780E+02 0.  0.
        -12    1    3    3    0    0  0.13608121959E+02 -0.76370342473E+00  0.34205489234E+02  0.36820914164E+02  0.00000000000E+00 0.  1.
         11    1    4    4    0    0  0.73977840692E+00  0.54613266015E+00  0.43400636702E+01  0.44364046137E+01  0.51100000000E-03 0. -1.
        -11    1    4    4    0    0  0.46271208850E+01 -0.93766485785E+01 -0.11894857356E+02  0.15837279376E+02  0.51100000000E-03 0.  1.
         12    1    4    4    0    0 -0.18975021251E+02  0.95942193431E+01 -0.26650695548E+02  0.34093401846E+02  0.00000000000E+00 0. -1.
</event>
<event>
 8    1  0.1244838E-006  0.9118800E+02  0.7816164E-02  0.1184000E+00
        -11   -1    0    0    0    0  0.00000000000E+00  0.00000000000E+00  0.45593999997E+02  0.45594000000E+02  0.51100000000E-03 0. -1.
         11   -1    0    0    0    0 -0.00000000000E+00 -0.00000000000E+00 -0.45593999997E+02  0.45594000000E+02  0.51100000000E-03 0.  1.
         23    2    1    2    0    0  0.00000000000E+00  0.00000000000E+00  0.00000000000E+00  0.91188000000E+02  0.91188000000E+02 0.  0.
    9900012    2    3    3    0    0  0.31653669014E+02  0.25397144678E+01  0.18637958835E+02  0.54367103472E+02  0.40000043985E+02 0.  0.
        -12    1    3    3    0    0 -0.31653669014E+02 -0.25397144678E+01 -0.18637958835E+02  0.36820896528E+02  0.00000000000E+00 0.  1.
         11    1    4    4    0    0  0.87865527109E+01  0.17472117272E+02  0.12989914399E+02  0.23477995375E+02  0.51100000000E-03 0. -1.
        -11    1    4    4    0    0 -0.11215227868E+01 -0.15862439604E+01 -0.15778274664E+01  0.25027031462E+01  0.51100000000E-03 0.  1.
         12    1    4    4    0    0  0.23988639090E+02 -0.13346158843E+02  0.72258719018E+01  0.28386404950E+02  0.00000000000E+00 0. -1.
</event>
<event>
 8    1  0.1244838E-006  0.9118800E+02  0.7816164E-02  0.1184000E+00
        -11   -1    0    0    0    0  0.00000000000E+00  0.00000000000E+00  0.45593999997E+02  0.45594000000E+02  0.51100000000E-03 0. -1.
         11   -1    0    0    0    0 -0.00000000000E+00 -0.00000000000E+00 -0.45593999997E+02  0.45594000000E+02  0.51100000000E-03 0.  1.
         23    2    1    2    0    0  0.17763568394E-14  0.00000000000E+00 -0.17763568394E-14  0.91188000000E+02  0.91188000000E+02 0.  0.
    9900012    2    3    3    0    0  0.14447463770E+02  0.32982054200E+02 -0.76964644817E+01  0.54367072877E+02  0.39999974238E+02 0.  0.
         12    1    3    3    0    0 -0.14447463770E+02 -0.32982054200E+02  0.76964644817E+01  0.36820927123E+02  0.00000000000E+00 0. -1.
         11    1    4    4    0    0 -0.15406967594E+00  0.39389915943E+01 -0.27645037523E+01  0.48147558093E+01  0.51100000000E-03 0.  1.
        -11    1    4    4    0    0  0.10808233086E+02  0.62455934948E+01 -0.18824425137E+02  0.22587260183E+02  0.51100000000E-03 0. -1.
         12    1    4    4    0    0  0.37933003602E+01  0.22797469111E+02  0.13892464408E+02  0.26965056885E+02  0.00000000000E+00 0. -1.
</event>
<event>
 8    1  0.1244838E-006  0.9118800E+02  0.7816164E-02  0.1184000E+00
        -11   -1    0    0    0    0  0.00000000000E+00  0.00000000000E+00  0.45593999997E+02  0.45594000000E+02  0.51100000000E-03 0.  1.
         11   -1    0    0    0    0 -0.00000000000E+00 -0.00000000000E+00 -0.45593999997E+02  0.45594000000E+02  0.51100000000E-03 0. -1.
         23    2    1    2    0    0 -0.62450045135E-15  0.00000000000E+00 -0.35527136788E-14  0.91188000000E+02  0.91188000000E+02 0.  0.
    9900012    2    3    3    0    0  0.10247356441E+00 -0.23347906157E+02  0.28471705019E+02  0.54367174243E+02  0.40000205320E+02 0.  0.
         12    1    3    3    0    0 -0.10247356441E+00  0.23347906157E+02 -0.28471705019E+02  0.36820825757E+02  0.00000000000E+00 0. -1.
         11    1    4    4    0    0  0.54044104790E+01 -0.42583890303E+01  0.20533346281E+02  0.21655480588E+02  0.51100000000E-03 0. -1.
        -11    1    4    4    0    0  0.99660348378E+01 -0.78535165133E+01  0.19905210259E+01  0.12843743466E+02  0.51100000000E-03 0.  1.
        -12    1    4    4    0    0 -0.15267971752E+02 -0.11236000613E+02  0.59478377124E+01  0.19867950188E+02  0.00000000000E+00 0.  1.
</event>
<event>
 8    1  0.1244838E-006  0.9118800E+02  0.7816164E-02  0.1184000E+00
        -11   -1    0    0    0    0  0.00000000000E+00  0.00000000000E+00  0.45593999997E+02  0.45594000000E+02  0.51100000000E-03 0.  1.
         11   -1    0    0    0    0 -0.00000000000E+00 -0.00000000000E+00 -0.45593999997E+02  0.45594000000E+02  0.51100000000E-03 0. -1.
         23    2    1    2    0    0 -0.66613381478E-15  0.17763568394E-14  0.00000000000E+00  0.91188000000E+02  0.91188000000E+02 0.  0.
    9900012    2    3    3    0    0  0.94538240393E+00 -0.11850034512E+02 -0.34849143024E+02  0.54367084268E+02  0.40000000207E+02 0.  0.
        -12    1    3    3    0    0 -0.94538240393E+00  0.11850034512E+02  0.34849143024E+02  0.36820915732E+02  0.00000000000E+00 0.  1.
         11    1    4    4    0    0 -0.51680740622E+01  0.76211438680E+01 -0.27793818280E+02  0.29279466494E+02  0.51100000000E-03 0. -1.
        -11    1    4    4    0    0 -0.36303511654E+01 -0.67029166749E+01 -0.44193061332E+01  0.88112886966E+01  0.51100000000E-03 0.  1.
         12    1    4    4    0    0  0.97438076316E+01 -0.12768261705E+02 -0.26360186111E+01  0.16276329077E+02  0.00000000000E+00 0. -1.
</event>
<event>
 8    1  0.1244838E-006  0.9118800E+02  0.7816164E-02  0.1184000E+00
        -11   -1    0    0    0    0  0.00000000000E+00  0.00000000000E+00  0.45593999997E+02  0.45594000000E+02  0.51100000000E-03 0. -1.
         11   -1    0    0    0    0 -0.00000000000E+00 -0.00000000000E+00 -0.45593999997E+02  0.45594000000E+02  0.51100000000E-03 0.  1.
         23    2    1    2    0    0  0.00000000000E+00  0.00000000000E+00  0.17763568394E-14  0.91188000000E+02  0.91188000000E+02 0.  0.
    9900012    2    3    3    0    0  0.32820505069E+02  0.11055391105E+02 -0.12504850726E+02  0.54367102168E+02  0.40000041013E+02 0.  0.
        -12    1    3    3    0    0 -0.32820505069E+02 -0.11055391105E+02  0.12504850726E+02  0.36820897832E+02  0.00000000000E+00 0.  1.
         11    1    4    4    0    0  0.10438088525E+02 -0.13330680037E+02 -0.62222519273E+01  0.18038213371E+02  0.51100000000E-03 0.  1.
        -11    1    4    4    0    0  0.14618588197E+02  0.14493470669E+02 -0.10443336197E+02  0.23083047548E+02  0.51100000000E-03 0. -1.
        -12    1    4    4    0    0  0.77638283467E+01  0.98926004729E+01  0.41607373983E+01  0.13245841250E+02  0.00000000000E+00 0.  1.
</event>
<event>
 8    1  0.1244838E-006  0.9118800E+02  0.7816164E-02  0.1184000E+00
        -11   -1    0    0    0    0  0.00000000000E+00  0.00000000000E+00  0.45593999997E+02  0.45594000000E+02  0.51100000000E-03 0. -1.
         11   -1    0    0    0    0 -0.00000000000E+00 -0.00000000000E+00 -0.45593999997E+02  0.45594000000E+02  0.51100000000E-03 0.  1.
         23    2    1    2    0    0  0.00000000000E+00 -0.17763568394E-14  0.00000000000E+00  0.91188000000E+02  0.91188000000E+02 0.  0.
    9900012    2    3    3    0    0  0.33839913533E+02 -0.10855611596E+02  0.96330209141E+01  0.54367093670E+02  0.40000021640E+02 0.  0.
         12    1    3    3    0    0 -0.33839913533E+02  0.10855611596E+02 -0.96330209141E+01  0.36820906330E+02  0.00000000000E+00 0. -1.
         11    1    4    4    0    0 -0.14780979350E+01 -0.37292729700E+01  0.49283216550E+00  0.40416746770E+01  0.51100000000E-03 0. -1.
        -11    1    4    4    0    0  0.26808890521E+02  0.87362177461E+01 -0.33806049386E+01  0.28398355612E+02  0.51100000000E-03 0.  1.
        -12    1    4    4    0    0  0.85091209468E+01 -0.15862556372E+02  0.12520793687E+02  0.21927063381E+02  0.00000000000E+00 0.  1.
</event>
<event>
 8    1  0.1244838E-006  0.9118800E+02  0.7816164E-02  0.1184000E+00
        -11   -1    0    0    0    0  0.00000000000E+00  0.00000000000E+00  0.45593999997E+02  0.45594000000E+02  0.51100000000E-03 0.  1.
         11   -1    0    0    0    0 -0.00000000000E+00 -0.00000000000E+00 -0.45593999997E+02  0.45594000000E+02  0.51100000000E-03 0. -1.
         23    2    1    2    0    0  0.00000000000E+00  0.00000000000E+00  0.00000000000E+00  0.91188000000E+02  0.91188000000E+02 0.  0.
    9900012    2    3    3    0    0  0.31371306508E+01  0.49453568414E+01 -0.36352199631E+02  0.54367074413E+02  0.39999977740E+02 0.  0.
        -12    1    3    3    0    0 -0.31371306508E+01 -0.49453568414E+01  0.36352199631E+02  0.36820925587E+02  0.00000000000E+00 0.  1.
         11    1    4    4    0    0  0.37330545619E+01 -0.72037051729E+01 -0.26068378618E+02  0.27301820977E+02  0.51100000000E-03 0. -1.
        -11    1    4    4    0    0 -0.45711343712E+01 -0.33074624623E+01  0.29188756180E+01  0.63525122994E+01  0.51100000000E-03 0.  1.
         12    1    4    4    0    0  0.39752104601E+01  0.15456524477E+02 -0.13202696631E+02  0.20712741137E+02  0.00000000000E+00 0. -1.
</event>
<event>
 8    1  0.1244838E-006  0.9118800E+02  0.7816164E-02  0.1184000E+00
        -11   -1    0    0    0    0  0.00000000000E+00  0.00000000000E+00  0.45593999997E+02  0.45594000000E+02  0.51100000000E-03 0. -1.
         11   -1    0    0    0    0 -0.00000000000E+00 -0.00000000000E+00 -0.45593999997E+02  0.45594000000E+02  0.51100000000E-03 0.  1.
         23    2    1    2    0    0 -0.17763568394E-14  0.00000000000E+00  0.11102230246E-15  0.91188000000E+02  0.91188000000E+02 0.  0.
    9900012    2    3    3    0    0 -0.49058507284E+01  0.36482698646E+02  0.85159942072E+00  0.54367083479E+02  0.39999998408E+02 0.  0.
         12    1    3    3    0    0  0.49058507284E+01 -0.36482698646E+02 -0.85159942072E+00  0.36820916521E+02  0.00000000000E+00 0. -1.
         11    1    4    4    0    0 -0.12583875554E+02  0.59707062625E+01 -0.96458027062E+01  0.16942395561E+02  0.51100000000E-03 0. -1.
        -11    1    4    4    0    0  0.72147082561E+01  0.21129220611E+01  0.20487041985E+01  0.77918960472E+01  0.51100000000E-03 0.  1.
        -12    1    4    4    0    0  0.46331656947E+00  0.28399070322E+02  0.84486979285E+01  0.29632791871E+02  0.00000000000E+00 0.  1.
</event>
<event>
 8    1  0.1244838E-006  0.9118800E+02  0.7816164E-02  0.1184000E+00
        -11   -1    0    0    0    0  0.00000000000E+00  0.00000000000E+00  0.45593999997E+02  0.45594000000E+02  0.51100000000E-03 0. -1.
         11   -1    0    0    0    0 -0.00000000000E+00 -0.00000000000E+00 -0.45593999997E+02  0.45594000000E+02  0.51100000000E-03 0.  1.
         23    2    1    2    0    0  0.00000000000E+00  0.00000000000E+00  0.00000000000E+00  0.91188000000E+02  0.91188000000E+02 0.  0.
    9900012    2    3    3    0    0  0.29291606855E+02 -0.18591873920E+02  0.12333742461E+02  0.54367119903E+02  0.40000081443E+02 0.  0.
         12    1    3    3    0    0 -0.29291606855E+02  0.18591873920E+02 -0.12333742461E+02  0.36820880097E+02  0.00000000000E+00 0. -1.
         11    1    4    4    0    0 -0.30566265546E+01 -0.36229427661E+01  0.71629313714E-01  0.47406551446E+01  0.51100000000E-03 0. -1.
        -11    1    4    4    0    0  0.11602316333E+02 -0.22145960529E+02  0.11857334453E+02  0.27670448002E+02  0.51100000000E-03 0.  1.
        -12    1    4    4    0    0  0.20745917077E+02  0.71770293749E+01  0.40477869436E+00  0.21956016756E+02  0.00000000000E+00 0.  1.
</event>
<event>
 8    1  0.1244838E-006  0.9118800E+02  0.7816164E-02  0.1184000E+00
        -11   -1    0    0    0    0  0.00000000000E+00  0.00000000000E+00  0.45593999997E+02  0.45594000000E+02  0.51100000000E-03 0.  1.
         11   -1    0    0    0    0 -0.00000000000E+00 -0.00000000000E+00 -0.45593999997E+02  0.45594000000E+02  0.51100000000E-03 0. -1.
         23    2    1    2    0    0 -0.35527136788E-14 -0.17763568394E-14  0.71054273576E-14  0.91188000000E+02  0.91188000000E+02 0.  0.
    9900012    2    3    3    0    0  0.23559674363E+02 -0.93227925100E+01  0.26717200682E+02  0.54367061276E+02  0.39999947790E+02 0.  0.
         12    1    3    3    0    0 -0.23559674363E+02  0.93227925100E+01 -0.26717200682E+02  0.36820938724E+02  0.00000000000E+00 0. -1.
         11    1    4    4    0    0  0.10981285671E+01  0.54036390215E+01  0.16626178555E+01  0.57592967817E+01  0.51100000000E-03 0. -1.
        -11    1    4    4    0    0  0.12262686056E+01 -0.67474412594E+01  0.24999271990E+02  0.25922872112E+02  0.51100000000E-03 0.  1.
         12    1    4    4    0    0  0.21235277190E+02 -0.79789902721E+01  0.55310836306E-01  0.22684892382E+02  0.00000000000E+00 0. -1.
</event>
<event>
 8    1  0.1244838E-006  0.9118800E+02  0.7816164E-02  0.1184000E+00
        -11   -1    0    0    0    0  0.00000000000E+00  0.00000000000E+00  0.45593999997E+02  0.45594000000E+02  0.51100000000E-03 0.  1.
         11   -1    0    0    0    0 -0.00000000000E+00 -0.00000000000E+00 -0.45593999997E+02  0.45594000000E+02  0.51100000000E-03 0. -1.
         23    2    1    2    0    0  0.35527136788E-14  0.00000000000E+00  0.17763568394E-14  0.91188000000E+02  0.91188000000E+02 0.  0.
    9900012    2    3    3    0    0  0.13873611398E+02 -0.32733004943E+02  0.95840057464E+01  0.54367083771E+02  0.39999999072E+02 0.  0.
        -12    1    3    3    0    0 -0.13873611398E+02  0.32733004943E+02 -0.95840057464E+01  0.36820916229E+02  0.00000000000E+00 0.  1.
         11    1    4    4    0    0  0.17842793647E+02 -0.24863353510E+02 -0.25724442290E+01  0.30711058309E+02  0.51100000000E-03 0. -1.
        -11    1    4    4    0    0  0.71005390597E+01 -0.26807824991E+01  0.22371373525E+01  0.79125870321E+01  0.51100000000E-03 0.  1.
        -12    1    4    4    0    0 -0.11069721309E+02 -0.51888689344E+01  0.99193126229E+01  0.15743438430E+02  0.00000000000E+00 0.  1.
</event>
<event>
 8    1  0.1244838E-006  0.9118800E+02  0.7816164E-02  0.1184000E+00
        -11   -1    0    0    0    0  0.00000000000E+00  0.00000000000E+00  0.45593999997E+02  0.45594000000E+02  0.51100000000E-03 0.  1.
         11   -1    0    0    0    0 -0.00000000000E+00 -0.00000000000E+00 -0.45593999997E+02  0.45594000000E+02  0.51100000000E-03 0. -1.
         23    2    1    2    0    0  0.00000000000E+00  0.00000000000E+00 -0.17763568394E-14  0.91188000000E+02  0.91188000000E+02 0.  0.
    9900012    2    3    3    0    0  0.32606344636E+02  0.73785834420E+01  0.15432566253E+02  0.54367064307E+02  0.39999954702E+02 0.  0.
         12    1    3    3    0    0 -0.32606344636E+02 -0.73785834420E+01 -0.15432566253E+02  0.36820935693E+02  0.00000000000E+00 0. -1.
         11    1    4    4    0    0  0.26980453610E+02  0.11012479455E+02  0.19440024524E+02  0.35030474369E+02  0.51100000000E-03 0. -1.
        -11    1    4    4    0    0  0.48084384337E+01 -0.10184729336E+02  0.61176726484E+00  0.11279363957E+02  0.51100000000E-03 0.  1.
         12    1    4    4    0    0  0.81745259201E+00  0.65508333234E+01 -0.46192255357E+01  0.80572259818E+01  0.00000000000E+00 0. -1.
</event>
<event>
 8    1  0.1244838E-006  0.9118800E+02  0.7816164E-02  0.1184000E+00
        -11   -1    0    0    0    0  0.00000000000E+00  0.00000000000E+00  0.45593999997E+02  0.45594000000E+02  0.51100000000E-03 0.  1.
         11   -1    0    0    0    0 -0.00000000000E+00 -0.00000000000E+00 -0.45593999997E+02  0.45594000000E+02  0.51100000000E-03 0. -1.
         23    2    1    2    0    0  0.71054273576E-14  0.31086244690E-14 -0.35527136788E-14  0.91188000000E+02  0.91188000000E+02 0.  0.
    9900012    2    3    3    0    0 -0.26601342520E+02 -0.28765144402E+01 -0.25295702382E+02  0.54367104870E+02  0.40000047172E+02 0.  0.
        -12    1    3    3    0    0  0.26601342520E+02  0.28765144402E+01  0.25295702382E+02  0.36820895130E+02  0.00000000000E+00 0.  1.
         11    1    4    4    0    0 -0.20480700819E+02 -0.41642372097E+01 -0.56825381977E+01  0.21658513758E+02  0.51100000000E-03 0.  1.
        -11    1    4    4    0    0 -0.47676333071E+01  0.12211286659E+02 -0.41935420561E+01  0.13763416889E+02  0.51100000000E-03 0. -1.
        -12    1    4    4    0    0 -0.13530083936E+01 -0.10923563890E+02 -0.15419622128E+02  0.18945174223E+02  0.00000000000E+00 0.  1.
</event>
<event>
 8    1  0.1244838E-006  0.9118800E+02  0.7816164E-02  0.1184000E+00
        -11   -1    0    0    0    0  0.00000000000E+00  0.00000000000E+00  0.45593999997E+02  0.45594000000E+02  0.51100000000E-03 0. -1.
         11   -1    0    0    0    0 -0.00000000000E+00 -0.00000000000E+00 -0.45593999997E+02  0.45594000000E+02  0.51100000000E-03 0.  1.
         23    2    1    2    0    0  0.00000000000E+00  0.00000000000E+00 -0.35527136788E-14  0.91188000000E+02  0.91188000000E+02 0.  0.
    9900012    2    3    3    0    0 -0.21167238574E+02  0.15274256051E+02  0.25969690822E+02  0.54367085724E+02  0.40000003524E+02 0.  0.
        -12    1    3    3    0    0  0.21167238574E+02 -0.15274256051E+02 -0.25969690822E+02  0.36820914276E+02  0.00000000000E+00 0.  1.
         11    1    4    4    0    0  0.10926583791E+00 -0.40734672611E+01  0.86808994590E+01  0.95897387988E+01  0.51100000000E-03 0. -1.
        -11    1    4    4    0    0 -0.17870373854E+02  0.24000377465E+02  0.38697676882E+01  0.30171898886E+02  0.51100000000E-03 0.  1.
        -12    1    4    4    0    0 -0.34061305572E+01 -0.46526541523E+01  0.13419023675E+02  0.14605448039E+02  0.00000000000E+00 0.  1.
</event>
<event>
 8    1  0.1244838E-006  0.9118800E+02  0.7816164E-02  0.1184000E+00
        -11   -1    0    0    0    0  0.00000000000E+00  0.00000000000E+00  0.45593999997E+02  0.45594000000E+02  0.51100000000E-03 0.  1.
         11   -1    0    0    0    0 -0.00000000000E+00 -0.00000000000E+00 -0.45593999997E+02  0.45594000000E+02  0.51100000000E-03 0. -1.
         23    2    1    2    0    0  0.17763568394E-14  0.00000000000E+00  0.17763568394E-14  0.91188000000E+02  0.91188000000E+02 0.  0.
    9900012    2    3    3    0    0  0.13043150221E+02  0.34256096274E+02  0.34893725376E+01  0.54367087188E+02  0.40000006863E+02 0.  0.
        -12    1    3    3    0    0 -0.13043150221E+02 -0.34256096274E+02 -0.34893725376E+01  0.36820912812E+02  0.00000000000E+00 0.  1.
         11    1    4    4    0    0  0.14607707636E+01  0.61232725830E+00 -0.59310108090E+01  0.61388667825E+01  0.51100000000E-03 0. -1.
        -11    1    4    4    0    0  0.20141008200E+02  0.17465917114E+02  0.12870640248E+02  0.29603578375E+02  0.51100000000E-03 0.  1.
        -12    1    4    4    0    0 -0.85586287429E+01  0.16177851901E+02 -0.34502569010E+01  0.18624642031E+02  0.00000000000E+00 0.  1.
</event>
<event>
 8    1  0.1244838E-006  0.9118800E+02  0.7816164E-02  0.1184000E+00
        -11   -1    0    0    0    0  0.00000000000E+00  0.00000000000E+00  0.45593999997E+02  0.45594000000E+02  0.51100000000E-03 0. -1.
         11   -1    0    0    0    0 -0.00000000000E+00 -0.00000000000E+00 -0.45593999997E+02  0.45594000000E+02  0.51100000000E-03 0.  1.
         23    2    1    2    0    0  0.35527136788E-14  0.00000000000E+00  0.00000000000E+00  0.91188000000E+02  0.91188000000E+02 0.  0.
    9900012    2    3    3    0    0  0.22502988649E+02 -0.25524415248E+02  0.14067740607E+02  0.54367060337E+02  0.39999945651E+02 0.  0.
        -12    1    3    3    0    0 -0.22502988649E+02  0.25524415248E+02 -0.14067740607E+02  0.36820939663E+02  0.00000000000E+00 0.  1.
         11    1    4    4    0    0  0.16218530958E+02 -0.27852661140E+02  0.22795942073E+01  0.32311113089E+02  0.51100000000E-03 0. -1.
        -11    1    4    4    0    0 -0.51270704416E+01 -0.15855511408E+01  0.75626427028E+01  0.92733159466E+01  0.51100000000E-03 0.  1.
         12    1    4    4    0    0  0.11411528132E+02  0.39137970329E+01  0.42255036967E+01  0.12782631302E+02  0.00000000000E+00 0. -1.
</event>
<event>
 8    1  0.1244838E-006  0.9118800E+02  0.7816164E-02  0.1184000E+00
        -11   -1    0    0    0    0  0.00000000000E+00  0.00000000000E+00  0.45593999997E+02  0.45594000000E+02  0.51100000000E-03 0.  1.
         11   -1    0    0    0    0 -0.00000000000E+00 -0.00000000000E+00 -0.45593999997E+02  0.45594000000E+02  0.51100000000E-03 0. -1.
         23    2    1    2    0    0  0.00000000000E+00  0.00000000000E+00 -0.17763568394E-14  0.91188000000E+02  0.91188000000E+02 0.  0.
    9900012    2    3    3    0    0 -0.22981554746E+02 -0.24466912280E+02  0.15132697121E+02  0.54367079626E+02  0.39999989623E+02 0.  0.
         12    1    3    3    0    0  0.22981554746E+02  0.24466912280E+02 -0.15132697121E+02  0.36820920374E+02  0.00000000000E+00 0. -1.
         11    1    4    4    0    0 -0.20605249288E+02 -0.53705706289E+00  0.52935260900E+01  0.21281121851E+02  0.51100000000E-03 0. -1.
        -11    1    4    4    0    0  0.59772997206E+00 -0.15022489029E+02 -0.47227003657E+01  0.15758691467E+02  0.51100000000E-03 0.  1.
         12    1    4    4    0    0 -0.29740354308E+01 -0.89073661876E+01  0.14561871396E+02  0.17327266308E+02  0.00000000000E+00 0. -1.
</event>
<event>
 8    1  0.1244838E-006  0.9118800E+02  0.7816164E-02  0.1184000E+00
        -11   -1    0    0    0    0  0.00000000000E+00  0.00000000000E+00  0.45593999997E+02  0.45594000000E+02  0.51100000000E-03 0.  1.
         11   -1    0    0    0    0 -0.00000000000E+00 -0.00000000000E+00 -0.45593999997E+02  0.45594000000E+02  0.51100000000E-03 0. -1.
         23    2    1    2    0    0 -0.17763568394E-14  0.00000000000E+00  0.00000000000E+00  0.91188000000E+02  0.91188000000E+02 0.  0.
    9900012    2    3    3    0    0 -0.28702955043E+01  0.36233210778E+02  0.58902822421E+01  0.54367087675E+02  0.40000007972E+02 0.  0.
         12    1    3    3    0    0  0.28702955043E+01 -0.36233210778E+02 -0.58902822421E+01  0.36820912325E+02  0.00000000000E+00 0. -1.
         11    1    4    4    0    0 -0.92928955437E+01  0.24578847941E+02 -0.70484456562E+01  0.27205849741E+02  0.51100000000E-03 0. -1.
        -11    1    4    4    0    0  0.13514284415E+02  0.58977322231E+01  0.81698100944E+01  0.16857192111E+02  0.51100000000E-03 0.  1.
        -12    1    4    4    0    0 -0.70916843752E+01  0.57566306136E+01  0.47689178038E+01  0.10304045823E+02  0.00000000000E+00 0.  1.
</event>
<event>
 8    1  0.1244838E-006  0.9118800E+02  0.7816164E-02  0.1184000E+00
        -11   -1    0    0    0    0  0.00000000000E+00  0.00000000000E+00  0.45593999997E+02  0.45594000000E+02  0.51100000000E-03 0.  1.
         11   -1    0    0    0    0 -0.00000000000E+00 -0.00000000000E+00 -0.45593999997E+02  0.45594000000E+02  0.51100000000E-03 0. -1.
         23    2    1    2    0    0  0.00000000000E+00  0.00000000000E+00  0.00000000000E+00  0.91188000000E+02  0.91188000000E+02 0.  0.
    9900012    2    3    3    0    0 -0.16861488619E+02 -0.32652905957E+02 -0.22930032637E+01  0.54367082985E+02  0.39999997281E+02 0.  0.
         12    1    3    3    0    0  0.16861488619E+02  0.32652905957E+02  0.22930032637E+01  0.36820917015E+02  0.00000000000E+00 0. -1.
         11    1    4    4    0    0 -0.38291731145E+01 -0.34454547559E+01 -0.65523558495E+00  0.51925965709E+01  0.51100000000E-03 0. -1.
        -11    1    4    4    0    0 -0.45609653042E+01  0.68660062428E+01  0.73515457096E+01  0.11044893427E+02  0.51100000000E-03 0.  1.
         12    1    4    4    0    0 -0.84713502001E+01 -0.36073457444E+02 -0.89893133884E+01  0.38129592987E+02  0.00000000000E+00 0. -1.
</event>
<event>
 8    1  0.1244838E-006  0.9118800E+02  0.7816164E-02  0.1184000E+00
        -11   -1    0    0    0    0  0.00000000000E+00  0.00000000000E+00  0.45593999997E+02  0.45594000000E+02  0.51100000000E-03 0. -1.
         11   -1    0    0    0    0 -0.00000000000E+00 -0.00000000000E+00 -0.45593999997E+02  0.45594000000E+02  0.51100000000E-03 0.  1.
         23    2    1    2    0    0  0.17763568394E-14  0.00000000000E+00  0.00000000000E+00  0.91188000000E+02  0.91188000000E+02 0.  0.
    9900012    2    3    3    0    0 -0.78722941288E+01 -0.32892578402E+02  0.14556259490E+02  0.54367089920E+02  0.40000013090E+02 0.  0.
        -12    1    3    3    0    0  0.78722941288E+01  0.32892578402E+02 -0.14556259490E+02  0.36820910080E+02  0.00000000000E+00 0.  1.
         11    1    4    4    0    0 -0.70277316019E+01 -0.41902482919E+01  0.13781503366E+02  0.16027383676E+02  0.51100000000E-03 0. -1.
        -11    1    4    4    0    0  0.23332698012E+00  0.40414250206E+01 -0.34346493795E+01  0.53088957701E+01  0.51100000000E-03 0.  1.
        -12    1    4    4    0    0 -0.10778895070E+01 -0.32743755131E+02  0.42094055036E+01  0.33030810474E+02  0.00000000000E+00 0.  1.
</event>
<event>
 8    1  0.1244838E-006  0.9118800E+02  0.7816164E-02  0.1184000E+00
        -11   -1    0    0    0    0  0.00000000000E+00  0.00000000000E+00  0.45593999997E+02  0.45594000000E+02  0.51100000000E-03 0. -1.
         11   -1    0    0    0    0 -0.00000000000E+00 -0.00000000000E+00 -0.45593999997E+02  0.45594000000E+02  0.51100000000E-03 0.  1.
         23    2    1    2    0    0  0.00000000000E+00  0.00000000000E+00  0.00000000000E+00  0.91188000000E+02  0.91188000000E+02 0.  0.
    9900012    2    3    3    0    0  0.15908440904E+02 -0.20250771933E+02  0.26317434367E+02  0.54367087362E+02  0.40000007259E+02 0.  0.
        -12    1    3    3    0    0 -0.15908440904E+02  0.20250771933E+02 -0.26317434367E+02  0.36820912638E+02  0.00000000000E+00 0.  1.
         11    1    4    4    0    0  0.31469514362E+01 -0.65506003737E+01  0.16729356987E+02  0.18239656084E+02  0.51100000000E-03 0. -1.
        -11    1    4    4    0    0  0.80291093467E+01 -0.12239755448E+01  0.18416355204E+02  0.20127763221E+02  0.51100000000E-03 0.  1.
         12    1    4    4    0    0  0.47323801207E+01 -0.12476196014E+02 -0.88282778242E+01  0.15999668057E+02  0.00000000000E+00 0. -1.
</event>
<event>
 8    1  0.1244838E-006  0.9118800E+02  0.7816164E-02  0.1184000E+00
        -11   -1    0    0    0    0  0.00000000000E+00  0.00000000000E+00  0.45593999997E+02  0.45594000000E+02  0.51100000000E-03 0.  1.
         11   -1    0    0    0    0 -0.00000000000E+00 -0.00000000000E+00 -0.45593999997E+02  0.45594000000E+02  0.51100000000E-03 0. -1.
         23    2    1    2    0    0  0.88817841970E-15 -0.35527136788E-14  0.35527136788E-14  0.91188000000E+02  0.91188000000E+02 0.  0.
    9900012    2    3    3    0    0 -0.50236409266E+01  0.18864511769E+02 -0.31219753171E+02  0.54367085284E+02  0.40000002522E+02 0.  0.
        -12    1    3    3    0    0  0.50236409266E+01 -0.18864511769E+02  0.31219753171E+02  0.36820914716E+02  0.00000000000E+00 0.  1.
         11    1    4    4    0    0 -0.76999757775E+01  0.71012861391E+01 -0.10364853847E+02  0.14735945417E+02  0.51100000000E-03 0. -1.
        -11    1    4    4    0    0  0.15491359570E+02  0.12106889484E+02 -0.17639967492E+02  0.26414530995E+02  0.51100000000E-03 0.  1.
         12    1    4    4    0    0 -0.12815024719E+02 -0.34366385369E+00 -0.32149318320E+01  0.13216608872E+02  0.00000000000E+00 0. -1.
</event>
<event>
 8    1  0.1244838E-006  0.9118800E+02  0.7816164E-02  0.1184000E+00
        -11   -1    0    0    0    0  0.00000000000E+00  0.00000000000E+00  0.45593999997E+02  0.45594000000E+02  0.51100000000E-03 0. -1.
         11   -1    0    0    0    0 -0.00000000000E+00 -0.00000000000E+00 -0.45593999997E+02  0.45594000000E+02  0.51100000000E-03 0.  1.
         23    2    1    2    0    0  0.00000000000E+00  0.00000000000E+00  0.00000000000E+00  0.91188000000E+02  0.91188000000E+02 0.  0.
    9900012    2    3    3    0    0  0.93268505504E+01 -0.25403734287E+02  0.24968749959E+02  0.54367104690E+02  0.40000046761E+02 0.  0.
        -12    1    3    3    0    0 -0.93268505504E+01  0.25403734287E+02 -0.24968749959E+02  0.36820895310E+02  0.00000000000E+00 0.  1.
         11    1    4    4    0    0  0.62274110731E+01 -0.10108488791E+02  0.22146312858E+01  0.12077532293E+02  0.51100000000E-03 0.  1.
        -11    1    4    4    0    0  0.33963581954E+01 -0.14185526278E+02  0.30843673763E+02  0.34118860125E+02  0.51100000000E-03 0. -1.
        -12    1    4    4    0    0 -0.29691871813E+00 -0.11097192179E+01 -0.80895550897E+01  0.81707122711E+01  0.00000000000E+00 0.  1.
</event>
<event>
 8    1  0.1244838E-006  0.9118800E+02  0.7816164E-02  0.1184000E+00
        -11   -1    0    0    0    0  0.00000000000E+00  0.00000000000E+00  0.45593999997E+02  0.45594000000E+02  0.51100000000E-03 0.  1.
         11   -1    0    0    0    0 -0.00000000000E+00 -0.00000000000E+00 -0.45593999997E+02  0.45594000000E+02  0.51100000000E-03 0. -1.
         23    2    1    2    0    0 -0.35527136788E-14  0.00000000000E+00  0.00000000000E+00  0.91188000000E+02  0.91188000000E+02 0.  0.
    9900012    2    3    3    0    0 -0.16696476790E+02  0.19349892541E+02  0.26506342390E+02  0.54367124597E+02  0.40000092144E+02 0.  0.
         12    1    3    3    0    0  0.16696476790E+02 -0.19349892541E+02 -0.26506342390E+02  0.36820875403E+02  0.00000000000E+00 0. -1.
         11    1    4    4    0    0 -0.67998761741E+01  0.12740178474E+02  0.40131719421E+01  0.14988529375E+02  0.51100000000E-03 0. -1.
        -11    1    4    4    0    0 -0.13975572901E+02  0.55638407268E+01 -0.14091071213E+01  0.15108227715E+02  0.51100000000E-03 0.  1.
         12    1    4    4    0    0  0.40789722852E+01  0.10458733405E+01  0.23902277569E+02  0.24270367507E+02  0.00000000000E+00 0. -1.
</event>
<event>
 8    1  0.1244838E-006  0.9118800E+02  0.7816164E-02  0.1184000E+00
        -11   -1    0    0    0    0  0.00000000000E+00  0.00000000000E+00  0.45593999997E+02  0.45594000000E+02  0.51100000000E-03 0.  1.
         11   -1    0    0    0    0 -0.00000000000E+00 -0.00000000000E+00 -0.45593999997E+02  0.45594000000E+02  0.51100000000E-03 0. -1.
         23    2    1    2    0    0  0.00000000000E+00  0.00000000000E+00  0.00000000000E+00  0.91188000000E+02  0.91188000000E+02 0.  0.
    9900012    2    3    3    0    0  0.14138055794E+02  0.17920772183E+02 -0.28891886617E+02  0.54367084618E+02  0.40000001003E+02 0.  0.
        -12    1    3    3    0    0 -0.14138055794E+02 -0.17920772183E+02  0.28891886617E+02  0.36820915382E+02  0.00000000000E+00 0.  1.
         11    1    4    4    0    0  0.15329595298E+02  0.13072602576E+02 -0.12623070554E+02  0.23774594435E+02  0.51100000000E-03 0. -1.
        -11    1    4    4    0    0 -0.88416170175E+01  0.46165372012E+01 -0.19794798011E+02  0.22165753670E+02  0.51100000000E-03 0.  1.
        -12    1    4    4    0    0  0.76500775142E+01  0.23163240652E+00  0.35259819480E+01  0.84267365120E+01  0.00000000000E+00 0.  1.
</event>
<event>
 8    1  0.1244838E-006  0.9118800E+02  0.7816164E-02  0.1184000E+00
        -11   -1    0    0    0    0  0.00000000000E+00  0.00000000000E+00  0.45593999997E+02  0.45594000000E+02  0.51100000000E-03 0.  1.
         11   -1    0    0    0    0 -0.00000000000E+00 -0.00000000000E+00 -0.45593999997E+02  0.45594000000E+02  0.51100000000E-03 0. -1.
         23    2    1    2    0    0  0.00000000000E+00  0.00000000000E+00  0.00000000000E+00  0.91188000000E+02  0.91188000000E+02 0.  0.
    9900012    2    3    3    0    0 -0.25319109217E+02 -0.19015739159E+02  0.18791563970E+02  0.54367102350E+02  0.40000041426E+02 0.  0.
        -12    1    3    3    0    0  0.25319109217E+02  0.19015739159E+02 -0.18791563970E+02  0.36820897650E+02  0.00000000000E+00 0.  1.
         11    1    4    4    0    0 -0.15244140490E+02  0.98188319205E+00  0.75211257513E+01  0.17026897742E+02  0.51100000000E-03 0. -1.
        -11    1    4    4    0    0 -0.41960829064E+01  0.50940808360E+01  0.94210405970E+01  0.11502729133E+02  0.51100000000E-03 0.  1.
         12    1    4    4    0    0 -0.58788858212E+01 -0.25091703187E+02  0.18493976219E+01  0.25837475475E+02  0.00000000000E+00 0. -1.
</event>
<event>
 8    1  0.1244838E-006  0.9118800E+02  0.7816164E-02  0.1184000E+00
        -11   -1    0    0    0    0  0.00000000000E+00  0.00000000000E+00  0.45593999997E+02  0.45594000000E+02  0.51100000000E-03 0.  1.
         11   -1    0    0    0    0 -0.00000000000E+00 -0.00000000000E+00 -0.45593999997E+02  0.45594000000E+02  0.51100000000E-03 0. -1.
         23    2    1    2    0    0 -0.35527136788E-14  0.00000000000E+00 -0.17763568394E-14  0.91188000000E+02  0.91188000000E+02 0.  0.
    9900012    2    3    3    0    0 -0.23864673985E+02  0.24607820771E+02 -0.13442596188E+02  0.54367205607E+02  0.40000276821E+02 0.  0.
        -12    1    3    3    0    0  0.23864673985E+02 -0.24607820771E+02  0.13442596188E+02  0.36820794393E+02  0.00000000000E+00 0.  1.
         11    1    4    4    0    0 -0.19238878147E+01  0.30008346741E+01  0.62478928163E+01  0.71932272292E+01  0.51100000000E-03 0. -1.
        -11    1    4    4    0    0 -0.26446769921E+01 -0.30010134689E+01  0.56511741357E+01  0.69235949915E+01  0.51100000000E-03 0.  1.
         12    1    4    4    0    0 -0.19296109178E+02  0.24607999566E+02 -0.25341663140E+02  0.40250383386E+02  0.00000000000E+00 0. -1.
</event>
<event>
 8    1  0.1244838E-006  0.9118800E+02  0.7816164E-02  0.1184000E+00
        -11   -1    0    0    0    0  0.00000000000E+00  0.00000000000E+00  0.45593999997E+02  0.45594000000E+02  0.51100000000E-03 0. -1.
         11   -1    0    0    0    0 -0.00000000000E+00 -0.00000000000E+00 -0.45593999997E+02  0.45594000000E+02  0.51100000000E-03 0.  1.
         23    2    1    2    0    0  0.17763568394E-14  0.00000000000E+00  0.00000000000E+00  0.91188000000E+02  0.91188000000E+02 0.  0.
    9900012    2    3    3    0    0 -0.97222418855E+01  0.22981868563E+02  0.27075686531E+02  0.54367067488E+02  0.39999961952E+02 0.  0.
        -12    1    3    3    0    0  0.97222418855E+01 -0.22981868563E+02 -0.27075686531E+02  0.36820932512E+02  0.00000000000E+00 0.  1.
         11    1    4    4    0    0 -0.68102264510E+01 -0.19497769215E+01 -0.32735747578E+01  0.78036598025E+01  0.51100000000E-03 0. -1.
        -11    1    4    4    0    0 -0.43040252342E+01  0.24571576132E+02  0.11173392553E+02  0.27333709742E+02  0.51100000000E-03 0.  1.
        -12    1    4    4    0    0  0.13920097997E+01  0.36006935266E+00  0.19175868736E+02  0.19229697944E+02  0.00000000000E+00 0.  1.
</event>
<event>
 8    1  0.1244838E-006  0.9118800E+02  0.7816164E-02  0.1184000E+00
        -11   -1    0    0    0    0  0.00000000000E+00  0.00000000000E+00  0.45593999997E+02  0.45594000000E+02  0.51100000000E-03 0. -1.
         11   -1    0    0    0    0 -0.00000000000E+00 -0.00000000000E+00 -0.45593999997E+02  0.45594000000E+02  0.51100000000E-03 0.  1.
         23    2    1    2    0    0  0.71054273576E-14  0.00000000000E+00  0.00000000000E+00  0.91188000000E+02  0.91188000000E+02 0.  0.
    9900012    2    3    3    0    0  0.36447484837E+02 -0.32772376330E+01  0.40766328128E+01  0.54367104131E+02  0.40000045489E+02 0.  0.
        -12    1    3    3    0    0 -0.36447484837E+02  0.32772376330E+01 -0.40766328128E+01  0.36820895869E+02  0.00000000000E+00 0.  1.
         11    1    4    4    0    0  0.11991127548E+02 -0.98556017825E+01  0.14016299118E+02  0.20913552247E+02  0.51100000000E-03 0. -1.
        -11    1    4    4    0    0  0.42228960551E+01  0.61746314917E+01  0.43742008072E+01  0.86655962353E+01  0.51100000000E-03 0.  1.
        -12    1    4    4    0    0  0.20233461234E+02  0.40373265770E+00 -0.14313867112E+02  0.24787955649E+02  0.00000000000E+00 0.  1.
</event>
<event>
 8    1  0.1244838E-006  0.9118800E+02  0.7816164E-02  0.1184000E+00
        -11   -1    0    0    0    0  0.00000000000E+00  0.00000000000E+00  0.45593999997E+02  0.45594000000E+02  0.51100000000E-03 0.  1.
         11   -1    0    0    0    0 -0.00000000000E+00 -0.00000000000E+00 -0.45593999997E+02  0.45594000000E+02  0.51100000000E-03 0. -1.
         23    2    1    2    0    0  0.00000000000E+00  0.88817841970E-15 -0.71054273576E-14  0.91188000000E+02  0.91188000000E+02 0.  0.
    9900012    2    3    3    0    0  0.10685786709E+02 -0.71371938001E+01  0.34505896044E+02  0.54367048970E+02  0.39999919737E+02 0.  0.
         12    1    3    3    0    0 -0.10685786709E+02  0.71371938001E+01 -0.34505896044E+02  0.36820951030E+02  0.00000000000E+00 0. -1.
         11    1    4    4    0    0 -0.58406050518E+01 -0.14422036626E+02  0.37397120414E+01  0.16002913929E+02  0.51100000000E-03 0. -1.
        -11    1    4    4    0    0  0.97509520393E+00 -0.34009655271E+01  0.23267486700E+01  0.42345173052E+01  0.51100000000E-03 0.  1.
        -12    1    4    4    0    0  0.15551296557E+02  0.10685808353E+02  0.28439435333E+02  0.34129617736E+02  0.00000000000E+00 0.  1.
</event>
<event>
 8    1  0.1244838E-006  0.9118800E+02  0.7816164E-02  0.1184000E+00
        -11   -1    0    0    0    0  0.00000000000E+00  0.00000000000E+00  0.45593999997E+02  0.45594000000E+02  0.51100000000E-03 0.  1.
         11   -1    0    0    0    0 -0.00000000000E+00 -0.00000000000E+00 -0.45593999997E+02  0.45594000000E+02  0.51100000000E-03 0. -1.
         23    2    1    2    0    0  0.00000000000E+00  0.35527136788E-14 -0.35527136788E-14  0.91188000000E+02  0.91188000000E+02 0.  0.
    9900012    2    3    3    0    0  0.15394184749E+02 -0.28002044444E+02  0.18294369665E+02  0.54367090471E+02  0.40000014346E+02 0.  0.
         12    1    3    3    0    0 -0.15394184749E+02  0.28002044444E+02 -0.18294369665E+02  0.36820909529E+02  0.00000000000E+00 0. -1.
         11    1    4    4    0    0  0.39909868609E+01  0.79044283444E+01 -0.23706574197E+01  0.91666777209E+01  0.51100000000E-03 0. -1.
        -11    1    4    4    0    0  0.91692829463E+00 -0.23173644651E+02  0.84827424291E+01  0.24694442356E+02  0.51100000000E-03 0.  1.
        -12    1    4    4    0    0  0.10486269594E+02 -0.12732828137E+02  0.12182284655E+02  0.20505970394E+02  0.00000000000E+00 0.  1.
</event>
<event>
 8    1  0.1244838E-006  0.9118800E+02  0.7816164E-02  0.1184000E+00
        -11   -1    0    0    0    0  0.00000000000E+00  0.00000000000E+00  0.45593999997E+02  0.45594000000E+02  0.51100000000E-03 0.  1.
         11   -1    0    0    0    0 -0.00000000000E+00 -0.00000000000E+00 -0.45593999997E+02  0.45594000000E+02  0.51100000000E-03 0. -1.
         23    2    1    2    0    0  0.00000000000E+00 -0.88817841970E-15 -0.17763568394E-14  0.91188000000E+02  0.91188000000E+02 0.  0.
    9900012    2    3    3    0    0 -0.34477956622E+02  0.70059579215E+01  0.10861268759E+02  0.54367080698E+02  0.39999992067E+02 0.  0.
         12    1    3    3    0    0  0.34477956622E+02 -0.70059579215E+01 -0.10861268759E+02  0.36820919302E+02  0.00000000000E+00 0. -1.
         11    1    4    4    0    0 -0.17535435063E+02  0.36829061754E+01  0.32845263079E+01  0.18216569218E+02  0.51100000000E-03 0. -1.
        -11    1    4    4    0    0 -0.20881087273E+02 -0.57299445267E+01  0.12622164706E+02  0.25063341998E+02  0.51100000000E-03 0.  1.
         12    1    4    4    0    0  0.39385657139E+01  0.90529962729E+01 -0.50454222551E+01  0.11087169482E+02  0.00000000000E+00 0. -1.
</event>
<event>
 8    1  0.1244838E-006  0.9118800E+02  0.7816164E-02  0.1184000E+00
        -11   -1    0    0    0    0  0.00000000000E+00  0.00000000000E+00  0.45593999997E+02  0.45594000000E+02  0.51100000000E-03 0. -1.
         11   -1    0    0    0    0 -0.00000000000E+00 -0.00000000000E+00 -0.45593999997E+02  0.45594000000E+02  0.51100000000E-03 0.  1.
         23    2    1    2    0    0 -0.71054273576E-14 -0.35527136788E-14  0.35527136788E-14  0.91188000000E+02  0.91188000000E+02 0.  0.
    9900012    2    3    3    0    0  0.34208963121E+02  0.10479938544E+02 -0.87004137189E+01  0.54367089249E+02  0.40000011560E+02 0.  0.
         12    1    3    3    0    0 -0.34208963121E+02 -0.10479938544E+02  0.87004137189E+01  0.36820910751E+02  0.00000000000E+00 0. -1.
         11    1    4    4    0    0  0.39375127883E+01  0.84711527228E+01  0.41723336572E+01  0.10230972770E+02  0.51100000000E-03 0. -1.
        -11    1    4    4    0    0  0.64868287201E+01 -0.51442742151E+01 -0.17046778988E+02  0.18950862201E+02  0.51100000000E-03 0.  1.
        -12    1    4    4    0    0  0.23784621612E+02  0.71530600361E+01  0.41740316119E+01  0.25185254277E+02  0.00000000000E+00 0.  1.
</event>
<event>
 8    1  0.1244838E-006  0.9118800E+02  0.7816164E-02  0.1184000E+00
        -11   -1    0    0    0    0  0.00000000000E+00  0.00000000000E+00  0.45593999997E+02  0.45594000000E+02  0.51100000000E-03 0.  1.
         11   -1    0    0    0    0 -0.00000000000E+00 -0.00000000000E+00 -0.45593999997E+02  0.45594000000E+02  0.51100000000E-03 0. -1.
         23    2    1    2    0    0  0.00000000000E+00  0.00000000000E+00 -0.17763568394E-14  0.91188000000E+02  0.91188000000E+02 0.  0.
    9900012    2    3    3    0    0  0.34017166027E+02 -0.84520844963E+01  0.11277161432E+02  0.54367086285E+02  0.40000004804E+02 0.  0.
         12    1    3    3    0    0 -0.34017166027E+02  0.84520844963E+01 -0.11277161432E+02  0.36820913715E+02  0.00000000000E+00 0. -1.
         11    1    4    4    0    0  0.31713686709E+02 -0.82145587688E+01 -0.53690693687E+01  0.33197346379E+02  0.51100000000E-03 0. -1.
        -11    1    4    4    0    0  0.14308822980E+01 -0.34377979628E+01  0.17378342247E+02  0.17772806714E+02  0.51100000000E-03 0.  1.
        -12    1    4    4    0    0  0.87259701998E+00  0.32002722354E+01 -0.73211144705E+00  0.33969331920E+01  0.00000000000E+00 0.  1.
</event>
<event>
 8    1  0.1244838E-006  0.9118800E+02  0.7816164E-02  0.1184000E+00
        -11   -1    0    0    0    0  0.00000000000E+00  0.00000000000E+00  0.45593999997E+02  0.45594000000E+02  0.51100000000E-03 0.  1.
         11   -1    0    0    0    0 -0.00000000000E+00 -0.00000000000E+00 -0.45593999997E+02  0.45594000000E+02  0.51100000000E-03 0. -1.
         23    2    1    2    0    0  0.00000000000E+00  0.22204460493E-14  0.00000000000E+00  0.91188000000E+02  0.91188000000E+02 0.  0.
    9900012    2    3    3    0    0  0.35201427609E+02  0.33797334637E+01  0.10257487549E+02  0.54367093509E+02  0.40000021273E+02 0.  0.
        -12    1    3    3    0    0 -0.35201427609E+02 -0.33797334637E+01 -0.10257487549E+02  0.36820906491E+02  0.00000000000E+00 0.  1.
         11    1    4    4    0    0  0.28368010867E+02 -0.12693430618E+02  0.34533498846E+01  0.31269679357E+02  0.51100000000E-03 0. -1.
        -11    1    4    4    0    0  0.10896662900E+02  0.12266842237E+02  0.60085154399E+01  0.17473263544E+02  0.51100000000E-03 0.  1.
        -12    1    4    4    0    0 -0.40632461592E+01  0.38063218450E+01  0.79562222406E+00  0.56241506079E+01  0.00000000000E+00 0.  1.
</event>
<event>
 8    1  0.1244838E-006  0.9118800E+02  0.7816164E-02  0.1184000E+00
        -11   -1    0    0    0    0  0.00000000000E+00  0.00000000000E+00  0.45593999997E+02  0.45594000000E+02  0.51100000000E-03 0. -1.
         11   -1    0    0    0    0 -0.00000000000E+00 -0.00000000000E+00 -0.45593999997E+02  0.45594000000E+02  0.51100000000E-03 0.  1.
         23    2    1    2    0    0  0.00000000000E+00 -0.88817841970E-15 -0.17763568394E-14  0.91188000000E+02  0.91188000000E+02 0.  0.
    9900012    2    3    3    0    0 -0.32709336530E+02 -0.72346466351E+01 -0.15281982563E+02  0.54367084759E+02  0.40000001324E+02 0.  0.
        -12    1    3    3    0    0  0.32709336530E+02  0.72346466351E+01  0.15281982563E+02  0.36820915241E+02  0.00000000000E+00 0.  1.
         11    1    4    4    0    0 -0.38871101115E+01 -0.25147539797E+01  0.40519188734E+01  0.61523702274E+01  0.51100000000E-03 0. -1.
        -11    1    4    4    0    0 -0.27961725872E+02  0.93798748416E+01 -0.94344824066E+01  0.30965297098E+02  0.51100000000E-03 0.  1.
        -12    1    4    4    0    0 -0.86050054592E+00 -0.14099767497E+02 -0.98994190302E+01  0.17249417434E+02  0.00000000000E+00 0.  1.
</event>
<event>
 8    1  0.1244838E-006  0.9118800E+02  0.7816164E-02  0.1184000E+00
        -11   -1    0    0    0    0  0.00000000000E+00  0.00000000000E+00  0.45593999997E+02  0.45594000000E+02  0.51100000000E-03 0. -1.
         11   -1    0    0    0    0 -0.00000000000E+00 -0.00000000000E+00 -0.45593999997E+02  0.45594000000E+02  0.51100000000E-03 0.  1.
         23    2    1    2    0    0 -0.22204460493E-15 -0.71054273576E-14  0.00000000000E+00  0.91188000000E+02  0.91188000000E+02 0.  0.
    9900012    2    3    3    0    0  0.14100824757E+01  0.31852097371E+02 -0.18418381249E+02  0.54367065637E+02  0.39999957732E+02 0.  0.
        -12    1    3    3    0    0 -0.14100824757E+01 -0.31852097371E+02  0.18418381249E+02  0.36820934363E+02  0.00000000000E+00 0.  1.
         11    1    4    4    0    0  0.40606580610E+01  0.31120963570E+00 -0.10114752426E+01  0.41962933350E+01  0.51100000000E-03 0. -1.
        -11    1    4    4    0    0 -0.20741231602E+01  0.24586246395E+01 -0.20653219230E+02  0.20902207702E+02  0.51100000000E-03 0.  1.
         12    1    4    4    0    0 -0.57645242511E+00  0.29082263096E+02  0.32463132236E+01  0.29268564600E+02  0.00000000000E+00 0. -1.
</event>
<event>
 8    1  0.1244838E-006  0.9118800E+02  0.7816164E-02  0.1184000E+00
        -11   -1    0    0    0    0  0.00000000000E+00  0.00000000000E+00  0.45593999997E+02  0.45594000000E+02  0.51100000000E-03 0.  1.
         11   -1    0    0    0    0 -0.00000000000E+00 -0.00000000000E+00 -0.45593999997E+02  0.45594000000E+02  0.51100000000E-03 0. -1.
         23    2    1    2    0    0  0.00000000000E+00  0.00000000000E+00  0.17763568394E-14  0.91188000000E+02  0.91188000000E+02 0.  0.
    9900012    2    3    3    0    0 -0.32385114990E+02  0.16578933753E+02 -0.56679214993E+01  0.54367054176E+02  0.39999931604E+02 0.  0.
        -12    1    3    3    0    0  0.32385114990E+02 -0.16578933753E+02  0.56679214993E+01  0.36820945824E+02  0.00000000000E+00 0.  1.
         11    1    4    4    0    0 -0.18156512015E+02  0.24321967220E+02 -0.43627745531E+00  0.30354692492E+02  0.51100000000E-03 0. -1.
        -11    1    4    4    0    0 -0.92261727434E-01  0.23526938458E+01  0.37719248499E+01  0.44464702735E+01  0.51100000000E-03 0.  1.
         12    1    4    4    0    0 -0.14136341247E+02 -0.10095727313E+02 -0.90035688939E+01  0.19565891410E+02  0.00000000000E+00 0. -1.
</event>
<event>
 8    1  0.1244838E-006  0.9118800E+02  0.7816164E-02  0.1184000E+00
        -11   -1    0    0    0    0  0.00000000000E+00  0.00000000000E+00  0.45593999997E+02  0.45594000000E+02  0.51100000000E-03 0. -1.
         11   -1    0    0    0    0 -0.00000000000E+00 -0.00000000000E+00 -0.45593999997E+02  0.45594000000E+02  0.51100000000E-03 0.  1.
         23    2    1    2    0    0 -0.35527136788E-14  0.35527136788E-14  0.17763568394E-14  0.91188000000E+02  0.91188000000E+02 0.  0.
    9900012    2    3    3    0    0 -0.26776781507E+02  0.21199162220E+02  0.13761473567E+02  0.54367100209E+02  0.40000036547E+02 0.  0.
         12    1    3    3    0    0  0.26776781507E+02 -0.21199162220E+02 -0.13761473567E+02  0.36820899791E+02  0.00000000000E+00 0. -1.
         11    1    4    4    0    0 -0.16382132790E+02  0.23447963029E+02  0.21943923885E+02  0.36051588601E+02  0.51100000000E-03 0. -1.
        -11    1    4    4    0    0 -0.10629197835E+02 -0.45720518756E+01 -0.10049605758E+02  0.15325732645E+02  0.51100000000E-03 0.  1.
        -12    1    4    4    0    0  0.23454911853E+00  0.23232510664E+01  0.18671554403E+01  0.29897789625E+01  0.00000000000E+00 0.  1.
</event>
<event>
 8    1  0.1244838E-006  0.9118800E+02  0.7816164E-02  0.1184000E+00
        -11   -1    0    0    0    0  0.00000000000E+00  0.00000000000E+00  0.45593999997E+02  0.45594000000E+02  0.51100000000E-03 0. -1.
         11   -1    0    0    0    0 -0.00000000000E+00 -0.00000000000E+00 -0.45593999997E+02  0.45594000000E+02  0.51100000000E-03 0.  1.
         23    2    1    2    0    0  0.00000000000E+00  0.00000000000E+00  0.00000000000E+00  0.91188000000E+02  0.91188000000E+02 0.  0.
    9900012    2    3    3    0    0  0.13447433025E+02  0.38268558760E+01 -0.34063179156E+02  0.54367103011E+02  0.40000042934E+02 0.  0.
         12    1    3    3    0    0 -0.13447433025E+02 -0.38268558760E+01  0.34063179156E+02  0.36820896989E+02  0.00000000000E+00 0. -1.
         11    1    4    4    0    0 -0.11370210742E+02 -0.37789576585E+01 -0.10642511124E+02  0.16025768518E+02  0.51100000000E-03 0. -1.
        -11    1    4    4    0    0  0.11082230530E+02 -0.37156621549E+01 -0.49612730521E+01  0.12697882081E+02  0.51100000000E-03 0.  1.
         12    1    4    4    0    0  0.13735413237E+02  0.11321475689E+02 -0.18459394980E+02  0.25643452412E+02  0.00000000000E+00 0. -1.
</event>
<event>
 8    1  0.1244838E-006  0.9118800E+02  0.7816164E-02  0.1184000E+00
        -11   -1    0    0    0    0  0.00000000000E+00  0.00000000000E+00  0.45593999997E+02  0.45594000000E+02  0.51100000000E-03 0. -1.
         11   -1    0    0    0    0 -0.00000000000E+00 -0.00000000000E+00 -0.45593999997E+02  0.45594000000E+02  0.51100000000E-03 0.  1.
         23    2    1    2    0    0  0.71054273576E-14  0.17763568394E-14  0.35527136788E-14  0.91188000000E+02  0.91188000000E+02 0.  0.
    9900012    2    3    3    0    0  0.21946694059E+02  0.11713378652E+02  0.27146253791E+02  0.54367085910E+02  0.40000003949E+02 0.  0.
        -12    1    3    3    0    0 -0.21946694059E+02 -0.11713378652E+02 -0.27146253791E+02  0.36820914090E+02  0.00000000000E+00 0.  1.
         11    1    4    4    0    0  0.18976718451E+01 -0.61103667373E+01  0.17140774170E+02  0.18296007201E+02  0.51100000000E-03 0. -1.
        -11    1    4    4    0    0 -0.32294752542E+01  0.15116146850E+01 -0.31423024919E+01  0.47527417966E+01  0.51100000000E-03 0.  1.
        -12    1    4    4    0    0  0.23278497468E+02  0.16312130704E+02  0.13147782113E+02  0.31318336912E+02  0.00000000000E+00 0.  1.
</event>
<event>
 8    1  0.1244838E-006  0.9118800E+02  0.7816164E-02  0.1184000E+00
        -11   -1    0    0    0    0  0.00000000000E+00  0.00000000000E+00  0.45593999997E+02  0.45594000000E+02  0.51100000000E-03 0. -1.
         11   -1    0    0    0    0 -0.00000000000E+00 -0.00000000000E+00 -0.45593999997E+02  0.45594000000E+02  0.51100000000E-03 0.  1.
         23    2    1    2    0    0 -0.88817841970E-15  0.00000000000E+00  0.00000000000E+00  0.91188000000E+02  0.91188000000E+02 0.  0.
    9900012    2    3    3    0    0 -0.36708424145E+01  0.34700975451E+02 -0.11753580503E+02  0.54367089692E+02  0.40000012570E+02 0.  0.
         12    1    3    3    0    0  0.36708424145E+01 -0.34700975451E+02  0.11753580503E+02  0.36820910308E+02  0.00000000000E+00 0. -1.
         11    1    4    4    0    0 -0.12550880257E+02  0.18771311651E+02  0.57495521866E+01  0.23301160634E+02  0.51100000000E-03 0. -1.
        -11    1    4    4    0    0 -0.65344498315E-01 -0.23543311075E+01 -0.84794347680E+01  0.88004522107E+01  0.51100000000E-03 0.  1.
         12    1    4    4    0    0  0.89453823407E+01  0.18283994908E+02 -0.90236979214E+01  0.22265476846E+02  0.00000000000E+00 0. -1.
</event>
<event>
 8    1  0.1244838E-006  0.9118800E+02  0.7816164E-02  0.1184000E+00
        -11   -1    0    0    0    0  0.00000000000E+00  0.00000000000E+00  0.45593999997E+02  0.45594000000E+02  0.51100000000E-03 0.  1.
         11   -1    0    0    0    0 -0.00000000000E+00 -0.00000000000E+00 -0.45593999997E+02  0.45594000000E+02  0.51100000000E-03 0. -1.
         23    2    1    2    0    0 -0.17763568394E-14  0.17763568394E-14  0.35527136788E-14  0.91188000000E+02  0.91188000000E+02 0.  0.
    9900012    2    3    3    0    0 -0.15168035175E+02 -0.14381363418E+02 -0.30313147966E+02  0.54367084144E+02  0.39999999924E+02 0.  0.
        -12    1    3    3    0    0  0.15168035175E+02  0.14381363418E+02  0.30313147966E+02  0.36820915856E+02  0.00000000000E+00 0.  1.
         11    1    4    4    0    0  0.45221612025E+01 -0.17576165374E+00 -0.11412800766E+02  0.12277330967E+02  0.51100000000E-03 0. -1.
        -11    1    4    4    0    0  0.33337243542E+01  0.56146598499E+01 -0.44840967338E+00  0.65451657577E+01  0.51100000000E-03 0.  1.
         12    1    4    4    0    0 -0.23023920732E+02 -0.19820261614E+02 -0.18451937527E+02  0.35544587419E+02  0.00000000000E+00 0. -1.
</event>
<event>
 8    1  0.1244838E-006  0.9118800E+02  0.7816164E-02  0.1184000E+00
        -11   -1    0    0    0    0  0.00000000000E+00  0.00000000000E+00  0.45593999997E+02  0.45594000000E+02  0.51100000000E-03 0. -1.
         11   -1    0    0    0    0 -0.00000000000E+00 -0.00000000000E+00 -0.45593999997E+02  0.45594000000E+02  0.51100000000E-03 0.  1.
         23    2    1    2    0    0  0.00000000000E+00  0.22204460493E-14  0.00000000000E+00  0.91188000000E+02  0.91188000000E+02 0.  0.
    9900012    2    3    3    0    0  0.31601333405E+02  0.37194869892E+01  0.18528426023E+02  0.54367062650E+02  0.39999950924E+02 0.  0.
        -12    1    3    3    0    0 -0.31601333405E+02 -0.37194869892E+01 -0.18528426023E+02  0.36820937350E+02  0.00000000000E+00 0.  1.
         11    1    4    4    0    0  0.96064299766E+01  0.13604833478E+02  0.35812051094E+01  0.17035258177E+02  0.51100000000E-03 0.  1.
        -11    1    4    4    0    0  0.16373518132E+02 -0.58143772577E+01 -0.34096488462E+01  0.17706631086E+02  0.51100000000E-03 0. -1.
         12    1    4    4    0    0  0.56213852968E+01 -0.40709692307E+01  0.18356869759E+02  0.19625173388E+02  0.00000000000E+00 0. -1.
</event>
<event>
 8    1  0.1244838E-006  0.9118800E+02  0.7816164E-02  0.1184000E+00
        -11   -1    0    0    0    0  0.00000000000E+00  0.00000000000E+00  0.45593999997E+02  0.45594000000E+02  0.51100000000E-03 0.  1.
         11   -1    0    0    0    0 -0.00000000000E+00 -0.00000000000E+00 -0.45593999997E+02  0.45594000000E+02  0.51100000000E-03 0. -1.
         23    2    1    2    0    0 -0.88817841970E-15  0.44408920985E-15  0.00000000000E+00  0.91188000000E+02  0.91188000000E+02 0.  0.
    9900012    2    3    3    0    0 -0.56549948240E+01  0.94999201727E+00  0.36371668616E+02  0.54367085709E+02  0.40000003492E+02 0.  0.
         12    1    3    3    0    0  0.56549948240E+01 -0.94999201727E+00 -0.36371668616E+02  0.36820914291E+02  0.00000000000E+00 0. -1.
         11    1    4    4    0    0 -0.95210459675E+01  0.63711678375E+01 -0.41119017787E+01  0.12171681578E+02  0.51100000000E-03 0. -1.
        -11    1    4    4    0    0  0.59673771613E+01 -0.43366805776E+01  0.16241040857E+02  0.17837819289E+02  0.51100000000E-03 0.  1.
         12    1    4    4    0    0 -0.21013260178E+01 -0.10844952427E+01  0.24242529538E+02  0.24357584842E+02  0.00000000000E+00 0. -1.
</event>
<event>
 8    1  0.1244838E-006  0.9118800E+02  0.7816164E-02  0.1184000E+00
        -11   -1    0    0    0    0  0.00000000000E+00  0.00000000000E+00  0.45593999997E+02  0.45594000000E+02  0.51100000000E-03 0. -1.
         11   -1    0    0    0    0 -0.00000000000E+00 -0.00000000000E+00 -0.45593999997E+02  0.45594000000E+02  0.51100000000E-03 0.  1.
         23    2    1    2    0    0 -0.35527136788E-14  0.00000000000E+00  0.00000000000E+00  0.91188000000E+02  0.91188000000E+02 0.  0.
    9900012    2    3    3    0    0 -0.17302950491E+02  0.23236887059E+02  0.22725198036E+02  0.54367086898E+02  0.40000006202E+02 0.  0.
        -12    1    3    3    0    0  0.17302950491E+02 -0.23236887059E+02 -0.22725198036E+02  0.36820913102E+02  0.00000000000E+00 0.  1.
         11    1    4    4    0    0  0.32863180470E+01 -0.19594451298E+00  0.44215035158E+01  0.55125288352E+01  0.51100000000E-03 0. -1.
        -11    1    4    4    0    0 -0.22070298976E+02  0.58277044686E+01  0.20958355413E+02  0.30988915731E+02  0.51100000000E-03 0.  1.
         12    1    4    4    0    0  0.14810304389E+01  0.17605127103E+02 -0.26546608933E+01  0.17865642332E+02  0.00000000000E+00 0. -1.
</event>
<event>
 8    1  0.1244838E-006  0.9118800E+02  0.7816164E-02  0.1184000E+00
        -11   -1    0    0    0    0  0.00000000000E+00  0.00000000000E+00  0.45593999997E+02  0.45594000000E+02  0.51100000000E-03 0. -1.
         11   -1    0    0    0    0 -0.00000000000E+00 -0.00000000000E+00 -0.45593999997E+02  0.45594000000E+02  0.51100000000E-03 0.  1.
         23    2    1    2    0    0  0.00000000000E+00  0.00000000000E+00  0.35527136788E-14  0.91188000000E+02  0.91188000000E+02 0.  0.
    9900012    2    3    3    0    0 -0.84266243715E+01  0.28926605561E+02  0.21166548737E+02  0.54367091633E+02  0.40000016995E+02 0.  0.
        -12    1    3    3    0    0  0.84266243715E+01 -0.28926605561E+02 -0.21166548737E+02  0.36820908367E+02  0.00000000000E+00 0.  1.
         11    1    4    4    0    0 -0.10058682435E+01  0.40941913825E+00 -0.12660633356E+01  0.16680262543E+01  0.51100000000E-03 0. -1.
        -11    1    4    4    0    0  0.61736434724E+00 -0.39974304256E+01 -0.70173417054E+01  0.80996094730E+01  0.51100000000E-03 0.  1.
         12    1    4    4    0    0 -0.80381204752E+01  0.32514616848E+02  0.29449953778E+02  0.44599455905E+02  0.00000000000E+00 0. -1.
</event>
<event>
 8    1  0.1244838E-006  0.9118800E+02  0.7816164E-02  0.1184000E+00
        -11   -1    0    0    0    0  0.00000000000E+00  0.00000000000E+00  0.45593999997E+02  0.45594000000E+02  0.51100000000E-03 0.  1.
         11   -1    0    0    0    0 -0.00000000000E+00 -0.00000000000E+00 -0.45593999997E+02  0.45594000000E+02  0.51100000000E-03 0. -1.
         23    2    1    2    0    0  0.00000000000E+00  0.88817841970E-15  0.00000000000E+00  0.91188000000E+02  0.91188000000E+02 0.  0.
    9900012    2    3    3    0    0 -0.33198230202E+02 -0.75723147155E+01 -0.14011375832E+02  0.54367067211E+02  0.39999961322E+02 0.  0.
        -12    1    3    3    0    0  0.33198230202E+02  0.75723147155E+01  0.14011375832E+02  0.36820932789E+02  0.00000000000E+00 0.  1.
         11    1    4    4    0    0 -0.74119125154E+01 -0.18722456695E+01  0.57908524422E+01  0.95903974501E+01  0.51100000000E-03 0. -1.
        -11    1    4    4    0    0 -0.50204242683E+01 -0.89273242640E+00  0.81566757279E+01  0.96194069573E+01  0.51100000000E-03 0.  1.
         12    1    4    4    0    0 -0.20765893418E+02 -0.48073366196E+01 -0.27958904003E+02  0.35157262804E+02  0.00000000000E+00 0. -1.
</event>
<event>
 8    1  0.1244838E-006  0.9118800E+02  0.7816164E-02  0.1184000E+00
        -11   -1    0    0    0    0  0.00000000000E+00  0.00000000000E+00  0.45593999997E+02  0.45594000000E+02  0.51100000000E-03 0. -1.
         11   -1    0    0    0    0 -0.00000000000E+00 -0.00000000000E+00 -0.45593999997E+02  0.45594000000E+02  0.51100000000E-03 0.  1.
         23    2    1    2    0    0  0.00000000000E+00  0.00000000000E+00  0.00000000000E+00  0.91188000000E+02  0.91188000000E+02 0.  0.
    9900012    2    3    3    0    0 -0.20136679308E+02 -0.19201958077E+02  0.24115919485E+02  0.54367100769E+02  0.40000037823E+02 0.  0.
        -12    1    3    3    0    0  0.20136679308E+02  0.19201958077E+02 -0.24115919485E+02  0.36820899231E+02  0.00000000000E+00 0.  1.
         11    1    4    4    0    0 -0.13233148275E+02 -0.13271978820E+02  0.15115547839E+02  0.24077820121E+02  0.51100000000E-03 0. -1.
        -11    1    4    4    0    0 -0.56858520228E-01  0.54814707327E+01  0.14792542902E+02  0.15775584935E+02  0.51100000000E-03 0.  1.
        -12    1    4    4    0    0 -0.68466725134E+01 -0.11411449990E+02 -0.57921712556E+01  0.14513695712E+02  0.00000000000E+00 0.  1.
</event>
<event>
 8    1  0.1244838E-006  0.9118800E+02  0.7816164E-02  0.1184000E+00
        -11   -1    0    0    0    0  0.00000000000E+00  0.00000000000E+00  0.45593999997E+02  0.45594000000E+02  0.51100000000E-03 0.  1.
         11   -1    0    0    0    0 -0.00000000000E+00 -0.00000000000E+00 -0.45593999997E+02  0.45594000000E+02  0.51100000000E-03 0. -1.
         23    2    1    2    0    0  0.88817841970E-15  0.71054273576E-14  0.00000000000E+00  0.91188000000E+02  0.91188000000E+02 0.  0.
    9900012    2    3    3    0    0  0.48656517122E+01  0.36331471789E+02  0.34827854415E+01  0.54367079270E+02  0.39999988813E+02 0.  0.
         12    1    3    3    0    0 -0.48656517122E+01 -0.36331471789E+02 -0.34827854415E+01  0.36820920730E+02  0.00000000000E+00 0. -1.
         11    1    4    4    0    0 -0.81693042073E+00 -0.13239528542E+01  0.87609782685E+00  0.17854338789E+01  0.51100000000E-03 0. -1.
        -11    1    4    4    0    0 -0.14195917641E+02  0.76279271060E+01  0.37741492858E+01  0.16551542306E+02  0.51100000000E-03 0.  1.
         12    1    4    4    0    0  0.19878499774E+02  0.30027497537E+02 -0.11674616712E+01  0.36030103086E+02  0.00000000000E+00 0. -1.
</event>
<event>
 8    1  0.1244838E-006  0.9118800E+02  0.7816164E-02  0.1184000E+00
        -11   -1    0    0    0    0  0.00000000000E+00  0.00000000000E+00  0.45593999997E+02  0.45594000000E+02  0.51100000000E-03 0.  1.
         11   -1    0    0    0    0 -0.00000000000E+00 -0.00000000000E+00 -0.45593999997E+02  0.45594000000E+02  0.51100000000E-03 0. -1.
         23    2    1    2    0    0  0.35527136788E-14  0.00000000000E+00  0.00000000000E+00  0.91188000000E+02  0.91188000000E+02 0.  0.
    9900012    2    3    3    0    0  0.17937515787E+02 -0.19972335476E+02 -0.25201824840E+02  0.54367073447E+02  0.39999975537E+02 0.  0.
        -12    1    3    3    0    0 -0.17937515787E+02  0.19972335476E+02  0.25201824840E+02  0.36820926553E+02  0.00000000000E+00 0.  1.
         11    1    4    4    0    0  0.23595948634E+01 -0.97658232960E+01 -0.69044444505E+01  0.12190584317E+02  0.51100000000E-03 0. -1.
        -11    1    4    4    0    0  0.14639927542E+01 -0.65786846918E+01  0.89934876445E+01  0.11238558063E+02  0.51100000000E-03 0.  1.
         12    1    4    4    0    0  0.14113928169E+02 -0.36278274878E+01 -0.27290868034E+02  0.30937931067E+02  0.00000000000E+00 0. -1.
</event>
<event>
 8    1  0.1244838E-006  0.9118800E+02  0.7816164E-02  0.1184000E+00
        -11   -1    0    0    0    0  0.00000000000E+00  0.00000000000E+00  0.45593999997E+02  0.45594000000E+02  0.51100000000E-03 0. -1.
         11   -1    0    0    0    0 -0.00000000000E+00 -0.00000000000E+00 -0.45593999997E+02  0.45594000000E+02  0.51100000000E-03 0.  1.
         23    2    1    2    0    0 -0.44408920985E-15  0.00000000000E+00  0.00000000000E+00  0.91188000000E+02  0.91188000000E+02 0.  0.
    9900012    2    3    3    0    0  0.34816970497E+01  0.36147532770E+02  0.60835068620E+01  0.54367144559E+02  0.40000137650E+02 0.  0.
        -12    1    3    3    0    0 -0.34816970497E+01 -0.36147532770E+02 -0.60835068620E+01  0.36820855441E+02  0.00000000000E+00 0.  1.
         11    1    4    4    0    0  0.32689758226E+01 -0.28834936856E+01 -0.39100401625E+01  0.58556940747E+01  0.51100000000E-03 0. -1.
        -11    1    4    4    0    0  0.10029873245E+02  0.28159503475E+02  0.14448174827E+02  0.33200990187E+02  0.51100000000E-03 0.  1.
         12    1    4    4    0    0 -0.98171520183E+01  0.10871522980E+02 -0.44546278023E+01  0.15310460297E+02  0.00000000000E+00 0. -1.
</event>
<event>
 8    1  0.1244838E-006  0.9118800E+02  0.7816164E-02  0.1184000E+00
        -11   -1    0    0    0    0  0.00000000000E+00  0.00000000000E+00  0.45593999997E+02  0.45594000000E+02  0.51100000000E-03 0. -1.
         11   -1    0    0    0    0 -0.00000000000E+00 -0.00000000000E+00 -0.45593999997E+02  0.45594000000E+02  0.51100000000E-03 0.  1.
         23    2    1    2    0    0  0.17763568394E-14  0.00000000000E+00  0.00000000000E+00  0.91188000000E+02  0.91188000000E+02 0.  0.
    9900012    2    3    3    0    0  0.78925684679E+01  0.42106490437E+01  0.35717749119E+02  0.54367084686E+02  0.40000001160E+02 0.  0.
        -12    1    3    3    0    0 -0.78925684679E+01 -0.42106490437E+01 -0.35717749119E+02  0.36820915314E+02  0.00000000000E+00 0.  1.
         11    1    4    4    0    0 -0.91947789831E+01  0.36001032346E+01  0.14669449431E+02  0.17683253397E+02  0.51100000000E-03 0. -1.
        -11    1    4    4    0    0 -0.22660639196E+01  0.86212303423E+01  0.81960698809E+01  0.12109344328E+02  0.51100000000E-03 0.  1.
        -12    1    4    4    0    0  0.19353411371E+02 -0.80106845332E+01  0.12852229808E+02  0.24574486961E+02  0.00000000000E+00 0.  1.
</event>
<event>
 8    1  0.1244838E-006  0.9118800E+02  0.7816164E-02  0.1184000E+00
        -11   -1    0    0    0    0  0.00000000000E+00  0.00000000000E+00  0.45593999997E+02  0.45594000000E+02  0.51100000000E-03 0. -1.
         11   -1    0    0    0    0 -0.00000000000E+00 -0.00000000000E+00 -0.45593999997E+02  0.45594000000E+02  0.51100000000E-03 0.  1.
         23    2    1    2    0    0  0.00000000000E+00 -0.44408920985E-15  0.00000000000E+00  0.91188000000E+02  0.91188000000E+02 0.  0.
    9900012    2    3    3    0    0  0.17780454863E+02 -0.34340679225E+01 -0.32059891210E+02  0.54367163209E+02  0.40000180167E+02 0.  0.
         12    1    3    3    0    0 -0.17780454863E+02  0.34340679225E+01  0.32059891210E+02  0.36820836791E+02  0.00000000000E+00 0. -1.
         11    1    4    4    0    0  0.10755212572E+02  0.56294948852E+01  0.52364294842E+01  0.13220665798E+02  0.51100000000E-03 0. -1.
        -11    1    4    4    0    0  0.93479906855E+01 -0.55652584481E+01 -0.34310472968E+02  0.35993965981E+02  0.51100000000E-03 0.  1.
         12    1    4    4    0    0 -0.23227483948E+01 -0.34983043596E+01 -0.29858477253E+01  0.51525314299E+01  0.00000000000E+00 0. -1.
</event>
<event>
 8    1  0.1244838E-006  0.9118800E+02  0.7816164E-02  0.1184000E+00
        -11   -1    0    0    0    0  0.00000000000E+00  0.00000000000E+00  0.45593999997E+02  0.45594000000E+02  0.51100000000E-03 0. -1.
         11   -1    0    0    0    0 -0.00000000000E+00 -0.00000000000E+00 -0.45593999997E+02  0.45594000000E+02  0.51100000000E-03 0.  1.
         23    2    1    2    0    0  0.00000000000E+00  0.35527136788E-14  0.00000000000E+00  0.91188000000E+02  0.91188000000E+02 0.  0.
    9900012    2    3    3    0    0  0.23552752109E+02  0.24250291879E+02 -0.14593359330E+02  0.54367150951E+02  0.40000152224E+02 0.  0.
         12    1    3    3    0    0 -0.23552752109E+02 -0.24250291879E+02  0.14593359330E+02  0.36820849049E+02  0.00000000000E+00 0. -1.
         11    1    4    4    0    0  0.30718554358E+01 -0.10835612373E+00 -0.67547529506E+00  0.31471104212E+01  0.51100000000E-03 0. -1.
        -11    1    4    4    0    0  0.20159393289E+02  0.28722231918E+02 -0.22431563791E+02  0.41647842663E+02  0.51100000000E-03 0.  1.
        -12    1    4    4    0    0  0.32150338404E+00 -0.43635839152E+01  0.85136797563E+01  0.95721978669E+01  0.00000000000E+00 0.  1.
</event>
<event>
 8    1  0.1244838E-006  0.9118800E+02  0.7816164E-02  0.1184000E+00
        -11   -1    0    0    0    0  0.00000000000E+00  0.00000000000E+00  0.45593999997E+02  0.45594000000E+02  0.51100000000E-03 0. -1.
         11   -1    0    0    0    0 -0.00000000000E+00 -0.00000000000E+00 -0.45593999997E+02  0.45594000000E+02  0.51100000000E-03 0.  1.
         23    2    1    2    0    0  0.00000000000E+00  0.00000000000E+00  0.00000000000E+00  0.91188000000E+02  0.91188000000E+02 0.  0.
    9900012    2    3    3    0    0  0.14712833976E+02  0.29558811831E+02 -0.16296880534E+02  0.54367093498E+02  0.40000021248E+02 0.  0.
         12    1    3    3    0    0 -0.14712833976E+02 -0.29558811831E+02  0.16296880534E+02  0.36820906502E+02  0.00000000000E+00 0. -1.
         11    1    4    4    0    0  0.15377563173E+02  0.57159732736E+01 -0.11105560880E+02  0.19810988928E+02  0.51100000000E-03 0. -1.
        -11    1    4    4    0    0  0.10163398399E+02  0.19189396619E+02 -0.65778728377E+01  0.22689116795E+02  0.51100000000E-03 0.  1.
         12    1    4    4    0    0 -0.10828127596E+02  0.46534419385E+01  0.13865531836E+01  0.11866987775E+02  0.00000000000E+00 0. -1.
</event>
<event>
 8    1  0.1244838E-006  0.9118800E+02  0.7816164E-02  0.1184000E+00
        -11   -1    0    0    0    0  0.00000000000E+00  0.00000000000E+00  0.45593999997E+02  0.45594000000E+02  0.51100000000E-03 0. -1.
         11   -1    0    0    0    0 -0.00000000000E+00 -0.00000000000E+00 -0.45593999997E+02  0.45594000000E+02  0.51100000000E-03 0.  1.
         23    2    1    2    0    0  0.88817841970E-15 -0.35527136788E-14  0.00000000000E+00  0.91188000000E+02  0.91188000000E+02 0.  0.
    9900012    2    3    3    0    0  0.62744322669E+01 -0.24679907295E+02 -0.26595353188E+02  0.54367093770E+02  0.40000021868E+02 0.  0.
         12    1    3    3    0    0 -0.62744322669E+01  0.24679907295E+02  0.26595353188E+02  0.36820906230E+02  0.00000000000E+00 0. -1.
         11    1    4    4    0    0 -0.33835008449E+01 -0.44125949601E+01 -0.91221053727E+01  0.10683252264E+02  0.51100000000E-03 0. -1.
        -11    1    4    4    0    0  0.37751601015E+00 -0.15886811986E+02 -0.25912459899E+02  0.30397185588E+02  0.51100000000E-03 0.  1.
         12    1    4    4    0    0  0.92804171017E+01 -0.43805003487E+01  0.84392120833E+01  0.13286655918E+02  0.00000000000E+00 0. -1.
</event>
<event>
 8    1  0.1244838E-006  0.9118800E+02  0.7816164E-02  0.1184000E+00
        -11   -1    0    0    0    0  0.00000000000E+00  0.00000000000E+00  0.45593999997E+02  0.45594000000E+02  0.51100000000E-03 0. -1.
         11   -1    0    0    0    0 -0.00000000000E+00 -0.00000000000E+00 -0.45593999997E+02  0.45594000000E+02  0.51100000000E-03 0.  1.
         23    2    1    2    0    0 -0.44408920985E-15  0.00000000000E+00  0.00000000000E+00  0.91188000000E+02  0.91188000000E+02 0.  0.
    9900012    2    3    3    0    0  0.20724737797E+01  0.97957814836E+01 -0.35433419702E+02  0.54367085913E+02  0.40000003955E+02 0.  0.
         12    1    3    3    0    0 -0.20724737797E+01 -0.97957814836E+01  0.35433419702E+02  0.36820914087E+02  0.00000000000E+00 0. -1.
         11    1    4    4    0    0  0.29421824405E+01  0.20045295539E+02 -0.47382624336E+01  0.20806764330E+02  0.51100000000E-03 0. -1.
        -11    1    4    4    0    0 -0.45988807729E+01 -0.38268138146E+01 -0.16278410072E+02  0.17343034425E+02  0.51100000000E-03 0.  1.
         12    1    4    4    0    0  0.37291721121E+01 -0.64227002405E+01 -0.14416747197E+02  0.16217287158E+02  0.00000000000E+00 0. -1.
</event>
<event>
 8    1  0.1244838E-006  0.9118800E+02  0.7816164E-02  0.1184000E+00
        -11   -1    0    0    0    0  0.00000000000E+00  0.00000000000E+00  0.45593999997E+02  0.45594000000E+02  0.51100000000E-03 0. -1.
         11   -1    0    0    0    0 -0.00000000000E+00 -0.00000000000E+00 -0.45593999997E+02  0.45594000000E+02  0.51100000000E-03 0.  1.
         23    2    1    2    0    0 -0.11102230246E-15  0.00000000000E+00  0.17763568394E-14  0.91188000000E+02  0.91188000000E+02 0.  0.
    9900012    2    3    3    0    0 -0.65088081247E+00  0.34421879865E+02  0.13057244698E+02  0.54367067117E+02  0.39999961107E+02 0.  0.
        -12    1    3    3    0    0  0.65088081247E+00 -0.34421879865E+02 -0.13057244698E+02  0.36820932883E+02  0.00000000000E+00 0.  1.
         11    1    4    4    0    0 -0.89226362350E+01  0.25784069855E+02  0.11395381005E+02  0.29568334484E+02  0.51100000000E-03 0. -1.
        -11    1    4    4    0    0  0.11579163588E+02  0.95259456287E+01  0.84388224146E+01  0.17205650047E+02  0.51100000000E-03 0.  1.
         12    1    4    4    0    0 -0.33074081654E+01 -0.88813561917E+00 -0.67769587212E+01  0.75930825861E+01  0.00000000000E+00 0. -1.
</event>
<event>
 8    1  0.1244838E-006  0.9118800E+02  0.7816164E-02  0.1184000E+00
        -11   -1    0    0    0    0  0.00000000000E+00  0.00000000000E+00  0.45593999997E+02  0.45594000000E+02  0.51100000000E-03 0.  1.
         11   -1    0    0    0    0 -0.00000000000E+00 -0.00000000000E+00 -0.45593999997E+02  0.45594000000E+02  0.51100000000E-03 0. -1.
         23    2    1    2    0    0  0.35527136788E-14 -0.35527136788E-14  0.35527136788E-14  0.91188000000E+02  0.91188000000E+02 0.  0.
    9900012    2    3    3    0    0 -0.21721419221E+02  0.22434058334E+02 -0.19510876348E+02  0.54367064078E+02  0.39999954179E+02 0.  0.
        -12    1    3    3    0    0  0.21721419221E+02 -0.22434058334E+02  0.19510876348E+02  0.36820935922E+02  0.00000000000E+00 0.  1.
         11    1    4    4    0    0  0.13059518230E+01 -0.46822535996E+01 -0.79810540431E+00  0.49260513022E+01  0.51100000000E-03 0.  1.
        -11    1    4    4    0    0  0.45401331255E+00  0.30428848724E+01  0.66452679080E+01  0.73228998535E+01  0.51100000000E-03 0. -1.
         12    1    4    4    0    0 -0.23481384356E+02  0.24073427061E+02 -0.25358038851E+02  0.42118112922E+02  0.00000000000E+00 0. -1.
</event>
<event>
 8    1  0.1244838E-006  0.9118800E+02  0.7816164E-02  0.1184000E+00
        -11   -1    0    0    0    0  0.00000000000E+00  0.00000000000E+00  0.45593999997E+02  0.45594000000E+02  0.51100000000E-03 0. -1.
         11   -1    0    0    0    0 -0.00000000000E+00 -0.00000000000E+00 -0.45593999997E+02  0.45594000000E+02  0.51100000000E-03 0.  1.
         23    2    1    2    0    0  0.00000000000E+00  0.17763568394E-14  0.00000000000E+00  0.91188000000E+02  0.91188000000E+02 0.  0.
    9900012    2    3    3    0    0 -0.31834916559E+02  0.11826873921E+02 -0.14228263397E+02  0.54367077437E+02  0.39999984634E+02 0.  0.
         12    1    3    3    0    0  0.31834916559E+02 -0.11826873921E+02  0.14228263397E+02  0.36820922563E+02  0.00000000000E+00 0. -1.
         11    1    4    4    0    0 -0.18790204246E+02  0.71800961154E+00 -0.24037993242E+02  0.30519050325E+02  0.51100000000E-03 0. -1.
        -11    1    4    4    0    0  0.21881166274E+01  0.47486294004E+01  0.22539366693E+01  0.56936426239E+01  0.51100000000E-03 0.  1.
         12    1    4    4    0    0 -0.15232828941E+02  0.63602349094E+01  0.75557931757E+01  0.18154384488E+02  0.00000000000E+00 0. -1.
</event>
<event>
 8    1  0.1244838E-006  0.9118800E+02  0.7816164E-02  0.1184000E+00
        -11   -1    0    0    0    0  0.00000000000E+00  0.00000000000E+00  0.45593999997E+02  0.45594000000E+02  0.51100000000E-03 0. -1.
         11   -1    0    0    0    0 -0.00000000000E+00 -0.00000000000E+00 -0.45593999997E+02  0.45594000000E+02  0.51100000000E-03 0.  1.
         23    2    1    2    0    0  0.13877787808E-15  0.00000000000E+00  0.88817841970E-15  0.91188000000E+02  0.91188000000E+02 0.  0.
    9900012    2    3    3    0    0  0.21789305641E+00 -0.36112872925E+02 -0.71828491292E+01  0.54367076738E+02  0.39999983040E+02 0.  0.
         12    1    3    3    0    0 -0.21789305641E+00  0.36112872925E+02  0.71828491292E+01  0.36820923262E+02  0.00000000000E+00 0. -1.
         11    1    4    4    0    0 -0.79769887231E+01 -0.79905637584E+01 -0.11605819477E+02  0.16191865373E+02  0.51100000000E-03 0. -1.
        -11    1    4    4    0    0  0.11468721056E+02 -0.82156570663E+01  0.99430462226E+01  0.17259569871E+02  0.51100000000E-03 0.  1.
        -12    1    4    4    0    0 -0.32738392765E+01 -0.19906652100E+02 -0.55200758749E+01  0.20915641494E+02  0.00000000000E+00 0.  1.
</event>
<event>
 8    1  0.1244838E-006  0.9118800E+02  0.7816164E-02  0.1184000E+00
        -11   -1    0    0    0    0  0.00000000000E+00  0.00000000000E+00  0.45593999997E+02  0.45594000000E+02  0.51100000000E-03 0.  1.
         11   -1    0    0    0    0 -0.00000000000E+00 -0.00000000000E+00 -0.45593999997E+02  0.45594000000E+02  0.51100000000E-03 0. -1.
         23    2    1    2    0    0  0.00000000000E+00  0.00000000000E+00  0.00000000000E+00  0.91188000000E+02  0.91188000000E+02 0.  0.
    9900012    2    3    3    0    0  0.34415631454E+02  0.84990744662E+01  0.99554334527E+01  0.54367073744E+02  0.39999976214E+02 0.  0.
         12    1    3    3    0    0 -0.34415631454E+02 -0.84990744662E+01 -0.99554334527E+01  0.36820926256E+02  0.00000000000E+00 0. -1.
         11    1    4    4    0    0  0.24643489142E+02  0.43823152253E+01 -0.51630614772E+01  0.25557062584E+02  0.51100000000E-03 0. -1.
        -11    1    4    4    0    0  0.66400462272E+01  0.13198666988E+02  0.76255353195E+01  0.16626599572E+02  0.51100000000E-03 0.  1.
         12    1    4    4    0    0  0.31320960843E+01 -0.90819077470E+01  0.74929596104E+01  0.12183411588E+02  0.00000000000E+00 0. -1.
</event>
<event>
 8    1  0.1244838E-006  0.9118800E+02  0.7816164E-02  0.1184000E+00
        -11   -1    0    0    0    0  0.00000000000E+00  0.00000000000E+00  0.45593999997E+02  0.45594000000E+02  0.51100000000E-03 0. -1.
         11   -1    0    0    0    0 -0.00000000000E+00 -0.00000000000E+00 -0.45593999997E+02  0.45594000000E+02  0.51100000000E-03 0.  1.
         23    2    1    2    0    0 -0.53290705182E-14 -0.35527136788E-14  0.00000000000E+00  0.91188000000E+02  0.91188000000E+02 0.  0.
    9900012    2    3    3    0    0  0.10920148414E+02  0.29365294784E+02 -0.19344471952E+02  0.54367098678E+02  0.40000033055E+02 0.  0.
         12    1    3    3    0    0 -0.10920148414E+02 -0.29365294784E+02  0.19344471952E+02  0.36820901322E+02  0.00000000000E+00 0. -1.
         11    1    4    4    0    0 -0.80325384864E+01  0.97851931291E+01  0.50868033757E+01  0.13643579001E+02  0.51100000000E-03 0. -1.
        -11    1    4    4    0    0  0.12074172852E+02  0.22119098159E+02 -0.19836272238E+02  0.32070513716E+02  0.51100000000E-03 0.  1.
         12    1    4    4    0    0  0.68785140485E+01 -0.25389965048E+01 -0.45950030892E+01  0.86530059607E+01  0.00000000000E+00 0. -1.
</event>
<event>
 8    1  0.1244838E-006  0.9118800E+02  0.7816164E-02  0.1184000E+00
        -11   -1    0    0    0    0  0.00000000000E+00  0.00000000000E+00  0.45593999997E+02  0.45594000000E+02  0.51100000000E-03 0.  1.
         11   -1    0    0    0    0 -0.00000000000E+00 -0.00000000000E+00 -0.45593999997E+02  0.45594000000E+02  0.51100000000E-03 0. -1.
         23    2    1    2    0    0  0.00000000000E+00  0.88817841970E-15 -0.35527136788E-14  0.91188000000E+02  0.91188000000E+02 0.  0.
    9900012    2    3    3    0    0  0.26463679718E+02  0.78881130289E+01  0.24356337661E+02  0.54367083993E+02  0.39999999578E+02 0.  0.
         12    1    3    3    0    0 -0.26463679718E+02 -0.78881130289E+01 -0.24356337661E+02  0.36820916007E+02  0.00000000000E+00 0. -1.
         11    1    4    4    0    0  0.20706242196E+02  0.40277505937E+01  0.38582984695E+01  0.21444293135E+02  0.51100000000E-03 0. -1.
        -11    1    4    4    0    0 -0.12922956160E+01 -0.68334821942E+01  0.18746707107E+02  0.19995137770E+02  0.51100000000E-03 0.  1.
         12    1    4    4    0    0  0.70497331380E+01  0.10693844629E+02  0.17513320847E+01  0.12927653087E+02  0.00000000000E+00 0. -1.
</event>
<event>
 8    1  0.1244838E-006  0.9118800E+02  0.7816164E-02  0.1184000E+00
        -11   -1    0    0    0    0  0.00000000000E+00  0.00000000000E+00  0.45593999997E+02  0.45594000000E+02  0.51100000000E-03 0. -1.
         11   -1    0    0    0    0 -0.00000000000E+00 -0.00000000000E+00 -0.45593999997E+02  0.45594000000E+02  0.51100000000E-03 0.  1.
         23    2    1    2    0    0  0.44408920985E-15  0.00000000000E+00  0.00000000000E+00  0.91188000000E+02  0.91188000000E+02 0.  0.
    9900012    2    3    3    0    0  0.15593288555E+01  0.18639114063E+02 -0.31716455976E+02  0.54367059501E+02  0.39999943745E+02 0.  0.
         12    1    3    3    0    0 -0.15593288555E+01 -0.18639114063E+02  0.31716455976E+02  0.36820940499E+02  0.00000000000E+00 0. -1.
         11    1    4    4    0    0 -0.27118242555E+01  0.76763218568E+01 -0.27240016506E+01  0.85848758462E+01  0.51100000000E-03 0. -1.
        -11    1    4    4    0    0 -0.68251358508E+01  0.83063911340E+01 -0.32185872799E+02  0.33933891925E+02  0.51100000000E-03 0.  1.
         12    1    4    4    0    0  0.11096288962E+02  0.26564010723E+01  0.31934184734E+01  0.11848291730E+02  0.00000000000E+00 0. -1.
</event>
<event>
 8    1  0.1244838E-006  0.9118800E+02  0.7816164E-02  0.1184000E+00
        -11   -1    0    0    0    0  0.00000000000E+00  0.00000000000E+00  0.45593999997E+02  0.45594000000E+02  0.51100000000E-03 0. -1.
         11   -1    0    0    0    0 -0.00000000000E+00 -0.00000000000E+00 -0.45593999997E+02  0.45594000000E+02  0.51100000000E-03 0.  1.
         23    2    1    2    0    0  0.00000000000E+00  0.44408920985E-15  0.88817841970E-15  0.91188000000E+02  0.91188000000E+02 0.  0.
    9900012    2    3    3    0    0 -0.36561690433E+02 -0.15557223447E+01 -0.40748236656E+01  0.54367059392E+02  0.39999943495E+02 0.  0.
         12    1    3    3    0    0  0.36561690433E+02  0.15557223447E+01  0.40748236656E+01  0.36820940608E+02  0.00000000000E+00 0. -1.
         11    1    4    4    0    0  0.22476217204E+01 -0.50594262877E+01  0.54378990895E+01  0.77601768361E+01  0.51100000000E-03 0. -1.
        -11    1    4    4    0    0 -0.39366638313E+02 -0.16078968422E+01 -0.49069978206E+01  0.39703855886E+02  0.51100000000E-03 0.  1.
        -12    1    4    4    0    0  0.55732615907E+00  0.51116007852E+01 -0.46057249345E+01  0.69030266700E+01  0.00000000000E+00 0.  1.
</event>
<event>
 8    1  0.1244838E-006  0.9118800E+02  0.7816164E-02  0.1184000E+00
        -11   -1    0    0    0    0  0.00000000000E+00  0.00000000000E+00  0.45593999997E+02  0.45594000000E+02  0.51100000000E-03 0.  1.
         11   -1    0    0    0    0 -0.00000000000E+00 -0.00000000000E+00 -0.45593999997E+02  0.45594000000E+02  0.51100000000E-03 0. -1.
         23    2    1    2    0    0  0.00000000000E+00  0.00000000000E+00  0.17763568394E-14  0.91188000000E+02  0.91188000000E+02 0.  0.
    9900012    2    3    3    0    0  0.16274459396E+02 -0.32172153559E+02 -0.74748573620E+01  0.54367095804E+02  0.40000026505E+02 0.  0.
        -12    1    3    3    0    0 -0.16274459396E+02  0.32172153559E+02  0.74748573620E+01  0.36820904196E+02  0.00000000000E+00 0.  1.
         11    1    4    4    0    0  0.84704185819E+00 -0.10474674558E+02 -0.88614809995E+01  0.13746349798E+02  0.51100000000E-03 0. -1.
        -11    1    4    4    0    0  0.21855843110E+01 -0.26157202530E+02  0.35299677291E+01  0.26484650185E+02  0.51100000000E-03 0.  1.
        -12    1    4    4    0    0  0.13241833226E+02  0.44597235301E+01 -0.21433440916E+01  0.14136095821E+02  0.00000000000E+00 0.  1.
</event>
<event>
 8    1  0.1244838E-006  0.9118800E+02  0.7816164E-02  0.1184000E+00
        -11   -1    0    0    0    0  0.00000000000E+00  0.00000000000E+00  0.45593999997E+02  0.45594000000E+02  0.51100000000E-03 0.  1.
         11   -1    0    0    0    0 -0.00000000000E+00 -0.00000000000E+00 -0.45593999997E+02  0.45594000000E+02  0.51100000000E-03 0. -1.
         23    2    1    2    0    0 -0.17763568394E-14  0.00000000000E+00  0.35527136788E-14  0.91188000000E+02  0.91188000000E+02 0.  0.
    9900012    2    3    3    0    0  0.84724411872E+01 -0.33433502879E+02  0.12891694957E+02  0.54367120417E+02  0.40000082615E+02 0.  0.
         12    1    3    3    0    0 -0.84724411872E+01  0.33433502879E+02 -0.12891694957E+02  0.36820879583E+02  0.00000000000E+00 0. -1.
         11    1    4    4    0    0  0.78309903491E+01  0.30876564972E+01 -0.45938807883E+00  0.84302473368E+01  0.51100000000E-03 0. -1.
        -11    1    4    4    0    0  0.86960130359E+01 -0.91769176628E+01 -0.31099935047E+01  0.13019543785E+02  0.51100000000E-03 0.  1.
        -12    1    4    4    0    0 -0.80545621977E+01 -0.27344241713E+02  0.16461076540E+02  0.32917329295E+02  0.00000000000E+00 0.  1.
</event>
<event>
 8    1  0.1244838E-006  0.9118800E+02  0.7816164E-02  0.1184000E+00
        -11   -1    0    0    0    0  0.00000000000E+00  0.00000000000E+00  0.45593999997E+02  0.45594000000E+02  0.51100000000E-03 0.  1.
         11   -1    0    0    0    0 -0.00000000000E+00 -0.00000000000E+00 -0.45593999997E+02  0.45594000000E+02  0.51100000000E-03 0. -1.
         23    2    1    2    0    0  0.44408920985E-15 -0.35527136788E-14  0.35527136788E-14  0.91188000000E+02  0.91188000000E+02 0.  0.
    9900012    2    3    3    0    0 -0.36110910269E+01 -0.23735423692E+02  0.27917184529E+02  0.54367088710E+02  0.40000010331E+02 0.  0.
         12    1    3    3    0    0  0.36110910269E+01  0.23735423692E+02 -0.27917184529E+02  0.36820911290E+02  0.00000000000E+00 0. -1.
         11    1    4    4    0    0 -0.14306096573E+01 -0.17376717806E+02  0.28958677876E+01  0.17674360419E+02  0.51100000000E-03 0.  1.
        -11    1    4    4    0    0  0.56669002726E+01 -0.10104878460E+02  0.25474508164E+02  0.27985226350E+02  0.51100000000E-03 0. -1.
        -12    1    4    4    0    0 -0.78473816421E+01  0.37461725738E+01 -0.45319142302E+00  0.87075019412E+01  0.00000000000E+00 0.  1.
</event>
<event>
 8    1  0.1244838E-006  0.9118800E+02  0.7816164E-02  0.1184000E+00
        -11   -1    0    0    0    0  0.00000000000E+00  0.00000000000E+00  0.45593999997E+02  0.45594000000E+02  0.51100000000E-03 0.  1.
         11   -1    0    0    0    0 -0.00000000000E+00 -0.00000000000E+00 -0.45593999997E+02  0.45594000000E+02  0.51100000000E-03 0. -1.
         23    2    1    2    0    0  0.00000000000E+00 -0.17763568394E-14  0.00000000000E+00  0.91188000000E+02  0.91188000000E+02 0.  0.
    9900012    2    3    3    0    0 -0.66012131637E+01 -0.13270128724E+02  0.33706219785E+02  0.54367060526E+02  0.39999946080E+02 0.  0.
         12    1    3    3    0    0  0.66012131637E+01  0.13270128724E+02 -0.33706219785E+02  0.36820939474E+02  0.00000000000E+00 0. -1.
         11    1    4    4    0    0 -0.14355656106E+01 -0.63090565256E+01 -0.42217531876E+01  0.77258166626E+01  0.51100000000E-03 0. -1.
        -11    1    4    4    0    0 -0.11770634902E+02  0.12257590678E+01  0.65048181335E+01  0.13504184185E+02  0.51100000000E-03 0.  1.
        -12    1    4    4    0    0  0.66049873490E+01 -0.81868312664E+01  0.31423154839E+02  0.33137059678E+02  0.00000000000E+00 0.  1.
</event>
<event>
 8    1  0.1244838E-006  0.9118800E+02  0.7816164E-02  0.1184000E+00
        -11   -1    0    0    0    0  0.00000000000E+00  0.00000000000E+00  0.45593999997E+02  0.45594000000E+02  0.51100000000E-03 0.  1.
         11   -1    0    0    0    0 -0.00000000000E+00 -0.00000000000E+00 -0.45593999997E+02  0.45594000000E+02  0.51100000000E-03 0. -1.
         23    2    1    2    0    0  0.35527136788E-14 -0.35527136788E-14  0.00000000000E+00  0.91188000000E+02  0.91188000000E+02 0.  0.
    9900012    2    3    3    0    0  0.27097790179E+02 -0.16638968685E+02  0.18564306805E+02  0.54367095630E+02  0.40000026107E+02 0.  0.
         12    1    3    3    0    0 -0.27097790179E+02  0.16638968685E+02 -0.18564306805E+02  0.36820904370E+02  0.00000000000E+00 0. -1.
         11    1    4    4    0    0  0.19909281977E+02  0.94261844219E+00  0.17839524810E+02  0.26749143614E+02  0.51100000000E-03 0.  1.
        -11    1    4    4    0    0  0.11432608576E+02 -0.58537154253E+01  0.58753626010E+01  0.14124107373E+02  0.51100000000E-03 0. -1.
         12    1    4    4    0    0 -0.42441003743E+01 -0.11727871702E+02 -0.51505806066E+01  0.13493844642E+02  0.00000000000E+00 0. -1.
</event>
<event>
 8    1  0.1244838E-006  0.9118800E+02  0.7816164E-02  0.1184000E+00
        -11   -1    0    0    0    0  0.00000000000E+00  0.00000000000E+00  0.45593999997E+02  0.45594000000E+02  0.51100000000E-03 0.  1.
         11   -1    0    0    0    0 -0.00000000000E+00 -0.00000000000E+00 -0.45593999997E+02  0.45594000000E+02  0.51100000000E-03 0. -1.
         23    2    1    2    0    0 -0.35527136788E-14 -0.35527136788E-14  0.00000000000E+00  0.91188000000E+02  0.91188000000E+02 0.  0.
    9900012    2    3    3    0    0  0.28463980895E+02 -0.21841400842E+02  0.82784985244E+01  0.54367101899E+02  0.40000040399E+02 0.  0.
        -12    1    3    3    0    0 -0.28463980895E+02  0.21841400842E+02 -0.82784985244E+01  0.36820898101E+02  0.00000000000E+00 0.  1.
         11    1    4    4    0    0  0.49485351072E+01  0.16659564527E+01  0.16877021196E+02  0.17666274518E+02  0.51100000000E-03 0. -1.
        -11    1    4    4    0    0 -0.59798114150E+00 -0.42635066486E+00  0.16312604905E+01  0.17889570660E+01  0.51100000000E-03 0.  1.
         12    1    4    4    0    0  0.24113426929E+02 -0.23081006630E+02 -0.10229783163E+02  0.34911870315E+02  0.00000000000E+00 0. -1.
</event>
<event>
 8    1  0.1244838E-006  0.9118800E+02  0.7816164E-02  0.1184000E+00
        -11   -1    0    0    0    0  0.00000000000E+00  0.00000000000E+00  0.45593999997E+02  0.45594000000E+02  0.51100000000E-03 0.  1.
         11   -1    0    0    0    0 -0.00000000000E+00 -0.00000000000E+00 -0.45593999997E+02  0.45594000000E+02  0.51100000000E-03 0. -1.
         23    2    1    2    0    0  0.00000000000E+00  0.00000000000E+00 -0.88817841970E-15  0.91188000000E+02  0.91188000000E+02 0.  0.
    9900012    2    3    3    0    0 -0.26705195325E+02 -0.24697092133E+02 -0.57153795664E+01  0.54367090441E+02  0.40000014279E+02 0.  0.
        -12    1    3    3    0    0  0.26705195325E+02  0.24697092133E+02  0.57153795664E+01  0.36820909559E+02  0.00000000000E+00 0.  1.
         11    1    4    4    0    0  0.95525592928E+00 -0.17267080364E+02 -0.74760190978E+00  0.17309635671E+02  0.51100000000E-03 0. -1.
        -11    1    4    4    0    0 -0.20877539918E+02  0.55967897161E+01 -0.56955609304E+01  0.22352519830E+02  0.51100000000E-03 0.  1.
        -12    1    4    4    0    0 -0.67829113354E+01 -0.13026801485E+02  0.72778327371E+00  0.14704934941E+02  0.00000000000E+00 0.  1.
</event>
<event>
 8    1  0.1244838E-006  0.9118800E+02  0.7816164E-02  0.1184000E+00
        -11   -1    0    0    0    0  0.00000000000E+00  0.00000000000E+00  0.45593999997E+02  0.45594000000E+02  0.51100000000E-03 0.  1.
         11   -1    0    0    0    0 -0.00000000000E+00 -0.00000000000E+00 -0.45593999997E+02  0.45594000000E+02  0.51100000000E-03 0. -1.
         23    2    1    2    0    0  0.35527136788E-14 -0.88817841970E-15  0.35527136788E-14  0.91188000000E+02  0.91188000000E+02 0.  0.
    9900012    2    3    3    0    0  0.18710256695E+02 -0.22977104766E+01 -0.31629526423E+02  0.54367080392E+02  0.39999991369E+02 0.  0.
        -12    1    3    3    0    0 -0.18710256695E+02  0.22977104766E+01  0.31629526423E+02  0.36820919608E+02  0.00000000000E+00 0.  1.
         11    1    4    4    0    0  0.51827683387E+01  0.26125950536E+01 -0.24246067103E+01  0.62901079902E+01  0.51100000000E-03 0. -1.
        -11    1    4    4    0    0  0.15629421947E+02  0.12550995926E+02 -0.19612165520E+02  0.28043597589E+02  0.51100000000E-03 0.  1.
         12    1    4    4    0    0 -0.21019335904E+01 -0.17461301456E+02 -0.95927541931E+01  0.20033374812E+02  0.00000000000E+00 0. -1.
</event>
<event>
 8    1  0.1244838E-006  0.9118800E+02  0.7816164E-02  0.1184000E+00
        -11   -1    0    0    0    0  0.00000000000E+00  0.00000000000E+00  0.45593999997E+02  0.45594000000E+02  0.51100000000E-03 0. -1.
         11   -1    0    0    0    0 -0.00000000000E+00 -0.00000000000E+00 -0.45593999997E+02  0.45594000000E+02  0.51100000000E-03 0.  1.
         23    2    1    2    0    0 -0.71054273576E-14  0.17763568394E-14  0.00000000000E+00  0.91188000000E+02  0.91188000000E+02 0.  0.
    9900012    2    3    3    0    0 -0.28236454679E+02 -0.76508365569E+01  0.22359504766E+02  0.54367080318E+02  0.39999991200E+02 0.  0.
        -12    1    3    3    0    0  0.28236454679E+02  0.76508365569E+01 -0.22359504766E+02  0.36820919682E+02  0.00000000000E+00 0.  1.
         11    1    4    4    0    0 -0.54440922117E+01 -0.13182216427E+02  0.75586044333E+01  0.16141297073E+02  0.51100000000E-03 0. -1.
        -11    1    4    4    0    0 -0.52349240010E+01 -0.10330390103E+02  0.46910782706E+01  0.12495103224E+02  0.51100000000E-03 0.  1.
        -12    1    4    4    0    0 -0.17557438467E+02  0.15861769974E+02  0.10109822062E+02  0.25730680021E+02  0.00000000000E+00 0.  1.
</event>
<event>
 8    1  0.1244838E-006  0.9118800E+02  0.7816164E-02  0.1184000E+00
        -11   -1    0    0    0    0  0.00000000000E+00  0.00000000000E+00  0.45593999997E+02  0.45594000000E+02  0.51100000000E-03 0. -1.
         11   -1    0    0    0    0 -0.00000000000E+00 -0.00000000000E+00 -0.45593999997E+02  0.45594000000E+02  0.51100000000E-03 0.  1.
         23    2    1    2    0    0  0.35527136788E-14  0.00000000000E+00  0.71054273576E-14  0.91188000000E+02  0.91188000000E+02 0.  0.
    9900012    2    3    3    0    0  0.12823272507E+02 -0.82029496025E+01  0.33526911452E+02  0.54367102517E+02  0.40000041807E+02 0.  0.
        -12    1    3    3    0    0 -0.12823272507E+02  0.82029496025E+01 -0.33526911452E+02  0.36820897483E+02  0.00000000000E+00 0.  1.
         11    1    4    4    0    0  0.88596957574E+01  0.28545421888E+00  0.40374970076E+01  0.97404864032E+01  0.51100000000E-03 0. -1.
        -11    1    4    4    0    0 -0.29245831589E+00  0.11585535310E+02  0.48545515852E+01  0.12564904761E+02  0.51100000000E-03 0.  1.
        -12    1    4    4    0    0  0.42560350653E+01 -0.20073939132E+02  0.24634862859E+02  0.32061711352E+02  0.00000000000E+00 0.  1.
</event>
<event>
 8    1  0.1244838E-006  0.9118800E+02  0.7816164E-02  0.1184000E+00
        -11   -1    0    0    0    0  0.00000000000E+00  0.00000000000E+00  0.45593999997E+02  0.45594000000E+02  0.51100000000E-03 0.  1.
         11   -1    0    0    0    0 -0.00000000000E+00 -0.00000000000E+00 -0.45593999997E+02  0.45594000000E+02  0.51100000000E-03 0. -1.
         23    2    1    2    0    0  0.00000000000E+00 -0.35527136788E-14  0.00000000000E+00  0.91188000000E+02  0.91188000000E+02 0.  0.
    9900012    2    3    3    0    0 -0.60546799617E+01 -0.26673142897E+02  0.24650833983E+02  0.54367091300E+02  0.40000016236E+02 0.  0.
         12    1    3    3    0    0  0.60546799617E+01  0.26673142897E+02 -0.24650833983E+02  0.36820908700E+02  0.00000000000E+00 0. -1.
         11    1    4    4    0    0 -0.37030893454E+01 -0.89876685957E+01 -0.28948129588E+01  0.10142534191E+02  0.51100000000E-03 0. -1.
        -11    1    4    4    0    0 -0.71821842072E+01 -0.15160794929E+02  0.65679388718E+00  0.16788831149E+02  0.51100000000E-03 0.  1.
        -12    1    4    4    0    0  0.48305935910E+01 -0.25246793724E+01  0.26888853055E+02  0.27435725960E+02  0.00000000000E+00 0.  1.
</event>
<event>
 8    1  0.1244838E-006  0.9118800E+02  0.7816164E-02  0.1184000E+00
        -11   -1    0    0    0    0  0.00000000000E+00  0.00000000000E+00  0.45593999997E+02  0.45594000000E+02  0.51100000000E-03 0. -1.
         11   -1    0    0    0    0 -0.00000000000E+00 -0.00000000000E+00 -0.45593999997E+02  0.45594000000E+02  0.51100000000E-03 0.  1.
         23    2    1    2    0    0  0.00000000000E+00  0.35527136788E-14  0.35527136788E-14  0.91188000000E+02  0.91188000000E+02 0.  0.
    9900012    2    3    3    0    0  0.93712317950E+01  0.30052561069E+02  0.19100148243E+02  0.54366918062E+02  0.39999621305E+02 0.  0.
        -12    1    3    3    0    0 -0.93712317950E+01 -0.30052561069E+02 -0.19100148243E+02  0.36821081938E+02  0.00000000000E+00 0.  1.
         11    1    4    4    0    0  0.82323814702E+01  0.20646579693E+02  0.23849161115E+02  0.32601163228E+02  0.51100000000E-03 0. -1.
        -11    1    4    4    0    0 -0.41977915321E+01 -0.38726686046E+01 -0.47911059298E+01  0.74547778075E+01  0.51100000000E-03 0.  1.
         12    1    4    4    0    0  0.53366418569E+01  0.13278649981E+02  0.42093057672E-01  0.14310977027E+02  0.00000000000E+00 0. -1.
</event>
<event>
 8    1  0.1244838E-006  0.9118800E+02  0.7816164E-02  0.1184000E+00
        -11   -1    0    0    0    0  0.00000000000E+00  0.00000000000E+00  0.45593999997E+02  0.45594000000E+02  0.51100000000E-03 0.  1.
         11   -1    0    0    0    0 -0.00000000000E+00 -0.00000000000E+00 -0.45593999997E+02  0.45594000000E+02  0.51100000000E-03 0. -1.
         23    2    1    2    0    0  0.00000000000E+00  0.00000000000E+00  0.00000000000E+00  0.91188000000E+02  0.91188000000E+02 0.  0.
    9900012    2    3    3    0    0  0.19188966392E+02  0.84607252868E+01  0.30265159396E+02  0.54367079630E+02  0.39999989634E+02 0.  0.
         12    1    3    3    0    0 -0.19188966392E+02 -0.84607252868E+01 -0.30265159396E+02  0.36820920370E+02  0.00000000000E+00 0. -1.
         11    1    4    4    0    0  0.17580790231E+02  0.37164991693E+01 -0.88194927611E+00  0.17990952893E+02  0.51100000000E-03 0. -1.
        -11    1    4    4    0    0  0.93691512042E+01  0.55375657745E+01  0.20014139457E+02  0.22781821864E+02  0.51100000000E-03 0.  1.
         12    1    4    4    0    0 -0.77609750429E+01 -0.79333965702E+00  0.11132969216E+02  0.13594304873E+02  0.00000000000E+00 0. -1.
</event>
<event>
 8    1  0.1244838E-006  0.9118800E+02  0.7816164E-02  0.1184000E+00
        -11   -1    0    0    0    0  0.00000000000E+00  0.00000000000E+00  0.45593999997E+02  0.45594000000E+02  0.51100000000E-03 0.  1.
         11   -1    0    0    0    0 -0.00000000000E+00 -0.00000000000E+00 -0.45593999997E+02  0.45594000000E+02  0.51100000000E-03 0. -1.
         23    2    1    2    0    0  0.00000000000E+00 -0.35527136788E-14 -0.35527136788E-14  0.91188000000E+02  0.91188000000E+02 0.  0.
    9900012    2    3    3    0    0  0.14637860070E+02  0.26653560905E+02  0.20762986550E+02  0.54367070261E+02  0.39999968274E+02 0.  0.
         12    1    3    3    0    0 -0.14637860070E+02 -0.26653560905E+02 -0.20762986550E+02  0.36820929739E+02  0.00000000000E+00 0. -1.
         11    1    4    4    0    0 -0.27806820689E+01 -0.18938940369E+01  0.12390269493E+02  0.12838917624E+02  0.51100000000E-03 0. -1.
        -11    1    4    4    0    0  0.17415379569E+02  0.65029305071E+01  0.47593964205E+01  0.19189460786E+02  0.51100000000E-03 0.  1.
         12    1    4    4    0    0  0.31625702142E-02  0.22044524435E+02  0.36133206369E+01  0.22338691850E+02  0.00000000000E+00 0. -1.
</event>
<event>
 8    1  0.1244838E-006  0.9118800E+02  0.7816164E-02  0.1184000E+00
        -11   -1    0    0    0    0  0.00000000000E+00  0.00000000000E+00  0.45593999997E+02  0.45594000000E+02  0.51100000000E-03 0. -1.
         11   -1    0    0    0    0 -0.00000000000E+00 -0.00000000000E+00 -0.45593999997E+02  0.45594000000E+02  0.51100000000E-03 0.  1.
         23    2    1    2    0    0  0.00000000000E+00  0.00000000000E+00  0.17763568394E-14  0.91188000000E+02  0.91188000000E+02 0.  0.
    9900012    2    3    3    0    0  0.12125918755E+02  0.32683923410E+02 -0.11853415479E+02  0.54367079131E+02  0.39999988496E+02 0.  0.
         12    1    3    3    0    0 -0.12125918755E+02 -0.32683923410E+02  0.11853415479E+02  0.36820920869E+02  0.00000000000E+00 0. -1.
         11    1    4    4    0    0 -0.54371943281E+01  0.38603953926E+01 -0.88868438504E+01  0.11110433323E+02  0.51100000000E-03 0. -1.
        -11    1    4    4    0    0  0.12775357598E+02  0.20314777079E+01 -0.85063755525E+01  0.15482089288E+02  0.51100000000E-03 0.  1.
        -12    1    4    4    0    0  0.47877554849E+01  0.26792050309E+02  0.55398039239E+01  0.27774556520E+02  0.00000000000E+00 0.  1.
</event>
<event>
 8    1  0.1244838E-006  0.9118800E+02  0.7816164E-02  0.1184000E+00
        -11   -1    0    0    0    0  0.00000000000E+00  0.00000000000E+00  0.45593999997E+02  0.45594000000E+02  0.51100000000E-03 0. -1.
         11   -1    0    0    0    0 -0.00000000000E+00 -0.00000000000E+00 -0.45593999997E+02  0.45594000000E+02  0.51100000000E-03 0.  1.
         23    2    1    2    0    0  0.00000000000E+00  0.00000000000E+00  0.35527136788E-14  0.91188000000E+02  0.91188000000E+02 0.  0.
    9900012    2    3    3    0    0 -0.23502808405E+02  0.94761543254E+00 -0.28328364786E+02  0.54367133234E+02  0.40000111833E+02 0.  0.
         12    1    3    3    0    0  0.23502808405E+02 -0.94761543254E+00  0.28328364786E+02  0.36820866766E+02  0.00000000000E+00 0. -1.
         11    1    4    4    0    0 -0.18439763267E+02  0.47250251621E-01 -0.15068124585E+02  0.23813346692E+02  0.51100000000E-03 0.  1.
        -11    1    4    4    0    0 -0.14807187558E+02 -0.54773483893E+01 -0.88636174754E+01  0.18105741182E+02  0.51100000000E-03 0. -1.
         12    1    4    4    0    0  0.97441424194E+01  0.63777135702E+01 -0.43966227264E+01  0.12448045359E+02  0.00000000000E+00 0. -1.
</event>
<event>
 8    1  0.1244838E-006  0.9118800E+02  0.7816164E-02  0.1184000E+00
        -11   -1    0    0    0    0  0.00000000000E+00  0.00000000000E+00  0.45593999997E+02  0.45594000000E+02  0.51100000000E-03 0.  1.
         11   -1    0    0    0    0 -0.00000000000E+00 -0.00000000000E+00 -0.45593999997E+02  0.45594000000E+02  0.51100000000E-03 0. -1.
         23    2    1    2    0    0  0.35527136788E-14  0.35527136788E-14  0.88817841970E-15  0.91188000000E+02  0.91188000000E+02 0.  0.
    9900012    2    3    3    0    0 -0.20868700931E+02 -0.29575906272E+02  0.67484929561E+01  0.54367094694E+02  0.40000023974E+02 0.  0.
        -12    1    3    3    0    0  0.20868700931E+02  0.29575906272E+02 -0.67484929561E+01  0.36820905306E+02  0.00000000000E+00 0.  1.
         11    1    4    4    0    0 -0.12789764529E+02 -0.23674714262E+02  0.35344006511E+01  0.27139678707E+02  0.51100000000E-03 0. -1.
        -11    1    4    4    0    0  0.72451198043E+01 -0.77324159994E+01 -0.22923011206E+01  0.10841432694E+02  0.51100000000E-03 0.  1.
        -12    1    4    4    0    0 -0.15324056207E+02  0.18312239892E+01  0.55063934256E+01  0.16385983293E+02  0.00000000000E+00 0.  1.
</event>
<event>
 8    1  0.1244838E-006  0.9118800E+02  0.7816164E-02  0.1184000E+00
        -11   -1    0    0    0    0  0.00000000000E+00  0.00000000000E+00  0.45593999997E+02  0.45594000000E+02  0.51100000000E-03 0. -1.
         11   -1    0    0    0    0 -0.00000000000E+00 -0.00000000000E+00 -0.45593999997E+02  0.45594000000E+02  0.51100000000E-03 0.  1.
         23    2    1    2    0    0  0.00000000000E+00  0.17763568394E-14  0.00000000000E+00  0.91188000000E+02  0.91188000000E+02 0.  0.
    9900012    2    3    3    0    0  0.20578887000E+02  0.15965893239E+02  0.26026556141E+02  0.54367055394E+02  0.39999934382E+02 0.  0.
        -12    1    3    3    0    0 -0.20578887000E+02 -0.15965893239E+02 -0.26026556141E+02  0.36820944606E+02  0.00000000000E+00 0.  1.
         11    1    4    4    0    0  0.11438086894E+02  0.83480105727E+01  0.16539873857E+02  0.21773528419E+02  0.51100000000E-03 0. -1.
        -11    1    4    4    0    0  0.15050372434E+02  0.76882921175E+00 -0.46843976047E+01  0.15781267058E+02  0.51100000000E-03 0.  1.
        -12    1    4    4    0    0 -0.59095723285E+01  0.68490534549E+01  0.14171079889E+02  0.16812259918E+02  0.00000000000E+00 0.  1.
</event>
<event>
 8    1  0.1244838E-006  0.9118800E+02  0.7816164E-02  0.1184000E+00
        -11   -1    0    0    0    0  0.00000000000E+00  0.00000000000E+00  0.45593999997E+02  0.45594000000E+02  0.51100000000E-03 0.  1.
         11   -1    0    0    0    0 -0.00000000000E+00 -0.00000000000E+00 -0.45593999997E+02  0.45594000000E+02  0.51100000000E-03 0. -1.
         23    2    1    2    0    0  0.35527136788E-14  0.35527136788E-14  0.00000000000E+00  0.91188000000E+02  0.91188000000E+02 0.  0.
    9900012    2    3    3    0    0  0.19727431849E+02 -0.16730740300E+02 -0.26204754359E+02  0.54367103904E+02  0.40000044969E+02 0.  0.
        -12    1    3    3    0    0 -0.19727431849E+02  0.16730740300E+02  0.26204754359E+02  0.36820896096E+02  0.00000000000E+00 0.  1.
         11    1    4    4    0    0  0.23833951463E+01 -0.70284252274E+01 -0.19199318532E+01  0.76658640859E+01  0.51100000000E-03 0. -1.
        -11    1    4    4    0    0 -0.97607336784E+01 -0.45572547696E+01 -0.14126591173E+01  0.10864441956E+02  0.51100000000E-03 0.  1.
        -12    1    4    4    0    0  0.27104770381E+02 -0.51450603033E+01 -0.22872163388E+02  0.35836797862E+02  0.00000000000E+00 0.  1.
</event>
<event>
 8    1  0.1244838E-006  0.9118800E+02  0.7816164E-02  0.1184000E+00
        -11   -1    0    0    0    0  0.00000000000E+00  0.00000000000E+00  0.45593999997E+02  0.45594000000E+02  0.51100000000E-03 0.  1.
         11   -1    0    0    0    0 -0.00000000000E+00 -0.00000000000E+00 -0.45593999997E+02  0.45594000000E+02  0.51100000000E-03 0. -1.
         23    2    1    2    0    0 -0.35527136788E-14  0.88817841970E-15  0.00000000000E+00  0.91188000000E+02  0.91188000000E+02 0.  0.
    9900012    2    3    3    0    0  0.16210652008E+02 -0.58859747484E+01  0.32532296178E+02  0.54367078883E+02  0.39999987930E+02 0.  0.
         12    1    3    3    0    0 -0.16210652008E+02  0.58859747484E+01 -0.32532296178E+02  0.36820921117E+02  0.00000000000E+00 0. -1.
         11    1    4    4    0    0  0.26045093874E+01 -0.55120614677E+01  0.10332297437E+02  0.11996777124E+02  0.51100000000E-03 0. -1.
        -11    1    4    4    0    0  0.66871441225E+01 -0.13430224602E+02  0.23124549515E+02  0.27565079719E+02  0.51100000000E-03 0.  1.
        -12    1    4    4    0    0  0.69189984982E+01  0.13056311321E+02 -0.92455077364E+00  0.14805222041E+02  0.00000000000E+00 0.  1.
</event>
<event>
 8    1  0.1244838E-006  0.9118800E+02  0.7816164E-02  0.1184000E+00
        -11   -1    0    0    0    0  0.00000000000E+00  0.00000000000E+00  0.45593999997E+02  0.45594000000E+02  0.51100000000E-03 0.  1.
         11   -1    0    0    0    0 -0.00000000000E+00 -0.00000000000E+00 -0.45593999997E+02  0.45594000000E+02  0.51100000000E-03 0. -1.
         23    2    1    2    0    0  0.00000000000E+00  0.00000000000E+00  0.88817841970E-15  0.91188000000E+02  0.91188000000E+02 0.  0.
    9900012    2    3    3    0    0 -0.24893757641E+01 -0.36318813359E+02  0.55249931868E+01  0.54367099071E+02  0.40000033952E+02 0.  0.
         12    1    3    3    0    0  0.24893757641E+01  0.36318813359E+02 -0.55249931868E+01  0.36820900929E+02  0.00000000000E+00 0. -1.
         11    1    4    4    0    0 -0.75802697720E+01  0.13024552149E+00 -0.10116046069E+02  0.12641670857E+02  0.51100000000E-03 0. -1.
        -11    1    4    4    0    0  0.39288417335E+01 -0.33614188876E+02  0.17542643179E+02  0.38119467745E+02  0.51100000000E-03 0.  1.
        -12    1    4    4    0    0  0.11620522743E+01 -0.28348700042E+01 -0.19016039224E+01  0.36059604694E+01  0.00000000000E+00 0.  1.
</event>
<event>
 8    1  0.1244838E-006  0.9118800E+02  0.7816164E-02  0.1184000E+00
        -11   -1    0    0    0    0  0.00000000000E+00  0.00000000000E+00  0.45593999997E+02  0.45594000000E+02  0.51100000000E-03 0.  1.
         11   -1    0    0    0    0 -0.00000000000E+00 -0.00000000000E+00 -0.45593999997E+02  0.45594000000E+02  0.51100000000E-03 0. -1.
         23    2    1    2    0    0  0.00000000000E+00  0.00000000000E+00  0.00000000000E+00  0.91188000000E+02  0.91188000000E+02 0.  0.
    9900012    2    3    3    0    0  0.30029695158E+02  0.17264342530E+02  0.12487575226E+02  0.54367086794E+02  0.40000005964E+02 0.  0.
         12    1    3    3    0    0 -0.30029695158E+02 -0.17264342530E+02 -0.12487575226E+02  0.36820913206E+02  0.00000000000E+00 0. -1.
         11    1    4    4    0    0 -0.15266162602E+01  0.17276557215E+02  0.72477887192E+01  0.18797351622E+02  0.51100000000E-03 0. -1.
        -11    1    4    4    0    0  0.19949200511E+02 -0.44778144934E+01  0.93356585622E+01  0.22476119432E+02  0.51100000000E-03 0.  1.
         12    1    4    4    0    0  0.11607110908E+02  0.44655998083E+01 -0.40958720551E+01  0.13093615740E+02  0.00000000000E+00 0. -1.
</event>
<event>
 8    1  0.1244838E-006  0.9118800E+02  0.7816164E-02  0.1184000E+00
        -11   -1    0    0    0    0  0.00000000000E+00  0.00000000000E+00  0.45593999997E+02  0.45594000000E+02  0.51100000000E-03 0.  1.
         11   -1    0    0    0    0 -0.00000000000E+00 -0.00000000000E+00 -0.45593999997E+02  0.45594000000E+02  0.51100000000E-03 0. -1.
         23    2    1    2    0    0  0.00000000000E+00  0.00000000000E+00 -0.35527136788E-14  0.91188000000E+02  0.91188000000E+02 0.  0.
    9900012    2    3    3    0    0 -0.23843306955E+02  0.57908736608E+01  0.27454376747E+02  0.54367077865E+02  0.39999985608E+02 0.  0.
         12    1    3    3    0    0  0.23843306955E+02 -0.57908736608E+01 -0.27454376747E+02  0.36820922135E+02  0.00000000000E+00 0. -1.
         11    1    4    4    0    0 -0.79367074503E+01 -0.11963071114E+02  0.74769428968E+01  0.16186756036E+02  0.51100000000E-03 0. -1.
        -11    1    4    4    0    0  0.35943553330E+00  0.50719904043E+01  0.16497369310E+02  0.17263182643E+02  0.51100000000E-03 0.  1.
        -12    1    4    4    0    0 -0.16266035038E+02  0.12681954370E+02  0.34800645403E+01  0.20917139186E+02  0.00000000000E+00 0.  1.
</event>
<event>
 8    1  0.1244838E-006  0.9118800E+02  0.7816164E-02  0.1184000E+00
        -11   -1    0    0    0    0  0.00000000000E+00  0.00000000000E+00  0.45593999997E+02  0.45594000000E+02  0.51100000000E-03 0. -1.
         11   -1    0    0    0    0 -0.00000000000E+00 -0.00000000000E+00 -0.45593999997E+02  0.45594000000E+02  0.51100000000E-03 0.  1.
         23    2    1    2    0    0  0.00000000000E+00  0.00000000000E+00  0.00000000000E+00  0.91188000000E+02  0.91188000000E+02 0.  0.
    9900012    2    3    3    0    0 -0.76566996295E+01  0.28382179660E+02 -0.22172191909E+02  0.54367092006E+02  0.40000017846E+02 0.  0.
         12    1    3    3    0    0  0.76566996295E+01 -0.28382179660E+02  0.22172191909E+02  0.36820907994E+02  0.00000000000E+00 0. -1.
         11    1    4    4    0    0  0.12008341520E+02  0.53118906259E+01 -0.75929024186E+01  0.15168012905E+02  0.51100000000E-03 0. -1.
        -11    1    4    4    0    0 -0.18345756848E+02  0.76288303113E+01 -0.35648042535E+01  0.20185977209E+02  0.51100000000E-03 0.  1.
         12    1    4    4    0    0 -0.13192843012E+01  0.15441458723E+02 -0.11014485236E+02  0.19013101893E+02  0.00000000000E+00 0. -1.
</event>
<event>
 8    1  0.1244838E-006  0.9118800E+02  0.7816164E-02  0.1184000E+00
        -11   -1    0    0    0    0  0.00000000000E+00  0.00000000000E+00  0.45593999997E+02  0.45594000000E+02  0.51100000000E-03 0.  1.
         11   -1    0    0    0    0 -0.00000000000E+00 -0.00000000000E+00 -0.45593999997E+02  0.45594000000E+02  0.51100000000E-03 0. -1.
         23    2    1    2    0    0  0.71054273576E-14  0.00000000000E+00  0.00000000000E+00  0.91188000000E+02  0.91188000000E+02 0.  0.
    9900012    2    3    3    0    0 -0.33950325162E+02 -0.93109843157E+01  0.10791694209E+02  0.54367086494E+02  0.40000005280E+02 0.  0.
        -12    1    3    3    0    0  0.33950325162E+02  0.93109843157E+01 -0.10791694209E+02  0.36820913506E+02  0.00000000000E+00 0.  1.
         11    1    4    4    0    0 -0.53897944094E+01 -0.11834900328E+02  0.23921291691E+01  0.13222595501E+02  0.51100000000E-03 0. -1.
        -11    1    4    4    0    0 -0.15175029146E+00 -0.48319074357E+01  0.10667047593E+02  0.11711373200E+02  0.51100000000E-03 0.  1.
         12    1    4    4    0    0 -0.28408780461E+02  0.73558234481E+01 -0.22674825534E+01  0.29433117793E+02  0.00000000000E+00 0. -1.
</event>
<event>
 8    1  0.1244838E-006  0.9118800E+02  0.7816164E-02  0.1184000E+00
        -11   -1    0    0    0    0  0.00000000000E+00  0.00000000000E+00  0.45593999997E+02  0.45594000000E+02  0.51100000000E-03 0. -1.
         11   -1    0    0    0    0 -0.00000000000E+00 -0.00000000000E+00 -0.45593999997E+02  0.45594000000E+02  0.51100000000E-03 0.  1.
         23    2    1    2    0    0 -0.71054273576E-14  0.00000000000E+00  0.00000000000E+00  0.91188000000E+02  0.91188000000E+02 0.  0.
    9900012    2    3    3    0    0  0.33026224023E+02  0.87683712884E+01  0.13717243363E+02  0.54367101400E+02  0.40000039260E+02 0.  0.
        -12    1    3    3    0    0 -0.33026224023E+02 -0.87683712884E+01 -0.13717243363E+02  0.36820898600E+02  0.00000000000E+00 0.  1.
         11    1    4    4    0    0  0.51176687427E+01 -0.74273116961E+01  0.10352733946E+02  0.13730789956E+02  0.51100000000E-03 0. -1.
        -11    1    4    4    0    0  0.12863367602E+02  0.15572400123E+02  0.11783873767E+02  0.23384301420E+02  0.51100000000E-03 0.  1.
        -12    1    4    4    0    0  0.15045187679E+02  0.62328286132E+00 -0.84193643507E+01  0.17252010024E+02  0.00000000000E+00 0.  1.
</event>
<event>
 8    1  0.1244838E-006  0.9118800E+02  0.7816164E-02  0.1184000E+00
        -11   -1    0    0    0    0  0.00000000000E+00  0.00000000000E+00  0.45593999997E+02  0.45594000000E+02  0.51100000000E-03 0. -1.
         11   -1    0    0    0    0 -0.00000000000E+00 -0.00000000000E+00 -0.45593999997E+02  0.45594000000E+02  0.51100000000E-03 0.  1.
         23    2    1    2    0    0 -0.35527136788E-14  0.00000000000E+00  0.35527136788E-14  0.91188000000E+02  0.91188000000E+02 0.  0.
    9900012    2    3    3    0    0  0.26951040464E+02 -0.19340966882E+02  0.15979591454E+02  0.54367096629E+02  0.40000028384E+02 0.  0.
        -12    1    3    3    0    0 -0.26951040464E+02  0.19340966882E+02 -0.15979591454E+02  0.36820903371E+02  0.00000000000E+00 0.  1.
         11    1    4    4    0    0  0.13754513249E+02 -0.66200909661E+01 -0.11442782473E+02  0.19077460788E+02  0.51100000000E-03 0. -1.
        -11    1    4    4    0    0  0.31401971262E+01  0.22089334695E+01  0.26388216995E+01  0.46587128358E+01  0.51100000000E-03 0.  1.
         12    1    4    4    0    0  0.10056330089E+02 -0.14929809386E+02  0.24783552227E+02  0.30630923005E+02  0.00000000000E+00 0. -1.
</event>
<event>
 8    1  0.1244838E-006  0.9118800E+02  0.7816164E-02  0.1184000E+00
        -11   -1    0    0    0    0  0.00000000000E+00  0.00000000000E+00  0.45593999997E+02  0.45594000000E+02  0.51100000000E-03 0. -1.
         11   -1    0    0    0    0 -0.00000000000E+00 -0.00000000000E+00 -0.45593999997E+02  0.45594000000E+02  0.51100000000E-03 0.  1.
         23    2    1    2    0    0  0.00000000000E+00  0.00000000000E+00 -0.17763568394E-14  0.91188000000E+02  0.91188000000E+02 0.  0.
    9900012    2    3    3    0    0 -0.31663690524E+02 -0.12742917685E+02  0.13813351955E+02  0.54367082834E+02  0.39999996936E+02 0.  0.
        -12    1    3    3    0    0  0.31663690524E+02  0.12742917685E+02 -0.13813351955E+02  0.36820917166E+02  0.00000000000E+00 0.  1.
         11    1    4    4    0    0 -0.21186461949E+02 -0.14689128266E+02  0.46301464672E+01  0.26193031816E+02  0.51100000000E-03 0. -1.
        -11    1    4    4    0    0 -0.11990661515E+02  0.92829918467E+01  0.12810416387E+02  0.19850860673E+02  0.51100000000E-03 0.  1.
         12    1    4    4    0    0  0.15134329397E+01 -0.73367812664E+01 -0.36272108991E+01  0.83231903450E+01  0.00000000000E+00 0. -1.
</event>
<event>
 8    1  0.1244838E-006  0.9118800E+02  0.7816164E-02  0.1184000E+00
        -11   -1    0    0    0    0  0.00000000000E+00  0.00000000000E+00  0.45593999997E+02  0.45594000000E+02  0.51100000000E-03 0.  1.
         11   -1    0    0    0    0 -0.00000000000E+00 -0.00000000000E+00 -0.45593999997E+02  0.45594000000E+02  0.51100000000E-03 0. -1.
         23    2    1    2    0    0  0.00000000000E+00  0.00000000000E+00  0.88817841970E-15  0.91188000000E+02  0.91188000000E+02 0.  0.
    9900012    2    3    3    0    0 -0.20380216668E+02  0.29691980578E+02 -0.76689344939E+01  0.54367088844E+02  0.40000010639E+02 0.  0.
        -12    1    3    3    0    0  0.20380216668E+02 -0.29691980578E+02  0.76689344939E+01  0.36820911156E+02  0.00000000000E+00 0.  1.
         11    1    4    4    0    0 -0.46947908726E+01  0.23309147293E+02  0.40597159938E+01  0.24121332945E+02  0.51100000000E-03 0. -1.
        -11    1    4    4    0    0 -0.86125899228E+01  0.15188062738E+01  0.59607337146E+01  0.10583658363E+02  0.51100000000E-03 0.  1.
         12    1    4    4    0    0 -0.70728358725E+01  0.48640270112E+01 -0.17689384202E+02  0.19662097536E+02  0.00000000000E+00 0. -1.
</event>
<event>
 8    1  0.1244838E-006  0.9118800E+02  0.7816164E-02  0.1184000E+00
        -11   -1    0    0    0    0  0.00000000000E+00  0.00000000000E+00  0.45593999997E+02  0.45594000000E+02  0.51100000000E-03 0.  1.
         11   -1    0    0    0    0 -0.00000000000E+00 -0.00000000000E+00 -0.45593999997E+02  0.45594000000E+02  0.51100000000E-03 0. -1.
         23    2    1    2    0    0  0.00000000000E+00 -0.17763568394E-14 -0.35527136788E-14  0.91188000000E+02  0.91188000000E+02 0.  0.
    9900012    2    3    3    0    0  0.12998415126E+02  0.12764495846E+02  0.31998256185E+02  0.54367088158E+02  0.40000009073E+02 0.  0.
         12    1    3    3    0    0 -0.12998415126E+02 -0.12764495846E+02 -0.31998256185E+02  0.36820911842E+02  0.00000000000E+00 0. -1.
         11    1    4    4    0    0 -0.35472648149E+01  0.37780187771E+01  0.12861540486E+02  0.13866352710E+02  0.51100000000E-03 0. -1.
        -11    1    4    4    0    0  0.25084566781E+02  0.57971132914E+01  0.10072332348E+02  0.27645865736E+02  0.51100000000E-03 0.  1.
        -12    1    4    4    0    0 -0.85388868400E+01  0.31893637773E+01  0.90643833508E+01  0.12854869712E+02  0.00000000000E+00 0.  1.
</event>
<event>
 8    1  0.1244838E-006  0.9118800E+02  0.7816164E-02  0.1184000E+00
        -11   -1    0    0    0    0  0.00000000000E+00  0.00000000000E+00  0.45593999997E+02  0.45594000000E+02  0.51100000000E-03 0. -1.
         11   -1    0    0    0    0 -0.00000000000E+00 -0.00000000000E+00 -0.45593999997E+02  0.45594000000E+02  0.51100000000E-03 0.  1.
         23    2    1    2    0    0  0.17763568394E-14  0.44408920985E-15  0.00000000000E+00  0.91188000000E+02  0.91188000000E+02 0.  0.
    9900012    2    3    3    0    0 -0.13503247490E+02  0.38530969778E+01 -0.34038148820E+02  0.54367087135E+02  0.40000006742E+02 0.  0.
         12    1    3    3    0    0  0.13503247490E+02 -0.38530969778E+01  0.34038148820E+02  0.36820912865E+02  0.00000000000E+00 0. -1.
         11    1    4    4    0    0  0.64773336468E+01 -0.14658019375E+01 -0.59116271344E+00  0.66673758036E+01  0.51100000000E-03 0. -1.
        -11    1    4    4    0    0 -0.15150860660E+02 -0.98598657417E+01 -0.17464841161E+02  0.25135357730E+02  0.51100000000E-03 0.  1.
         12    1    4    4    0    0 -0.48297204772E+01  0.15178764657E+02 -0.15982144946E+02  0.22564353602E+02  0.00000000000E+00 0. -1.
</event>
<event>
 8    1  0.1244838E-006  0.9118800E+02  0.7816164E-02  0.1184000E+00
        -11   -1    0    0    0    0  0.00000000000E+00  0.00000000000E+00  0.45593999997E+02  0.45594000000E+02  0.51100000000E-03 0.  1.
         11   -1    0    0    0    0 -0.00000000000E+00 -0.00000000000E+00 -0.45593999997E+02  0.45594000000E+02  0.51100000000E-03 0. -1.
         23    2    1    2    0    0  0.00000000000E+00  0.00000000000E+00  0.00000000000E+00  0.91188000000E+02  0.91188000000E+02 0.  0.
    9900012    2    3    3    0    0 -0.18678578571E+02  0.62352472794E+01 -0.31112896864E+02  0.54367082611E+02  0.39999996428E+02 0.  0.
        -12    1    3    3    0    0  0.18678578571E+02 -0.62352472794E+01  0.31112896864E+02  0.36820917389E+02  0.00000000000E+00 0.  1.
         11    1    4    4    0    0 -0.21052644018E+01  0.10656352407E+02 -0.14546038474E+02  0.18154261769E+02  0.51100000000E-03 0. -1.
        -11    1    4    4    0    0 -0.61804783719E+01  0.10874672635E+02 -0.19892694105E+01  0.12665465284E+02  0.51100000000E-03 0.  1.
        -12    1    4    4    0    0 -0.10392835798E+02 -0.15295777763E+02 -0.14577588980E+02  0.23547355557E+02  0.00000000000E+00 0.  1.
</event>
<event>
 8    1  0.1244838E-006  0.9118800E+02  0.7816164E-02  0.1184000E+00
        -11   -1    0    0    0    0  0.00000000000E+00  0.00000000000E+00  0.45593999997E+02  0.45594000000E+02  0.51100000000E-03 0.  1.
         11   -1    0    0    0    0 -0.00000000000E+00 -0.00000000000E+00 -0.45593999997E+02  0.45594000000E+02  0.51100000000E-03 0. -1.
         23    2    1    2    0    0  0.00000000000E+00  0.35527136788E-14 -0.35527136788E-14  0.91188000000E+02  0.91188000000E+02 0.  0.
    9900012    2    3    3    0    0  0.30756627882E+02 -0.93067437767E+01  0.17977618137E+02  0.54367076705E+02  0.39999982965E+02 0.  0.
         12    1    3    3    0    0 -0.30756627882E+02  0.93067437767E+01 -0.17977618137E+02  0.36820923295E+02  0.00000000000E+00 0. -1.
         11    1    4    4    0    0  0.17844588063E+02 -0.15170338065E+02  0.69964074046E+01  0.24444185341E+02  0.51100000000E-03 0. -1.
        -11    1    4    4    0    0  0.64410755700E+01  0.11637251786E+02 -0.28452217478E+01  0.13601778218E+02  0.51100000000E-03 0.  1.
        -12    1    4    4    0    0  0.64709642492E+01 -0.57736574981E+01  0.13826432480E+02  0.16321113147E+02  0.00000000000E+00 0.  1.
</event>
<event>
 8    1  0.1244838E-006  0.9118800E+02  0.7816164E-02  0.1184000E+00
        -11   -1    0    0    0    0  0.00000000000E+00  0.00000000000E+00  0.45593999997E+02  0.45594000000E+02  0.51100000000E-03 0. -1.
         11   -1    0    0    0    0 -0.00000000000E+00 -0.00000000000E+00 -0.45593999997E+02  0.45594000000E+02  0.51100000000E-03 0.  1.
         23    2    1    2    0    0  0.71054273576E-14  0.00000000000E+00 -0.35527136788E-14  0.91188000000E+02  0.91188000000E+02 0.  0.
    9900012    2    3    3    0    0  0.23391168471E+02 -0.20705819882E+02 -0.19491071013E+02  0.54367087618E+02  0.40000007843E+02 0.  0.
         12    1    3    3    0    0 -0.23391168471E+02  0.20705819882E+02  0.19491071013E+02  0.36820912382E+02  0.00000000000E+00 0. -1.
         11    1    4    4    0    0  0.29859934582E+02 -0.23236126006E+02 -0.16690027564E+02  0.41353237664E+02  0.51100000000E-03 0. -1.
        -11    1    4    4    0    0 -0.59835795894E+01  0.53655535264E+01 -0.49359884096E+01  0.94316685262E+01  0.51100000000E-03 0.  1.
        -12    1    4    4    0    0 -0.48518652106E+00 -0.28352474024E+01  0.21349449611E+01  0.35821814276E+01  0.00000000000E+00 0.  1.
</event>
<event>
 8    1  0.1244838E-006  0.9118800E+02  0.7816164E-02  0.1184000E+00
        -11   -1    0    0    0    0  0.00000000000E+00  0.00000000000E+00  0.45593999997E+02  0.45594000000E+02  0.51100000000E-03 0.  1.
         11   -1    0    0    0    0 -0.00000000000E+00 -0.00000000000E+00 -0.45593999997E+02  0.45594000000E+02  0.51100000000E-03 0. -1.
         23    2    1    2    0    0 -0.17763568394E-14 -0.35527136788E-14  0.00000000000E+00  0.91188000000E+02  0.91188000000E+02 0.  0.
    9900012    2    3    3    0    0  0.52510715299E+01  0.24216620936E+02 -0.27235266330E+02  0.54367106287E+02  0.40000050402E+02 0.  0.
        -12    1    3    3    0    0 -0.52510715299E+01 -0.24216620936E+02  0.27235266330E+02  0.36820893713E+02  0.00000000000E+00 0.  1.
         11    1    4    4    0    0  0.11048225675E+01 -0.32674767203E+01 -0.51571505599E+01  0.62042919968E+01  0.51100000000E-03 0.  1.
        -11    1    4    4    0    0  0.17905721630E+02  0.10017290752E+02 -0.11778125070E+02  0.23657667077E+02  0.51100000000E-03 0. -1.
         12    1    4    4    0    0 -0.13759472667E+02  0.17466806904E+02 -0.10299990701E+02  0.24505147213E+02  0.00000000000E+00 0. -1.
</event>
<event>
 8    1  0.1244838E-006  0.9118800E+02  0.7816164E-02  0.1184000E+00
        -11   -1    0    0    0    0  0.00000000000E+00  0.00000000000E+00  0.45593999997E+02  0.45594000000E+02  0.51100000000E-03 0.  1.
         11   -1    0    0    0    0 -0.00000000000E+00 -0.00000000000E+00 -0.45593999997E+02  0.45594000000E+02  0.51100000000E-03 0. -1.
         23    2    1    2    0    0  0.00000000000E+00  0.00000000000E+00  0.00000000000E+00  0.91188000000E+02  0.91188000000E+02 0.  0.
    9900012    2    3    3    0    0  0.36331770329E+01  0.86532140235E+01 -0.35604787640E+02  0.54367095731E+02  0.40000026338E+02 0.  0.
        -12    1    3    3    0    0 -0.36331770329E+01 -0.86532140235E+01  0.35604787640E+02  0.36820904269E+02  0.00000000000E+00 0.  1.
         11    1    4    4    0    0 -0.28479250317E+01  0.16893659550E+00 -0.13239290944E+02  0.13543191704E+02  0.51100000000E-03 0. -1.
        -11    1    4    4    0    0 -0.21444408764E+01  0.19692278474E+02 -0.15206262942E+02  0.24972282457E+02  0.51100000000E-03 0.  1.
         12    1    4    4    0    0  0.86255429409E+01 -0.11208001046E+02 -0.71592337540E+01  0.15851621571E+02  0.00000000000E+00 0. -1.
</event>
<event>
 8    1  0.1244838E-006  0.9118800E+02  0.7816164E-02  0.1184000E+00
        -11   -1    0    0    0    0  0.00000000000E+00  0.00000000000E+00  0.45593999997E+02  0.45594000000E+02  0.51100000000E-03 0.  1.
         11   -1    0    0    0    0 -0.00000000000E+00 -0.00000000000E+00 -0.45593999997E+02  0.45594000000E+02  0.51100000000E-03 0. -1.
         23    2    1    2    0    0 -0.35527136788E-14  0.00000000000E+00  0.00000000000E+00  0.91188000000E+02  0.91188000000E+02 0.  0.
    9900012    2    3    3    0    0  0.27442654089E+02 -0.20283970444E+02  0.13829043628E+02  0.54367066170E+02  0.39999958948E+02 0.  0.
         12    1    3    3    0    0 -0.27442654089E+02  0.20283970444E+02 -0.13829043628E+02  0.36820933830E+02  0.00000000000E+00 0. -1.
         11    1    4    4    0    0  0.36813582134E+01 -0.12259783800E+02 -0.24568358505E+01  0.13034214199E+02  0.51100000000E-03 0. -1.
        -11    1    4    4    0    0  0.24988393667E+01 -0.10487236208E+02  0.16754196956E+02  0.19923088048E+02  0.51100000000E-03 0.  1.
        -12    1    4    4    0    0  0.21262456509E+02  0.24630495641E+01 -0.46831747799E+00  0.21409763923E+02  0.00000000000E+00 0.  1.
</event>
<event>
 8    1  0.1244838E-006  0.9118800E+02  0.7816164E-02  0.1184000E+00
        -11   -1    0    0    0    0  0.00000000000E+00  0.00000000000E+00  0.45593999997E+02  0.45594000000E+02  0.51100000000E-03 0. -1.
         11   -1    0    0    0    0 -0.00000000000E+00 -0.00000000000E+00 -0.45593999997E+02  0.45594000000E+02  0.51100000000E-03 0.  1.
         23    2    1    2    0    0  0.00000000000E+00  0.35527136788E-14  0.00000000000E+00  0.91188000000E+02  0.91188000000E+02 0.  0.
    9900012    2    3    3    0    0  0.95561157932E+01  0.17051501587E+02  0.31204255483E+02  0.54367100831E+02  0.40000037964E+02 0.  0.
        -12    1    3    3    0    0 -0.95561157932E+01 -0.17051501587E+02 -0.31204255483E+02  0.36820899169E+02  0.00000000000E+00 0.  1.
         11    1    4    4    0    0  0.45138864520E+01  0.14283245895E+02 -0.23724423606E+01  0.15166237741E+02  0.51100000000E-03 0. -1.
        -11    1    4    4    0    0  0.11317141847E+02  0.89314460793E-02  0.28518143421E+02  0.30681627790E+02  0.51100000000E-03 0.  1.
        -12    1    4    4    0    0 -0.62749125063E+01  0.27593242453E+01  0.50585544217E+01  0.85192352995E+01  0.00000000000E+00 0.  1.
</event>
<event>
 8    1  0.1244838E-006  0.9118800E+02  0.7816164E-02  0.1184000E+00
        -11   -1    0    0    0    0  0.00000000000E+00  0.00000000000E+00  0.45593999997E+02  0.45594000000E+02  0.51100000000E-03 0.  1.
         11   -1    0    0    0    0 -0.00000000000E+00 -0.00000000000E+00 -0.45593999997E+02  0.45594000000E+02  0.51100000000E-03 0. -1.
         23    2    1    2    0    0 -0.17763568394E-14  0.00000000000E+00  0.00000000000E+00  0.91188000000E+02  0.91188000000E+02 0.  0.
    9900012    2    3    3    0    0  0.50134826776E+01  0.35513169644E+02 -0.83343194682E+01  0.54367066990E+02  0.39999960817E+02 0.  0.
        -12    1    3    3    0    0 -0.50134826776E+01 -0.35513169644E+02  0.83343194682E+01  0.36820933010E+02  0.00000000000E+00 0.  1.
         11    1    4    4    0    0 -0.10841921471E+02  0.61842413603E+01 -0.60307899030E+01  0.13862269998E+02  0.51100000000E-03 0. -1.
        -11    1    4    4    0    0  0.69740486369E+00  0.22869584528E+02  0.32657997659E+01  0.23112111942E+02  0.51100000000E-03 0.  1.
         12    1    4    4    0    0  0.15157999284E+02  0.64593437558E+01 -0.55693293311E+01  0.17392685050E+02  0.00000000000E+00 0. -1.
</event>
<event>
 8    1  0.1244838E-006  0.9118800E+02  0.7816164E-02  0.1184000E+00
        -11   -1    0    0    0    0  0.00000000000E+00  0.00000000000E+00  0.45593999997E+02  0.45594000000E+02  0.51100000000E-03 0.  1.
         11   -1    0    0    0    0 -0.00000000000E+00 -0.00000000000E+00 -0.45593999997E+02  0.45594000000E+02  0.51100000000E-03 0. -1.
         23    2    1    2    0    0  0.00000000000E+00  0.00000000000E+00  0.00000000000E+00  0.91188000000E+02  0.91188000000E+02 0.  0.
    9900012    2    3    3    0    0 -0.97290987730E+00  0.22236813089E+02 -0.29331841399E+02  0.54367091132E+02  0.40000015855E+02 0.  0.
        -12    1    3    3    0    0  0.97290987730E+00 -0.22236813089E+02  0.29331841399E+02  0.36820908868E+02  0.00000000000E+00 0.  1.
         11    1    4    4    0    0 -0.17695294771E+01  0.29669561885E+01 -0.14840658493E+02  0.15237427879E+02  0.51100000000E-03 0. -1.
        -11    1    4    4    0    0  0.12730487673E+02 -0.10112199515E+01 -0.60346424434E+01  0.14124616521E+02  0.51100000000E-03 0.  1.
         12    1    4    4    0    0 -0.11933868074E+02  0.20281076853E+02 -0.84565404622E+01  0.25005046732E+02  0.00000000000E+00 0. -1.
</event>
<event>
 8    1  0.1244838E-006  0.9118800E+02  0.7816164E-02  0.1184000E+00
        -11   -1    0    0    0    0  0.00000000000E+00  0.00000000000E+00  0.45593999997E+02  0.45594000000E+02  0.51100000000E-03 0.  1.
         11   -1    0    0    0    0 -0.00000000000E+00 -0.00000000000E+00 -0.45593999997E+02  0.45594000000E+02  0.51100000000E-03 0. -1.
         23    2    1    2    0    0  0.00000000000E+00  0.00000000000E+00 -0.16653345369E-14  0.91188000000E+02  0.91188000000E+02 0.  0.
    9900012    2    3    3    0    0 -0.35648573061E+02  0.91722783301E+01  0.91079154285E+00  0.54367068557E+02  0.39999964390E+02 0.  0.
         12    1    3    3    0    0  0.35648573061E+02 -0.91722783301E+01 -0.91079154285E+00  0.36820931443E+02  0.00000000000E+00 0. -1.
         11    1    4    4    0    0 -0.20182528511E+01 -0.58223778753E+00  0.10715802605E+02  0.10919742265E+02  0.51100000000E-03 0.  1.
        -11    1    4    4    0    0 -0.35336310466E+02  0.82996369800E+01 -0.13827242007E+02  0.38842392217E+02  0.51100000000E-03 0. -1.
         12    1    4    4    0    0  0.17059902557E+01  0.14548791376E+01  0.40222309451E+01  0.46049340748E+01  0.00000000000E+00 0. -1.
</event>
<event>
 8    1  0.1244838E-006  0.9118800E+02  0.7816164E-02  0.1184000E+00
        -11   -1    0    0    0    0  0.00000000000E+00  0.00000000000E+00  0.45593999997E+02  0.45594000000E+02  0.51100000000E-03 0. -1.
         11   -1    0    0    0    0 -0.00000000000E+00 -0.00000000000E+00 -0.45593999997E+02  0.45594000000E+02  0.51100000000E-03 0.  1.
         23    2    1    2    0    0 -0.35527136788E-14 -0.53290705182E-14 -0.10658141036E-13  0.91188000000E+02  0.91188000000E+02 0.  0.
    9900012    2    3    3    0    0  0.20530003962E+02  0.88708706860E+01  0.29250734563E+02  0.54367097216E+02  0.40000029722E+02 0.  0.
        -12    1    3    3    0    0 -0.20530003962E+02 -0.88708706860E+01 -0.29250734563E+02  0.36820902784E+02  0.00000000000E+00 0.  1.
         11    1    4    4    0    0  0.31656216617E+01 -0.19595825110E+01  0.67183004131E+01  0.76809299452E+01  0.51100000000E-03 0. -1.
        -11    1    4    4    0    0 -0.90930335256E+00 -0.70790382727E+01 -0.52924429836E+01  0.88853569680E+01  0.51100000000E-03 0.  1.
        -12    1    4    4    0    0  0.18273685653E+02  0.17909491470E+02  0.27824877133E+02  0.37800810302E+02  0.00000000000E+00 0.  1.
</event>
<event>
 8    1  0.1244838E-006  0.9118800E+02  0.7816164E-02  0.1184000E+00
        -11   -1    0    0    0    0  0.00000000000E+00  0.00000000000E+00  0.45593999997E+02  0.45594000000E+02  0.51100000000E-03 0.  1.
         11   -1    0    0    0    0 -0.00000000000E+00 -0.00000000000E+00 -0.45593999997E+02  0.45594000000E+02  0.51100000000E-03 0. -1.
         23    2    1    2    0    0  0.00000000000E+00  0.17763568394E-14  0.00000000000E+00  0.91188000000E+02  0.91188000000E+02 0.  0.
    9900012    2    3    3    0    0  0.18919972919E+02 -0.15259216172E+02  0.27658251997E+02  0.54366973983E+02  0.39999748788E+02 0.  0.
         12    1    3    3    0    0 -0.18919972919E+02  0.15259216172E+02 -0.27658251997E+02  0.36821026017E+02  0.00000000000E+00 0. -1.
         11    1    4    4    0    0  0.17130537251E+01 -0.12402147854E+02  0.36069327418E+01  0.13029113113E+02  0.51100000000E-03 0. -1.
        -11    1    4    4    0    0  0.18976615963E+02 -0.13580906490E+01  0.19607953326E+01  0.19125926963E+02  0.51100000000E-03 0.  1.
        -12    1    4    4    0    0 -0.17696967689E+01 -0.14989776696E+01  0.22090523922E+02  0.22211933907E+02  0.00000000000E+00 0.  1.
</event>
<event>
 8    1  0.1244838E-006  0.9118800E+02  0.7816164E-02  0.1184000E+00
        -11   -1    0    0    0    0  0.00000000000E+00  0.00000000000E+00  0.45593999997E+02  0.45594000000E+02  0.51100000000E-03 0.  1.
         11   -1    0    0    0    0 -0.00000000000E+00 -0.00000000000E+00 -0.45593999997E+02  0.45594000000E+02  0.51100000000E-03 0. -1.
         23    2    1    2    0    0  0.00000000000E+00  0.00000000000E+00  0.00000000000E+00  0.91188000000E+02  0.91188000000E+02 0.  0.
    9900012    2    3    3    0    0  0.16392818890E+02  0.26873451862E+02  0.19101678259E+02  0.54367067931E+02  0.39999962963E+02 0.  0.
         12    1    3    3    0    0 -0.16392818890E+02 -0.26873451862E+02 -0.19101678259E+02  0.36820932069E+02  0.00000000000E+00 0. -1.
         11    1    4    4    0    0 -0.69787110477E+01 -0.49860146013E+01 -0.11665783765E+00  0.85776662796E+01  0.51100000000E-03 0. -1.
        -11    1    4    4    0    0  0.10678182839E+01  0.10907918368E+02  0.50543197508E+01  0.12069344117E+02  0.51100000000E-03 0.  1.
         12    1    4    4    0    0  0.22303711654E+02  0.20951548095E+02  0.14164016345E+02  0.33720057534E+02  0.00000000000E+00 0. -1.
</event>
<event>
 8    1  0.1244838E-006  0.9118800E+02  0.7816164E-02  0.1184000E+00
        -11   -1    0    0    0    0  0.00000000000E+00  0.00000000000E+00  0.45593999997E+02  0.45594000000E+02  0.51100000000E-03 0. -1.
         11   -1    0    0    0    0 -0.00000000000E+00 -0.00000000000E+00 -0.45593999997E+02  0.45594000000E+02  0.51100000000E-03 0.  1.
         23    2    1    2    0    0 -0.88817841970E-15  0.00000000000E+00  0.00000000000E+00  0.91188000000E+02  0.91188000000E+02 0.  0.
    9900012    2    3    3    0    0 -0.66907612050E+01 -0.11418577734E+02 -0.34360292138E+02  0.54367083678E+02  0.39999998861E+02 0.  0.
         12    1    3    3    0    0  0.66907612050E+01  0.11418577734E+02  0.34360292138E+02  0.36820916322E+02  0.00000000000E+00 0. -1.
         11    1    4    4    0    0  0.13114558708E+01  0.35772955852E+01  0.58755711275E+01  0.70028063332E+01  0.51100000000E-03 0. -1.
        -11    1    4    4    0    0 -0.98866823123E+01 -0.18135651108E+02 -0.29432740976E+02  0.35957399376E+02  0.51100000000E-03 0.  1.
         12    1    4    4    0    0  0.18844652365E+01  0.31397777887E+01 -0.10803122289E+02  0.11406877969E+02  0.00000000000E+00 0. -1.
</event>
<event>
 8    1  0.1244838E-006  0.9118800E+02  0.7816164E-02  0.1184000E+00
        -11   -1    0    0    0    0  0.00000000000E+00  0.00000000000E+00  0.45593999997E+02  0.45594000000E+02  0.51100000000E-03 0. -1.
         11   -1    0    0    0    0 -0.00000000000E+00 -0.00000000000E+00 -0.45593999997E+02  0.45594000000E+02  0.51100000000E-03 0.  1.
         23    2    1    2    0    0  0.00000000000E+00  0.38857805862E-15  0.00000000000E+00  0.91188000000E+02  0.91188000000E+02 0.  0.
    9900012    2    3    3    0    0 -0.14637454341E+02  0.29562512074E+00 -0.33785151932E+02  0.54367096224E+02  0.40000027462E+02 0.  0.
         12    1    3    3    0    0  0.14637454341E+02 -0.29562512074E+00  0.33785151932E+02  0.36820903776E+02  0.00000000000E+00 0. -1.
         11    1    4    4    0    0  0.72624748078E+01 -0.39533938552E+01 -0.24115339445E+01  0.86132664846E+01  0.51100000000E-03 0. -1.
        -11    1    4    4    0    0  0.39959272722E+01  0.42020588204E+01 -0.10766462393E+01  0.58977877616E+01  0.51100000000E-03 0.  1.
        -12    1    4    4    0    0 -0.25895856421E+02  0.46960155552E-01 -0.30296971748E+02  0.39856041978E+02  0.00000000000E+00 0.  1.
</event>
<event>
 8    1  0.1244838E-006  0.9118800E+02  0.7816164E-02  0.1184000E+00
        -11   -1    0    0    0    0  0.00000000000E+00  0.00000000000E+00  0.45593999997E+02  0.45594000000E+02  0.51100000000E-03 0.  1.
         11   -1    0    0    0    0 -0.00000000000E+00 -0.00000000000E+00 -0.45593999997E+02  0.45594000000E+02  0.51100000000E-03 0. -1.
         23    2    1    2    0    0  0.10658141036E-13  0.17763568394E-14 -0.71054273576E-14  0.91188000000E+02  0.91188000000E+02 0.  0.
    9900012    2    3    3    0    0  0.30422581286E+02  0.45468548782E+01 -0.20237885589E+02  0.54367090797E+02  0.40000015091E+02 0.  0.
        -12    1    3    3    0    0 -0.30422581286E+02 -0.45468548782E+01  0.20237885589E+02  0.36820909203E+02  0.00000000000E+00 0.  1.
         11    1    4    4    0    0 -0.41860875512E+01  0.22698589829E+00 -0.12936413915E+00  0.41942325789E+01  0.51100000000E-03 0.  1.
        -11    1    4    4    0    0  0.18653662511E+02 -0.12307365947E+02 -0.59488144449E+01  0.23126149165E+02  0.51100000000E-03 0. -1.
         12    1    4    4    0    0  0.15955006326E+02  0.16627234927E+02 -0.14159707005E+02  0.27046709054E+02  0.00000000000E+00 0. -1.
</event>
<event>
 8    1  0.1244838E-006  0.9118800E+02  0.7816164E-02  0.1184000E+00
        -11   -1    0    0    0    0  0.00000000000E+00  0.00000000000E+00  0.45593999997E+02  0.45594000000E+02  0.51100000000E-03 0. -1.
         11   -1    0    0    0    0 -0.00000000000E+00 -0.00000000000E+00 -0.45593999997E+02  0.45594000000E+02  0.51100000000E-03 0.  1.
         23    2    1    2    0    0  0.00000000000E+00  0.00000000000E+00  0.00000000000E+00  0.91188000000E+02  0.91188000000E+02 0.  0.
    9900012    2    3    3    0    0  0.12626697048E+02 -0.96929496500E+01 -0.33202264032E+02  0.54367121574E+02  0.40000085252E+02 0.  0.
         12    1    3    3    0    0 -0.12626697048E+02  0.96929496500E+01  0.33202264032E+02  0.36820878426E+02  0.00000000000E+00 0. -1.
         11    1    4    4    0    0  0.59755061964E+01 -0.84108423134E+01  0.47616358774E+01  0.11363191419E+02  0.51100000000E-03 0. -1.
        -11    1    4    4    0    0  0.72739127665E+01  0.76295188088E+01 -0.26134321810E+02  0.28180172833E+02  0.51100000000E-03 0.  1.
        -12    1    4    4    0    0 -0.62272191509E+00 -0.89116261454E+01 -0.11829578099E+02  0.14823757322E+02  0.00000000000E+00 0.  1.
</event>
<event>
 8    1  0.1244838E-006  0.9118800E+02  0.7816164E-02  0.1184000E+00
        -11   -1    0    0    0    0  0.00000000000E+00  0.00000000000E+00  0.45593999997E+02  0.45594000000E+02  0.51100000000E-03 0. -1.
         11   -1    0    0    0    0 -0.00000000000E+00 -0.00000000000E+00 -0.45593999997E+02  0.45594000000E+02  0.51100000000E-03 0.  1.
         23    2    1    2    0    0 -0.35527136788E-14  0.35527136788E-14  0.19984014443E-14  0.91188000000E+02  0.91188000000E+02 0.  0.
    9900012    2    3    3    0    0  0.24612681375E+02 -0.27330562987E+02 -0.17423344249E+01  0.54367089000E+02  0.40000010993E+02 0.  0.
         12    1    3    3    0    0 -0.24612681375E+02  0.27330562987E+02  0.17423344249E+01  0.36820911000E+02  0.00000000000E+00 0. -1.
         11    1    4    4    0    0  0.29122574829E+01 -0.76665180402E+01  0.11375484395E+02  0.14023494143E+02  0.51100000000E-03 0. -1.
        -11    1    4    4    0    0  0.17300739046E+02 -0.21215185430E+02 -0.10386455862E+01  0.27394861731E+02  0.51100000000E-03 0.  1.
         12    1    4    4    0    0  0.43996848459E+01  0.15511404831E+01 -0.12079173234E+02  0.12948733125E+02  0.00000000000E+00 0. -1.
</event>
<event>
 8    1  0.1244838E-006  0.9118800E+02  0.7816164E-02  0.1184000E+00
        -11   -1    0    0    0    0  0.00000000000E+00  0.00000000000E+00  0.45593999997E+02  0.45594000000E+02  0.51100000000E-03 0. -1.
         11   -1    0    0    0    0 -0.00000000000E+00 -0.00000000000E+00 -0.45593999997E+02  0.45594000000E+02  0.51100000000E-03 0.  1.
         23    2    1    2    0    0  0.35527136788E-14  0.17763568394E-14  0.00000000000E+00  0.91188000000E+02  0.91188000000E+02 0.  0.
    9900012    2    3    3    0    0 -0.25529178079E+02 -0.13259781878E+02 -0.22983001262E+02  0.54367094310E+02  0.40000023099E+02 0.  0.
         12    1    3    3    0    0  0.25529178079E+02  0.13259781878E+02  0.22983001262E+02  0.36820905690E+02  0.00000000000E+00 0. -1.
         11    1    4    4    0    0 -0.39972954316E+01  0.10733005636E+02 -0.86338824186E+01  0.14342932289E+02  0.51100000000E-03 0. -1.
        -11    1    4    4    0    0 -0.34128409490E+01 -0.10109648962E+02 -0.13465718938E+02  0.17180747139E+02  0.51100000000E-03 0.  1.
         12    1    4    4    0    0 -0.18119041698E+02 -0.13883138552E+02 -0.88339990504E+00  0.22843414883E+02  0.00000000000E+00 0. -1.
</event>
<event>
 8    1  0.1244838E-006  0.9118800E+02  0.7816164E-02  0.1184000E+00
        -11   -1    0    0    0    0  0.00000000000E+00  0.00000000000E+00  0.45593999997E+02  0.45594000000E+02  0.51100000000E-03 0.  1.
         11   -1    0    0    0    0 -0.00000000000E+00 -0.00000000000E+00 -0.45593999997E+02  0.45594000000E+02  0.51100000000E-03 0. -1.
         23    2    1    2    0    0  0.00000000000E+00  0.71054273576E-14  0.15543122345E-14  0.91188000000E+02  0.91188000000E+02 0.  0.
    9900012    2    3    3    0    0  0.17045677457E+02  0.32585464603E+02  0.18472707373E+01  0.54367081590E+02  0.39999994100E+02 0.  0.
         12    1    3    3    0    0 -0.17045677457E+02 -0.32585464603E+02 -0.18472707373E+01  0.36820918410E+02  0.00000000000E+00 0. -1.
         11    1    4    4    0    0  0.14967645510E+01  0.12072328224E+02  0.16006933538E+02  0.20104808739E+02  0.51100000000E-03 0.  1.
        -11    1    4    4    0    0 -0.85798555566E+00  0.13064096046E+02 -0.46917785363E+01  0.13907535037E+02  0.51100000000E-03 0. -1.
        -12    1    4    4    0    0  0.16406898462E+02  0.74490403335E+01 -0.94678842643E+01  0.20354737814E+02  0.00000000000E+00 0.  1.
</event>
<event>
 8    1  0.1244838E-006  0.9118800E+02  0.7816164E-02  0.1184000E+00
        -11   -1    0    0    0    0  0.00000000000E+00  0.00000000000E+00  0.45593999997E+02  0.45594000000E+02  0.51100000000E-03 0. -1.
         11   -1    0    0    0    0 -0.00000000000E+00 -0.00000000000E+00 -0.45593999997E+02  0.45594000000E+02  0.51100000000E-03 0.  1.
         23    2    1    2    0    0  0.35527136788E-14  0.35527136788E-14 -0.17763568394E-14  0.91188000000E+02  0.91188000000E+02 0.  0.
    9900012    2    3    3    0    0 -0.22889031086E+02 -0.26957579438E+02  0.10254954766E+02  0.54367042239E+02  0.39999904391E+02 0.  0.
         12    1    3    3    0    0  0.22889031086E+02  0.26957579438E+02 -0.10254954766E+02  0.36820957761E+02  0.00000000000E+00 0. -1.
         11    1    4    4    0    0 -0.70190483384E+01 -0.25540183889E+01 -0.12217144952E+02  0.14319520961E+02  0.51100000000E-03 0.  1.
        -11    1    4    4    0    0  0.65660985006E+00 -0.11697014568E+02  0.11799529768E+02  0.16627693445E+02  0.51100000000E-03 0. -1.
         12    1    4    4    0    0 -0.16526592598E+02 -0.12706546482E+02  0.10672569950E+02  0.23419827833E+02  0.00000000000E+00 0. -1.
</event>
<event>
 8    1  0.1244838E-006  0.9118800E+02  0.7816164E-02  0.1184000E+00
        -11   -1    0    0    0    0  0.00000000000E+00  0.00000000000E+00  0.45593999997E+02  0.45594000000E+02  0.51100000000E-03 0.  1.
         11   -1    0    0    0    0 -0.00000000000E+00 -0.00000000000E+00 -0.45593999997E+02  0.45594000000E+02  0.51100000000E-03 0. -1.
         23    2    1    2    0    0  0.17763568394E-14  0.17763568394E-14  0.71054273576E-14  0.91188000000E+02  0.91188000000E+02 0.  0.
    9900012    2    3    3    0    0 -0.14765596664E+02  0.23288786731E+01 -0.33650114517E+02  0.54367126467E+02  0.40000096406E+02 0.  0.
        -12    1    3    3    0    0  0.14765596664E+02 -0.23288786731E+01  0.33650114517E+02  0.36820873533E+02  0.00000000000E+00 0.  1.
         11    1    4    4    0    0  0.38765477845E+01 -0.70248025878E+01 -0.30245546264E+01  0.85745790026E+01  0.51100000000E-03 0. -1.
        -11    1    4    4    0    0 -0.16893909912E+02  0.14615800129E+02 -0.10072613660E+02  0.24504761817E+02  0.51100000000E-03 0.  1.
        -12    1    4    4    0    0 -0.17482345374E+01 -0.52621188682E+01 -0.20552946230E+02  0.21287785647E+02  0.00000000000E+00 0.  1.
</event>
<event>
 8    1  0.1244838E-006  0.9118800E+02  0.7816164E-02  0.1184000E+00
        -11   -1    0    0    0    0  0.00000000000E+00  0.00000000000E+00  0.45593999997E+02  0.45594000000E+02  0.51100000000E-03 0. -1.
         11   -1    0    0    0    0 -0.00000000000E+00 -0.00000000000E+00 -0.45593999997E+02  0.45594000000E+02  0.51100000000E-03 0.  1.
         23    2    1    2    0    0  0.00000000000E+00  0.13322676296E-14  0.00000000000E+00  0.91188000000E+02  0.91188000000E+02 0.  0.
    9900012    2    3    3    0    0  0.34576366741E+02  0.23491775152E+01 -0.12439297490E+02  0.54367083471E+02  0.39999998389E+02 0.  0.
        -12    1    3    3    0    0 -0.34576366741E+02 -0.23491775152E+01  0.12439297490E+02  0.36820916529E+02  0.00000000000E+00 0.  1.
         11    1    4    4    0    0  0.16576014888E+02 -0.12717771521E+02 -0.10739135194E+01  0.20920307659E+02  0.51100000000E-03 0. -1.
        -11    1    4    4    0    0  0.21534809961E+02  0.14800790659E+02 -0.56703417657E+01  0.26738814861E+02  0.51100000000E-03 0.  1.
        -12    1    4    4    0    0 -0.35344581082E+01  0.26615837793E+00 -0.56950422053E+01  0.67079609510E+01  0.00000000000E+00 0.  1.
</event>
<event>
 8    1  0.1244838E-006  0.9118800E+02  0.7816164E-02  0.1184000E+00
        -11   -1    0    0    0    0  0.00000000000E+00  0.00000000000E+00  0.45593999997E+02  0.45594000000E+02  0.51100000000E-03 0.  1.
         11   -1    0    0    0    0 -0.00000000000E+00 -0.00000000000E+00 -0.45593999997E+02  0.45594000000E+02  0.51100000000E-03 0. -1.
         23    2    1    2    0    0  0.00000000000E+00 -0.17763568394E-14  0.35527136788E-14  0.91188000000E+02  0.91188000000E+02 0.  0.
    9900012    2    3    3    0    0  0.24006271229E+02  0.54453536482E+01 -0.27382752267E+02  0.54367244217E+02  0.40000364840E+02 0.  0.
        -12    1    3    3    0    0 -0.24006271229E+02 -0.54453536482E+01  0.27382752267E+02  0.36820755783E+02  0.00000000000E+00 0.  1.
         11    1    4    4    0    0  0.15591407179E+02 -0.15947532119E+02 -0.14037035607E+02  0.26352497555E+02  0.51100000000E-03 0. -1.
        -11    1    4    4    0    0 -0.15166694868E+01  0.36541166584E+01 -0.40460423035E+01  0.56589145133E+01  0.51100000000E-03 0.  1.
         12    1    4    4    0    0  0.99315335375E+01  0.17738769109E+02 -0.92996743570E+01  0.22355832149E+02  0.00000000000E+00 0. -1.
</event>
<event>
 8    1  0.1244838E-006  0.9118800E+02  0.7816164E-02  0.1184000E+00
        -11   -1    0    0    0    0  0.00000000000E+00  0.00000000000E+00  0.45593999997E+02  0.45594000000E+02  0.51100000000E-03 0. -1.
         11   -1    0    0    0    0 -0.00000000000E+00 -0.00000000000E+00 -0.45593999997E+02  0.45594000000E+02  0.51100000000E-03 0.  1.
         23    2    1    2    0    0 -0.35527136788E-14 -0.17763568394E-14 -0.35527136788E-14  0.91188000000E+02  0.91188000000E+02 0.  0.
    9900012    2    3    3    0    0 -0.22631463946E+02 -0.13467423725E+02 -0.25733797801E+02  0.54367041139E+02  0.39999901885E+02 0.  0.
         12    1    3    3    0    0  0.22631463946E+02  0.13467423725E+02  0.25733797801E+02  0.36820958861E+02  0.00000000000E+00 0. -1.
         11    1    4    4    0    0 -0.61874612964E+01  0.84611218237E+01 -0.76070572607E+00  0.10509706622E+02  0.51100000000E-03 0. -1.
        -11    1    4    4    0    0 -0.19601513428E+00 -0.60741212237E+01  0.38299400853E+01  0.71834401154E+01  0.51100000000E-03 0.  1.
        -12    1    4    4    0    0 -0.16247987515E+02 -0.15854424325E+02 -0.28803032161E+02  0.36673894402E+02  0.00000000000E+00 0.  1.
</event>
<event>
 8    1  0.1244838E-006  0.9118800E+02  0.7816164E-02  0.1184000E+00
        -11   -1    0    0    0    0  0.00000000000E+00  0.00000000000E+00  0.45593999997E+02  0.45594000000E+02  0.51100000000E-03 0.  1.
         11   -1    0    0    0    0 -0.00000000000E+00 -0.00000000000E+00 -0.45593999997E+02  0.45594000000E+02  0.51100000000E-03 0. -1.
         23    2    1    2    0    0  0.00000000000E+00 -0.35527136788E-14  0.00000000000E+00  0.91188000000E+02  0.91188000000E+02 0.  0.
    9900012    2    3    3    0    0  0.25176046721E+02  0.23505169335E+02 -0.13017480516E+02  0.54367066919E+02  0.39999960656E+02 0.  0.
        -12    1    3    3    0    0 -0.25176046721E+02 -0.23505169335E+02  0.13017480516E+02  0.36820933081E+02  0.00000000000E+00 0.  1.
         11    1    4    4    0    0  0.12915287983E+02  0.40184743227E+01 -0.23740489708E+01  0.13732767687E+02  0.51100000000E-03 0. -1.
        -11    1    4    4    0    0  0.20955397536E+02  0.20914340805E+02 -0.46287036053E+01  0.29966034681E+02  0.51100000000E-03 0.  1.
         12    1    4    4    0    0 -0.86946387983E+01 -0.14276457924E+01 -0.60147279399E+01  0.10668264551E+02  0.00000000000E+00 0. -1.
</event>
<event>
 8    1  0.1244838E-006  0.9118800E+02  0.7816164E-02  0.1184000E+00
        -11   -1    0    0    0    0  0.00000000000E+00  0.00000000000E+00  0.45593999997E+02  0.45594000000E+02  0.51100000000E-03 0. -1.
         11   -1    0    0    0    0 -0.00000000000E+00 -0.00000000000E+00 -0.45593999997E+02  0.45594000000E+02  0.51100000000E-03 0.  1.
         23    2    1    2    0    0  0.00000000000E+00  0.00000000000E+00  0.00000000000E+00  0.91188000000E+02  0.91188000000E+02 0.  0.
    9900012    2    3    3    0    0 -0.12578142831E+02 -0.62312480419E+01  0.34040364797E+02  0.54367020046E+02  0.39999853799E+02 0.  0.
        -12    1    3    3    0    0  0.12578142831E+02  0.62312480419E+01 -0.34040364797E+02  0.36820979954E+02  0.00000000000E+00 0.  1.
         11    1    4    4    0    0  0.38617333496E+01  0.67461550583E+01  0.67714422282E+01  0.10309026270E+02  0.51100000000E-03 0. -1.
        -11    1    4    4    0    0  0.62836990685E+01  0.26024708827E+01  0.76426395341E+01  0.10230721773E+02  0.51100000000E-03 0.  1.
         12    1    4    4    0    0 -0.22723575249E+02 -0.15579873983E+02  0.19626283035E+02  0.33827272003E+02  0.00000000000E+00 0. -1.
</event>
<event>
 8    1  0.1244838E-006  0.9118800E+02  0.7816164E-02  0.1184000E+00
        -11   -1    0    0    0    0  0.00000000000E+00  0.00000000000E+00  0.45593999997E+02  0.45594000000E+02  0.51100000000E-03 0. -1.
         11   -1    0    0    0    0 -0.00000000000E+00 -0.00000000000E+00 -0.45593999997E+02  0.45594000000E+02  0.51100000000E-03 0.  1.
         23    2    1    2    0    0  0.17763568394E-14  0.00000000000E+00  0.00000000000E+00  0.91188000000E+02  0.91188000000E+02 0.  0.
    9900012    2    3    3    0    0  0.11803821078E+02 -0.18898532081E+02 -0.29313767579E+02  0.54367059267E+02  0.39999943210E+02 0.  0.
         12    1    3    3    0    0 -0.11803821078E+02  0.18898532081E+02  0.29313767579E+02  0.36820940733E+02  0.00000000000E+00 0. -1.
         11    1    4    4    0    0  0.54258354689E+01 -0.11108483373E+02 -0.25107774967E+01  0.12615153479E+02  0.51100000000E-03 0. -1.
        -11    1    4    4    0    0  0.80034361357E+01 -0.14628585821E+02 -0.29770327605E+02  0.34122176353E+02  0.51100000000E-03 0.  1.
         12    1    4    4    0    0 -0.16254505270E+01  0.68385371134E+01  0.29673375234E+01  0.76297294345E+01  0.00000000000E+00 0. -1.
</event>
<event>
 8    1  0.1244838E-006  0.9118800E+02  0.7816164E-02  0.1184000E+00
        -11   -1    0    0    0    0  0.00000000000E+00  0.00000000000E+00  0.45593999997E+02  0.45594000000E+02  0.51100000000E-03 0.  1.
         11   -1    0    0    0    0 -0.00000000000E+00 -0.00000000000E+00 -0.45593999997E+02  0.45594000000E+02  0.51100000000E-03 0. -1.
         23    2    1    2    0    0  0.00000000000E+00  0.53290705182E-14 -0.71054273576E-14  0.91188000000E+02  0.91188000000E+02 0.  0.
    9900012    2    3    3    0    0 -0.10166323361E+02  0.50682806231E+01 -0.35024809799E+02  0.54367096961E+02  0.40000029142E+02 0.  0.
        -12    1    3    3    0    0  0.10166323361E+02 -0.50682806231E+01  0.35024809799E+02  0.36820903039E+02  0.00000000000E+00 0.  1.
         11    1    4    4    0    0 -0.14097849735E+00  0.27600966648E+01 -0.10767007555E+02  0.11116045182E+02  0.51100000000E-03 0. -1.
        -11    1    4    4    0    0  0.43314637333E+01 -0.10972853806E+02  0.36943141786E+00  0.11802608972E+02  0.51100000000E-03 0.  1.
        -12    1    4    4    0    0 -0.14356808597E+02  0.13281037764E+02 -0.24627233662E+02  0.31448442807E+02  0.00000000000E+00 0.  1.
</event>
<event>
 8    1  0.1244838E-006  0.9118800E+02  0.7816164E-02  0.1184000E+00
        -11   -1    0    0    0    0  0.00000000000E+00  0.00000000000E+00  0.45593999997E+02  0.45594000000E+02  0.51100000000E-03 0.  1.
         11   -1    0    0    0    0 -0.00000000000E+00 -0.00000000000E+00 -0.45593999997E+02  0.45594000000E+02  0.51100000000E-03 0. -1.
         23    2    1    2    0    0  0.00000000000E+00  0.00000000000E+00  0.00000000000E+00  0.91188000000E+02  0.91188000000E+02 0.  0.
    9900012    2    3    3    0    0 -0.17350024469E+02  0.31461372558E+01  0.32324265834E+02  0.54367086236E+02  0.40000004691E+02 0.  0.
         12    1    3    3    0    0  0.17350024469E+02 -0.31461372558E+01 -0.32324265834E+02  0.36820913764E+02  0.00000000000E+00 0. -1.
         11    1    4    4    0    0  0.11730066780E+01  0.69098501389E+01  0.34086644659E+01  0.77936491652E+01  0.51100000000E-03 0. -1.
        -11    1    4    4    0    0 -0.73067830920E+01  0.53233998988E+00  0.33064346699E+02  0.33866258842E+02  0.51100000000E-03 0.  1.
         12    1    4    4    0    0 -0.11216248055E+02 -0.42960528730E+01 -0.41487453306E+01  0.12707178229E+02  0.00000000000E+00 0. -1.
</event>
<event>
 8    1  0.1244838E-006  0.9118800E+02  0.7816164E-02  0.1184000E+00
        -11   -1    0    0    0    0  0.00000000000E+00  0.00000000000E+00  0.45593999997E+02  0.45594000000E+02  0.51100000000E-03 0. -1.
         11   -1    0    0    0    0 -0.00000000000E+00 -0.00000000000E+00 -0.45593999997E+02  0.45594000000E+02  0.51100000000E-03 0.  1.
         23    2    1    2    0    0 -0.44408920985E-15  0.00000000000E+00 -0.71054273576E-14  0.91188000000E+02  0.91188000000E+02 0.  0.
    9900012    2    3    3    0    0 -0.33607022684E+01  0.93544799882E+01  0.35453884008E+02  0.54367102308E+02  0.40000041331E+02 0.  0.
        -12    1    3    3    0    0  0.33607022684E+01 -0.93544799882E+01 -0.35453884008E+02  0.36820897692E+02  0.00000000000E+00 0.  1.
         11    1    4    4    0    0 -0.23373305833E+01 -0.74090514834E+01  0.31232617898E+02  0.32184368553E+02  0.51100000000E-03 0. -1.
        -11    1    4    4    0    0  0.60769444358E+01  0.88989929136E+01 -0.35418972439E-02  0.10775961273E+02  0.51100000000E-03 0.  1.
        -12    1    4    4    0    0 -0.71003161209E+01  0.78645385579E+01  0.42248080075E+01  0.11406772482E+02  0.00000000000E+00 0.  1.
</event>
<event>
 8    1  0.1244838E-006  0.9118800E+02  0.7816164E-02  0.1184000E+00
        -11   -1    0    0    0    0  0.00000000000E+00  0.00000000000E+00  0.45593999997E+02  0.45594000000E+02  0.51100000000E-03 0.  1.
         11   -1    0    0    0    0 -0.00000000000E+00 -0.00000000000E+00 -0.45593999997E+02  0.45594000000E+02  0.51100000000E-03 0. -1.
         23    2    1    2    0    0  0.44408920985E-15  0.00000000000E+00  0.00000000000E+00  0.91188000000E+02  0.91188000000E+02 0.  0.
    9900012    2    3    3    0    0  0.31716955859E+01  0.32828823101E+02  0.16370337764E+02  0.54367092385E+02  0.40000018709E+02 0.  0.
        -12    1    3    3    0    0 -0.31716955859E+01 -0.32828823101E+02 -0.16370337764E+02  0.36820907615E+02  0.00000000000E+00 0.  1.
         11    1    4    4    0    0  0.86109458047E+01 -0.23435332183E+00  0.31886291298E+01  0.91853505714E+01  0.51100000000E-03 0. -1.
        -11    1    4    4    0    0 -0.91723732257E+01  0.26270182744E+02 -0.22463837605E+01  0.27915966260E+02  0.51100000000E-03 0.  1.
        -12    1    4    4    0    0  0.37331230068E+01  0.67929936797E+01  0.15428092395E+02  0.17265775553E+02  0.00000000000E+00 0.  1.
</event>
<event>
 8    1  0.1244838E-006  0.9118800E+02  0.7816164E-02  0.1184000E+00
        -11   -1    0    0    0    0  0.00000000000E+00  0.00000000000E+00  0.45593999997E+02  0.45594000000E+02  0.51100000000E-03 0. -1.
         11   -1    0    0    0    0 -0.00000000000E+00 -0.00000000000E+00 -0.45593999997E+02  0.45594000000E+02  0.51100000000E-03 0.  1.
         23    2    1    2    0    0  0.00000000000E+00 -0.26645352591E-14  0.00000000000E+00  0.91188000000E+02  0.91188000000E+02 0.  0.
    9900012    2    3    3    0    0 -0.17016502896E+02 -0.69157291810E+01  0.31912238662E+02  0.54367086685E+02  0.40000005716E+02 0.  0.
        -12    1    3    3    0    0  0.17016502896E+02  0.69157291810E+01 -0.31912238662E+02  0.36820913315E+02  0.00000000000E+00 0.  1.
         11    1    4    4    0    0 -0.84675260990E+01  0.82109872420E+01  0.12548979566E-01  0.11794891583E+02  0.51100000000E-03 0. -1.
        -11    1    4    4    0    0  0.31456644993E+01  0.17570411404E+01 -0.10434106721E+01  0.37511471316E+01  0.51100000000E-03 0.  1.
         12    1    4    4    0    0 -0.11694641296E+02 -0.16883757563E+02  0.32943100355E+02  0.38821047970E+02  0.00000000000E+00 0. -1.
</event>
<event>
 8    1  0.1244838E-006  0.9118800E+02  0.7816164E-02  0.1184000E+00
        -11   -1    0    0    0    0  0.00000000000E+00  0.00000000000E+00  0.45593999997E+02  0.45594000000E+02  0.51100000000E-03 0.  1.
         11   -1    0    0    0    0 -0.00000000000E+00 -0.00000000000E+00 -0.45593999997E+02  0.45594000000E+02  0.51100000000E-03 0. -1.
         23    2    1    2    0    0  0.00000000000E+00  0.35527136788E-14 -0.35527136788E-14  0.91188000000E+02  0.91188000000E+02 0.  0.
    9900012    2    3    3    0    0 -0.45566369745E+01 -0.23129715210E+02  0.28284846294E+02  0.54367092948E+02  0.40000019995E+02 0.  0.
         12    1    3    3    0    0  0.45566369745E+01  0.23129715210E+02 -0.28284846294E+02  0.36820907052E+02  0.00000000000E+00 0. -1.
         11    1    4    4    0    0  0.18691381105E+00  0.38411316848E+00 -0.54275046123E+01  0.54442893270E+01  0.51100000000E-03 0. -1.
        -11    1    4    4    0    0 -0.51985207102E+01 -0.85258467429E+00  0.23463412699E+02  0.24047520744E+02  0.51100000000E-03 0.  1.
        -12    1    4    4    0    0  0.45496992467E+00 -0.22661243704E+02  0.10248938208E+02  0.24875282877E+02  0.00000000000E+00 0.  1.
</event>
<event>
 8    1  0.1244838E-006  0.9118800E+02  0.7816164E-02  0.1184000E+00
        -11   -1    0    0    0    0  0.00000000000E+00  0.00000000000E+00  0.45593999997E+02  0.45594000000E+02  0.51100000000E-03 0.  1.
         11   -1    0    0    0    0 -0.00000000000E+00 -0.00000000000E+00 -0.45593999997E+02  0.45594000000E+02  0.51100000000E-03 0. -1.
         23    2    1    2    0    0 -0.66613381478E-15  0.44408920985E-15  0.71054273576E-14  0.91188000000E+02  0.91188000000E+02 0.  0.
    9900012    2    3    3    0    0  0.15020709034E+01 -0.35301247584E+01 -0.36620504020E+02  0.54367091368E+02  0.40000016392E+02 0.  0.
        -12    1    3    3    0    0 -0.15020709034E+01  0.35301247584E+01  0.36620504020E+02  0.36820908632E+02  0.00000000000E+00 0.  1.
         11    1    4    4    0    0  0.11603107682E+00 -0.81337514209E+01 -0.32406847793E+02  0.33412200758E+02  0.51100000000E-03 0. -1.
        -11    1    4    4    0    0  0.98512499451E+01 -0.13128998003E+01 -0.37314255393E+01  0.10615760368E+02  0.51100000000E-03 0.  1.
        -12    1    4    4    0    0 -0.84652101185E+01  0.59165264628E+01 -0.48223068788E+00  0.10339130243E+02  0.00000000000E+00 0.  1.
</event>
<event>
 8    1  0.1244838E-006  0.9118800E+02  0.7816164E-02  0.1184000E+00
        -11   -1    0    0    0    0  0.00000000000E+00  0.00000000000E+00  0.45593999997E+02  0.45594000000E+02  0.51100000000E-03 0. -1.
         11   -1    0    0    0    0 -0.00000000000E+00 -0.00000000000E+00 -0.45593999997E+02  0.45594000000E+02  0.51100000000E-03 0.  1.
         23    2    1    2    0    0 -0.71054273576E-14  0.88817841970E-15  0.00000000000E+00  0.91188000000E+02  0.91188000000E+02 0.  0.
    9900012    2    3    3    0    0 -0.34332728222E+02  0.78823295790E+01  0.10719712081E+02  0.54367087819E+02  0.40000008300E+02 0.  0.
         12    1    3    3    0    0  0.34332728222E+02 -0.78823295790E+01 -0.10719712081E+02  0.36820912181E+02  0.00000000000E+00 0. -1.
         11    1    4    4    0    0  0.45618724501E+01  0.18169827617E+01  0.10300915338E+02  0.11411440035E+02  0.51100000000E-03 0. -1.
        -11    1    4    4    0    0 -0.15736891845E+01 -0.10005727459E+01  0.43851533718E+01  0.47652086864E+01  0.51100000000E-03 0.  1.
        -12    1    4    4    0    0 -0.37320911488E+02  0.70659195632E+01 -0.39663566286E+01  0.38190439098E+02  0.00000000000E+00 0.  1.
</event>
<event>
 8    1  0.1244838E-006  0.9118800E+02  0.7816164E-02  0.1184000E+00
        -11   -1    0    0    0    0  0.00000000000E+00  0.00000000000E+00  0.45593999997E+02  0.45594000000E+02  0.51100000000E-03 0.  1.
         11   -1    0    0    0    0 -0.00000000000E+00 -0.00000000000E+00 -0.45593999997E+02  0.45594000000E+02  0.51100000000E-03 0. -1.
         23    2    1    2    0    0  0.00000000000E+00  0.88817841970E-15  0.88817841970E-15  0.91188000000E+02  0.91188000000E+02 0.  0.
    9900012    2    3    3    0    0  0.35500357809E+02 -0.62932512993E+01  0.74769123331E+01  0.54367019099E+02  0.39999851640E+02 0.  0.
         12    1    3    3    0    0 -0.35500357809E+02  0.62932512993E+01 -0.74769123331E+01  0.36820980901E+02  0.00000000000E+00 0. -1.
         11    1    4    4    0    0  0.12572848271E+02  0.41376487000E+01 -0.10782304263E+02  0.17072045452E+02  0.51100000000E-03 0. -1.
        -11    1    4    4    0    0 -0.36031523488E+01 -0.35128720622E+01  0.37422173140E+01  0.62711376688E+01  0.51100000000E-03 0.  1.
        -12    1    4    4    0    0  0.26530661886E+02 -0.69180279370E+01  0.14516999283E+02  0.31023835979E+02  0.00000000000E+00 0.  1.
</event>
<event>
 8    1  0.1244838E-006  0.9118800E+02  0.7816164E-02  0.1184000E+00
        -11   -1    0    0    0    0  0.00000000000E+00  0.00000000000E+00  0.45593999997E+02  0.45594000000E+02  0.51100000000E-03 0.  1.
         11   -1    0    0    0    0 -0.00000000000E+00 -0.00000000000E+00 -0.45593999997E+02  0.45594000000E+02  0.51100000000E-03 0. -1.
         23    2    1    2    0    0  0.00000000000E+00 -0.17763568394E-14  0.35527136788E-14  0.91188000000E+02  0.91188000000E+02 0.  0.
    9900012    2    3    3    0    0 -0.14421990233E+02 -0.11566815124E+02  0.31843293296E+02  0.54367077384E+02  0.39999984512E+02 0.  0.
         12    1    3    3    0    0  0.14421990233E+02  0.11566815124E+02 -0.31843293296E+02  0.36820922616E+02  0.00000000000E+00 0. -1.
         11    1    4    4    0    0 -0.92356566218E+01 -0.50980034173E+01 -0.24996671958E+01  0.10841371151E+02  0.51100000000E-03 0. -1.
        -11    1    4    4    0    0 -0.14948463096E+02 -0.12243331653E+01  0.24378739785E+02  0.28623041319E+02  0.51100000000E-03 0.  1.
         12    1    4    4    0    0  0.97621294844E+01 -0.52444785414E+01  0.99642207066E+01  0.14902664914E+02  0.00000000000E+00 0. -1.
</event>
<event>
 8    1  0.1244838E-006  0.9118800E+02  0.7816164E-02  0.1184000E+00
        -11   -1    0    0    0    0  0.00000000000E+00  0.00000000000E+00  0.45593999997E+02  0.45594000000E+02  0.51100000000E-03 0.  1.
         11   -1    0    0    0    0 -0.00000000000E+00 -0.00000000000E+00 -0.45593999997E+02  0.45594000000E+02  0.51100000000E-03 0. -1.
         23    2    1    2    0    0  0.00000000000E+00  0.17763568394E-14  0.35527136788E-14  0.91188000000E+02  0.91188000000E+02 0.  0.
    9900012    2    3    3    0    0  0.26539412042E+02  0.93707820989E+01 -0.23740848212E+02  0.54367084442E+02  0.40000000603E+02 0.  0.
        -12    1    3    3    0    0 -0.26539412042E+02 -0.93707820989E+01  0.23740848212E+02  0.36820915558E+02  0.00000000000E+00 0.  1.
         11    1    4    4    0    0  0.42712434289E+01  0.14837710302E+02 -0.65678976954E+01  0.16779107480E+02  0.51100000000E-03 0. -1.
        -11    1    4    4    0    0  0.38768177253E+01  0.83560692667E+01 -0.59553901238E+00  0.92308329116E+01  0.51100000000E-03 0.  1.
        -12    1    4    4    0    0  0.18391350888E+02 -0.13822997469E+02 -0.16577411504E+02  0.28357144051E+02  0.00000000000E+00 0.  1.
</event>
<event>
 8    1  0.1244838E-006  0.9118800E+02  0.7816164E-02  0.1184000E+00
        -11   -1    0    0    0    0  0.00000000000E+00  0.00000000000E+00  0.45593999997E+02  0.45594000000E+02  0.51100000000E-03 0.  1.
         11   -1    0    0    0    0 -0.00000000000E+00 -0.00000000000E+00 -0.45593999997E+02  0.45594000000E+02  0.51100000000E-03 0. -1.
         23    2    1    2    0    0  0.00000000000E+00  0.00000000000E+00  0.00000000000E+00  0.91188000000E+02  0.91188000000E+02 0.  0.
    9900012    2    3    3    0    0  0.22183237099E+02 -0.16916346164E+02 -0.24031691306E+02  0.54367068958E+02  0.39999965304E+02 0.  0.
        -12    1    3    3    0    0 -0.22183237099E+02  0.16916346164E+02  0.24031691306E+02  0.36820931042E+02  0.00000000000E+00 0.  1.
         11    1    4    4    0    0  0.12250003208E+02  0.96981285478E+01  0.10515370126E+01  0.15659565967E+02  0.51100000000E-03 0. -1.
        -11    1    4    4    0    0  0.11047335392E+02 -0.20716229569E+02 -0.19914475473E+02  0.30786232644E+02  0.51100000000E-03 0.  1.
         12    1    4    4    0    0 -0.11141015011E+01 -0.58982451434E+01 -0.51687528462E+01  0.79212703471E+01  0.00000000000E+00 0. -1.
</event>
<event>
 8    1  0.1244838E-006  0.9118800E+02  0.7816164E-02  0.1184000E+00
        -11   -1    0    0    0    0  0.00000000000E+00  0.00000000000E+00  0.45593999997E+02  0.45594000000E+02  0.51100000000E-03 0.  1.
         11   -1    0    0    0    0 -0.00000000000E+00 -0.00000000000E+00 -0.45593999997E+02  0.45594000000E+02  0.51100000000E-03 0. -1.
         23    2    1    2    0    0  0.00000000000E+00 -0.11102230246E-14  0.00000000000E+00  0.91188000000E+02  0.91188000000E+02 0.  0.
    9900012    2    3    3    0    0 -0.13001793465E+01  0.11039870103E+01  0.36781198175E+02  0.54367274955E+02  0.40000434913E+02 0.  0.
         12    1    3    3    0    0  0.13001793465E+01 -0.11039870103E+01 -0.36781198175E+02  0.36820725045E+02  0.00000000000E+00 0. -1.
         11    1    4    4    0    0 -0.12725732805E+01  0.51803089696E+01  0.25963759500E+01  0.59326395567E+01  0.51100000000E-03 0. -1.
        -11    1    4    4    0    0  0.18318239933E+01  0.10431795083E+02  0.31922816355E+02  0.33633972886E+02  0.51100000000E-03 0.  1.
         12    1    4    4    0    0 -0.18594300593E+01 -0.14508117043E+02  0.22620058701E+01  0.14800662513E+02  0.00000000000E+00 0. -1.
</event>
<event>
 8    1  0.1244838E-006  0.9118800E+02  0.7816164E-02  0.1184000E+00
        -11   -1    0    0    0    0  0.00000000000E+00  0.00000000000E+00  0.45593999997E+02  0.45594000000E+02  0.51100000000E-03 0.  1.
         11   -1    0    0    0    0 -0.00000000000E+00 -0.00000000000E+00 -0.45593999997E+02  0.45594000000E+02  0.51100000000E-03 0. -1.
         23    2    1    2    0    0 -0.17763568394E-14  0.00000000000E+00  0.00000000000E+00  0.91188000000E+02  0.91188000000E+02 0.  0.
    9900012    2    3    3    0    0  0.40756645428E+01  0.19314232287E+02 -0.31082621703E+02  0.54367082274E+02  0.39999995659E+02 0.  0.
        -12    1    3    3    0    0 -0.40756645428E+01 -0.19314232287E+02  0.31082621703E+02  0.36820917726E+02  0.00000000000E+00 0.  1.
         11    1    4    4    0    0 -0.94943928269E+01  0.16432218929E+02 -0.93295542680E+01  0.21147148678E+02  0.51100000000E-03 0. -1.
        -11    1    4    4    0    0 -0.45872613493E+01 -0.29080406499E+01 -0.20432660744E+01  0.58029823039E+01  0.51100000000E-03 0.  1.
         12    1    4    4    0    0  0.18157318719E+02  0.57900540077E+01 -0.19709801360E+02  0.27416951292E+02  0.00000000000E+00 0. -1.
</event>
<event>
 8    1  0.1244838E-006  0.9118800E+02  0.7816164E-02  0.1184000E+00
        -11   -1    0    0    0    0  0.00000000000E+00  0.00000000000E+00  0.45593999997E+02  0.45594000000E+02  0.51100000000E-03 0.  1.
         11   -1    0    0    0    0 -0.00000000000E+00 -0.00000000000E+00 -0.45593999997E+02  0.45594000000E+02  0.51100000000E-03 0. -1.
         23    2    1    2    0    0  0.71054273576E-14  0.38857805862E-15 -0.35527136788E-14  0.91188000000E+02  0.91188000000E+02 0.  0.
    9900012    2    3    3    0    0  0.32947971244E+02 -0.27824085040E+00 -0.16435737740E+02  0.54367086077E+02  0.40000004330E+02 0.  0.
        -12    1    3    3    0    0 -0.32947971244E+02  0.27824085040E+00  0.16435737740E+02  0.36820913923E+02  0.00000000000E+00 0.  1.
         11    1    4    4    0    0  0.91257844987E+01 -0.68465618273E+01 -0.87455705022E+01  0.14374990617E+02  0.51100000000E-03 0. -1.
        -11    1    4    4    0    0  0.15315094326E+02 -0.50673065739E+01  0.85669490921E+01  0.18265331290E+02  0.51100000000E-03 0.  1.
         12    1    4    4    0    0  0.85070924193E+01  0.11635627551E+02 -0.16257116330E+02  0.21726764170E+02  0.00000000000E+00 0. -1.
</event>
<event>
 8    1  0.1244838E-006  0.9118800E+02  0.7816164E-02  0.1184000E+00
        -11   -1    0    0    0    0  0.00000000000E+00  0.00000000000E+00  0.45593999997E+02  0.45594000000E+02  0.51100000000E-03 0. -1.
         11   -1    0    0    0    0 -0.00000000000E+00 -0.00000000000E+00 -0.45593999997E+02  0.45594000000E+02  0.51100000000E-03 0.  1.
         23    2    1    2    0    0 -0.35527136788E-14  0.00000000000E+00  0.00000000000E+00  0.91188000000E+02  0.91188000000E+02 0.  0.
    9900012    2    3    3    0    0  0.23021478017E+02 -0.19341899603E+02 -0.21252769229E+02  0.54367112854E+02  0.40000065372E+02 0.  0.
         12    1    3    3    0    0 -0.23021478017E+02  0.19341899603E+02  0.21252769229E+02  0.36820887146E+02  0.00000000000E+00 0. -1.
         11    1    4    4    0    0 -0.38558495821E+00  0.83546726047E+01 -0.84864346092E+01  0.11915066208E+02  0.51100000000E-03 0. -1.
        -11    1    4    4    0    0  0.41084575815E+01 -0.18538673715E+02 -0.77537778659E+01  0.20510556265E+02  0.51100000000E-03 0.  1.
        -12    1    4    4    0    0  0.19298605394E+02 -0.91578984924E+01 -0.50125567537E+01  0.21941490381E+02  0.00000000000E+00 0.  1.
</event>
<event>
 8    1  0.1244838E-006  0.9118800E+02  0.7816164E-02  0.1184000E+00
        -11   -1    0    0    0    0  0.00000000000E+00  0.00000000000E+00  0.45593999997E+02  0.45594000000E+02  0.51100000000E-03 0. -1.
         11   -1    0    0    0    0 -0.00000000000E+00 -0.00000000000E+00 -0.45593999997E+02  0.45594000000E+02  0.51100000000E-03 0.  1.
         23    2    1    2    0    0  0.00000000000E+00  0.17763568394E-14  0.35527136788E-14  0.91188000000E+02  0.91188000000E+02 0.  0.
    9900012    2    3    3    0    0  0.23938639811E+02 -0.95777586716E+01 -0.26286599250E+02  0.54367119547E+02  0.40000080632E+02 0.  0.
         12    1    3    3    0    0 -0.23938639811E+02  0.95777586716E+01  0.26286599250E+02  0.36820880453E+02  0.00000000000E+00 0. -1.
         11    1    4    4    0    0 -0.21295277559E+01 -0.70422330024E+01 -0.81693959252E+01  0.10993951254E+02  0.51100000000E-03 0. -1.
        -11    1    4    4    0    0  0.61100707247E+01 -0.14691652257E+02 -0.90637989075E+01  0.18312019582E+02  0.51100000000E-03 0.  1.
        -12    1    4    4    0    0  0.19958096843E+02  0.12156126587E+02 -0.90534044170E+01  0.25061148711E+02  0.00000000000E+00 0.  1.
</event>
<event>
 8    1  0.1244838E-006  0.9118800E+02  0.7816164E-02  0.1184000E+00
        -11   -1    0    0    0    0  0.00000000000E+00  0.00000000000E+00  0.45593999997E+02  0.45594000000E+02  0.51100000000E-03 0. -1.
         11   -1    0    0    0    0 -0.00000000000E+00 -0.00000000000E+00 -0.45593999997E+02  0.45594000000E+02  0.51100000000E-03 0.  1.
         23    2    1    2    0    0 -0.26645352591E-14  0.35527136788E-14  0.35527136788E-14  0.91188000000E+02  0.91188000000E+02 0.  0.
    9900012    2    3    3    0    0 -0.63089592741E+01  0.26528215253E+02  0.24743293441E+02  0.54367085537E+02  0.40000003098E+02 0.  0.
        -12    1    3    3    0    0  0.63089592741E+01 -0.26528215253E+02 -0.24743293441E+02  0.36820914463E+02  0.00000000000E+00 0.  1.
         11    1    4    4    0    0 -0.18794864266E+02  0.19158601919E+02  0.76965355387E+01  0.27920164932E+02  0.51100000000E-03 0. -1.
        -11    1    4    4    0    0  0.14972658076E+01  0.35881251599E+01 -0.18164065490E+01  0.42913610981E+01  0.51100000000E-03 0.  1.
        -12    1    4    4    0    0  0.10988639184E+02  0.37814881738E+01  0.18863164451E+02  0.22155559507E+02  0.00000000000E+00 0.  1.
</event>
<event>
 8    1  0.1244838E-006  0.9118800E+02  0.7816164E-02  0.1184000E+00
        -11   -1    0    0    0    0  0.00000000000E+00  0.00000000000E+00  0.45593999997E+02  0.45594000000E+02  0.51100000000E-03 0. -1.
         11   -1    0    0    0    0 -0.00000000000E+00 -0.00000000000E+00 -0.45593999997E+02  0.45594000000E+02  0.51100000000E-03 0.  1.
         23    2    1    2    0    0  0.00000000000E+00  0.00000000000E+00  0.00000000000E+00  0.91188000000E+02  0.91188000000E+02 0.  0.
    9900012    2    3    3    0    0  0.28587937744E+02  0.10950164463E+02  0.20459855572E+02  0.54367055196E+02  0.39999933930E+02 0.  0.
        -12    1    3    3    0    0 -0.28587937744E+02 -0.10950164463E+02 -0.20459855572E+02  0.36820944804E+02  0.00000000000E+00 0.  1.
         11    1    4    4    0    0  0.17386394306E+02  0.26847199034E+01  0.29391886062E+02  0.34254596691E+02  0.51100000000E-03 0. -1.
        -11    1    4    4    0    0  0.68946913823E+00  0.50262029483E+01  0.11379707999E+01  0.51993328007E+01  0.51100000000E-03 0.  1.
         12    1    4    4    0    0  0.10512074299E+02  0.32392416114E+01 -0.10070001289E+02  0.14913125704E+02  0.00000000000E+00 0. -1.
</event>
<event>
 8    1  0.1244838E-006  0.9118800E+02  0.7816164E-02  0.1184000E+00
        -11   -1    0    0    0    0  0.00000000000E+00  0.00000000000E+00  0.45593999997E+02  0.45594000000E+02  0.51100000000E-03 0. -1.
         11   -1    0    0    0    0 -0.00000000000E+00 -0.00000000000E+00 -0.45593999997E+02  0.45594000000E+02  0.51100000000E-03 0.  1.
         23    2    1    2    0    0  0.00000000000E+00  0.00000000000E+00  0.00000000000E+00  0.91188000000E+02  0.91188000000E+02 0.  0.
    9900012    2    3    3    0    0  0.27768361575E+02  0.94728211642E+01  0.22247767409E+02  0.54367090179E+02  0.40000013681E+02 0.  0.
        -12    1    3    3    0    0 -0.27768361575E+02 -0.94728211642E+01 -0.22247767409E+02  0.36820909821E+02  0.00000000000E+00 0.  1.
         11    1    4    4    0    0  0.19112515641E+02  0.14345599899E+02  0.20722795863E+02  0.31630977842E+02  0.51100000000E-03 0. -1.
        -11    1    4    4    0    0  0.66997777017E+01 -0.12202437211E+02 -0.25075471200E+01  0.14144761856E+02  0.51100000000E-03 0.  1.
         12    1    4    4    0    0  0.19560682317E+01  0.73296584762E+01  0.40325186663E+01  0.85913504817E+01  0.00000000000E+00 0. -1.
</event>
<event>
 8    1  0.1244838E-006  0.9118800E+02  0.7816164E-02  0.1184000E+00
        -11   -1    0    0    0    0  0.00000000000E+00  0.00000000000E+00  0.45593999997E+02  0.45594000000E+02  0.51100000000E-03 0.  1.
         11   -1    0    0    0    0 -0.00000000000E+00 -0.00000000000E+00 -0.45593999997E+02  0.45594000000E+02  0.51100000000E-03 0. -1.
         23    2    1    2    0    0  0.00000000000E+00 -0.71054273576E-14  0.88817841970E-15  0.91188000000E+02  0.91188000000E+02 0.  0.
    9900012    2    3    3    0    0  0.17634929577E+02  0.32260201986E+02 -0.20170826924E+01  0.54367082087E+02  0.39999995235E+02 0.  0.
         12    1    3    3    0    0 -0.17634929577E+02 -0.32260201986E+02  0.20170826924E+01  0.36820917913E+02  0.00000000000E+00 0. -1.
         11    1    4    4    0    0  0.14642386252E+01 -0.22244420842E+01  0.88792494371E+00  0.28072314305E+01  0.51100000000E-03 0. -1.
        -11    1    4    4    0    0  0.21858080893E+02  0.28483675571E+02  0.90475431073E+01  0.37026389385E+02  0.51100000000E-03 0.  1.
        -12    1    4    4    0    0 -0.56873899413E+01  0.60009684988E+01 -0.11952550743E+02  0.14533461272E+02  0.00000000000E+00 0.  1.
</event>
<event>
 8    1  0.1244838E-006  0.9118800E+02  0.7816164E-02  0.1184000E+00
        -11   -1    0    0    0    0  0.00000000000E+00  0.00000000000E+00  0.45593999997E+02  0.45594000000E+02  0.51100000000E-03 0. -1.
         11   -1    0    0    0    0 -0.00000000000E+00 -0.00000000000E+00 -0.45593999997E+02  0.45594000000E+02  0.51100000000E-03 0.  1.
         23    2    1    2    0    0  0.00000000000E+00  0.00000000000E+00  0.00000000000E+00  0.91188000000E+02  0.91188000000E+02 0.  0.
    9900012    2    3    3    0    0  0.94957528755E+01 -0.28032315372E+02 -0.21904336487E+02  0.54367082239E+02  0.39999995581E+02 0.  0.
         12    1    3    3    0    0 -0.94957528755E+01  0.28032315372E+02  0.21904336487E+02  0.36820917761E+02  0.00000000000E+00 0. -1.
         11    1    4    4    0    0  0.46781194509E+01  0.38952468871E+01  0.57551323462E+01  0.83773085470E+01  0.51100000000E-03 0. -1.
        -11    1    4    4    0    0 -0.64643785997E+01 -0.15538067355E+02 -0.11995649899E+02  0.20666769088E+02  0.51100000000E-03 0.  1.
         12    1    4    4    0    0  0.11282012024E+02 -0.16389494905E+02 -0.15663818935E+02  0.25323004604E+02  0.00000000000E+00 0. -1.
</event>
<event>
 8    1  0.1244838E-006  0.9118800E+02  0.7816164E-02  0.1184000E+00
        -11   -1    0    0    0    0  0.00000000000E+00  0.00000000000E+00  0.45593999997E+02  0.45594000000E+02  0.51100000000E-03 0. -1.
         11   -1    0    0    0    0 -0.00000000000E+00 -0.00000000000E+00 -0.45593999997E+02  0.45594000000E+02  0.51100000000E-03 0.  1.
         23    2    1    2    0    0  0.00000000000E+00 -0.16653345369E-15  0.00000000000E+00  0.91188000000E+02  0.91188000000E+02 0.  0.
    9900012    2    3    3    0    0 -0.34794956674E+02 -0.28136390493E+00  0.12042034978E+02  0.54367098571E+02  0.40000032813E+02 0.  0.
         12    1    3    3    0    0  0.34794956674E+02  0.28136390493E+00 -0.12042034978E+02  0.36820901429E+02  0.00000000000E+00 0. -1.
         11    1    4    4    0    0 -0.56809901096E+01 -0.11432499271E+01  0.42077793250E+01  0.71614297546E+01  0.51100000000E-03 0. -1.
        -11    1    4    4    0    0 -0.93611585913E+01 -0.10887545709E+02 -0.10514283596E+02  0.17796631747E+02  0.51100000000E-03 0.  1.
        -12    1    4    4    0    0 -0.19752807973E+02  0.11749431731E+02  0.18348539249E+02  0.29409037070E+02  0.00000000000E+00 0.  1.
</event>
<event>
 8    1  0.1244838E-006  0.9118800E+02  0.7816164E-02  0.1184000E+00
        -11   -1    0    0    0    0  0.00000000000E+00  0.00000000000E+00  0.45593999997E+02  0.45594000000E+02  0.51100000000E-03 0.  1.
         11   -1    0    0    0    0 -0.00000000000E+00 -0.00000000000E+00 -0.45593999997E+02  0.45594000000E+02  0.51100000000E-03 0. -1.
         23    2    1    2    0    0  0.00000000000E+00  0.35527136788E-14  0.00000000000E+00  0.91188000000E+02  0.91188000000E+02 0.  0.
    9900012    2    3    3    0    0 -0.89088073175E+01 -0.22415177006E+02  0.27820357175E+02  0.54367091791E+02  0.40000017355E+02 0.  0.
         12    1    3    3    0    0  0.89088073175E+01  0.22415177006E+02 -0.27820357175E+02  0.36820908209E+02  0.00000000000E+00 0. -1.
         11    1    4    4    0    0  0.47163424907E+01  0.53870648225E+01  0.81952899554E+01  0.10882423058E+02  0.51100000000E-03 0. -1.
        -11    1    4    4    0    0 -0.16997730917E+01 -0.19303541321E+02  0.21240531294E+02  0.28751975689E+02  0.51100000000E-03 0.  1.
         12    1    4    4    0    0 -0.11925376717E+02 -0.84987005076E+01 -0.16154640753E+01  0.14732693044E+02  0.00000000000E+00 0. -1.
</event>
<event>
 8    1  0.1244838E-006  0.9118800E+02  0.7816164E-02  0.1184000E+00
        -11   -1    0    0    0    0  0.00000000000E+00  0.00000000000E+00  0.45593999997E+02  0.45594000000E+02  0.51100000000E-03 0.  1.
         11   -1    0    0    0    0 -0.00000000000E+00 -0.00000000000E+00 -0.45593999997E+02  0.45594000000E+02  0.51100000000E-03 0. -1.
         23    2    1    2    0    0  0.00000000000E+00  0.00000000000E+00  0.88817841970E-15  0.91188000000E+02  0.91188000000E+02 0.  0.
    9900012    2    3    3    0    0  0.33912046653E+02 -0.13387265954E+02  0.51511646818E+01  0.54367078019E+02  0.39999985961E+02 0.  0.
         12    1    3    3    0    0 -0.33912046653E+02  0.13387265954E+02 -0.51511646818E+01  0.36820921981E+02  0.00000000000E+00 0. -1.
         11    1    4    4    0    0  0.28687214538E+02 -0.65079393858E+01 -0.67810794475E+01  0.30187623154E+02  0.51100000000E-03 0.  1.
        -11    1    4    4    0    0  0.36088308120E+01  0.35632179288E+01 -0.29956030932E+01  0.58901460076E+01  0.51100000000E-03 0. -1.
        -12    1    4    4    0    0  0.16160013036E+01 -0.10442544497E+02  0.14927847223E+02  0.18289308857E+02  0.00000000000E+00 0.  1.
</event>
<event>
 8    1  0.1244838E-006  0.9118800E+02  0.7816164E-02  0.1184000E+00
        -11   -1    0    0    0    0  0.00000000000E+00  0.00000000000E+00  0.45593999997E+02  0.45594000000E+02  0.51100000000E-03 0.  1.
         11   -1    0    0    0    0 -0.00000000000E+00 -0.00000000000E+00 -0.45593999997E+02  0.45594000000E+02  0.51100000000E-03 0. -1.
         23    2    1    2    0    0  0.35527136788E-14  0.00000000000E+00  0.00000000000E+00  0.91188000000E+02  0.91188000000E+02 0.  0.
    9900012    2    3    3    0    0  0.64605263846E+01  0.18873269050E+02  0.30948948365E+02  0.54367135118E+02  0.40000116128E+02 0.  0.
         12    1    3    3    0    0 -0.64605263846E+01 -0.18873269050E+02 -0.30948948365E+02  0.36820864882E+02  0.00000000000E+00 0. -1.
         11    1    4    4    0    0  0.11611416075E+02  0.74448785294E+01  0.43380809094E+01  0.14459258135E+02  0.51100000000E-03 0. -1.
        -11    1    4    4    0    0 -0.13419172293E+02  0.47131516169E+01  0.25500187247E+02  0.29198416620E+02  0.51100000000E-03 0.  1.
        -12    1    4    4    0    0  0.82682826027E+01  0.67152389036E+01  0.11106802077E+01  0.10709460362E+02  0.00000000000E+00 0.  1.
</event>
<event>
 8    1  0.1244838E-006  0.9118800E+02  0.7816164E-02  0.1184000E+00
        -11   -1    0    0    0    0  0.00000000000E+00  0.00000000000E+00  0.45593999997E+02  0.45594000000E+02  0.51100000000E-03 0. -1.
         11   -1    0    0    0    0 -0.00000000000E+00 -0.00000000000E+00 -0.45593999997E+02  0.45594000000E+02  0.51100000000E-03 0.  1.
         23    2    1    2    0    0  0.35527136788E-14  0.71054273576E-14 -0.17763568394E-14  0.91188000000E+02  0.91188000000E+02 0.  0.
    9900012    2    3    3    0    0 -0.16364355127E+02 -0.31886839938E+02  0.84389902663E+01  0.54367092398E+02  0.40000018740E+02 0.  0.
        -12    1    3    3    0    0  0.16364355127E+02  0.31886839938E+02 -0.84389902663E+01  0.36820907602E+02  0.00000000000E+00 0.  1.
         11    1    4    4    0    0 -0.39593082598E+00  0.50525610037E+01  0.59691530759E+01  0.78304484303E+01  0.51100000000E-03 0. -1.
        -11    1    4    4    0    0 -0.36795788813E+01 -0.84042589656E+01  0.10994505199E+02  0.14319567533E+02  0.51100000000E-03 0.  1.
        -12    1    4    4    0    0 -0.12288845419E+02 -0.28535141976E+02 -0.85246680089E+01  0.32217076434E+02  0.00000000000E+00 0.  1.
</event>
<event>
 8    1  0.1244838E-006  0.9118800E+02  0.7816164E-02  0.1184000E+00
        -11   -1    0    0    0    0  0.00000000000E+00  0.00000000000E+00  0.45593999997E+02  0.45594000000E+02  0.51100000000E-03 0.  1.
         11   -1    0    0    0    0 -0.00000000000E+00 -0.00000000000E+00 -0.45593999997E+02  0.45594000000E+02  0.51100000000E-03 0. -1.
         23    2    1    2    0    0  0.44408920985E-15  0.00000000000E+00  0.00000000000E+00  0.91188000000E+02  0.91188000000E+02 0.  0.
    9900012    2    3    3    0    0  0.27122301783E+01 -0.30787608921E+02 -0.20013461982E+02  0.54367194521E+02  0.40000251548E+02 0.  0.
         12    1    3    3    0    0 -0.27122301783E+01  0.30787608921E+02  0.20013461982E+02  0.36820805479E+02  0.00000000000E+00 0. -1.
         11    1    4    4    0    0 -0.14529518397E+02 -0.47534800445E+01 -0.10831216441E+01  0.15325652683E+02  0.51100000000E-03 0. -1.
        -11    1    4    4    0    0  0.18209229636E+02 -0.22407581298E+02 -0.12220171448E+02  0.31352963720E+02  0.51100000000E-03 0.  1.
        -12    1    4    4    0    0 -0.96748105985E+00 -0.36265475787E+01 -0.67101688897E+01  0.76885781175E+01  0.00000000000E+00 0.  1.
</event>
<event>
 8    1  0.1244838E-006  0.9118800E+02  0.7816164E-02  0.1184000E+00
        -11   -1    0    0    0    0  0.00000000000E+00  0.00000000000E+00  0.45593999997E+02  0.45594000000E+02  0.51100000000E-03 0. -1.
         11   -1    0    0    0    0 -0.00000000000E+00 -0.00000000000E+00 -0.45593999997E+02  0.45594000000E+02  0.51100000000E-03 0.  1.
         23    2    1    2    0    0  0.00000000000E+00  0.00000000000E+00  0.00000000000E+00  0.91188000000E+02  0.91188000000E+02 0.  0.
    9900012    2    3    3    0    0 -0.10938405607E+02 -0.25318098449E+02  0.24395043096E+02  0.54367177712E+02  0.40000213230E+02 0.  0.
        -12    1    3    3    0    0  0.10938405607E+02  0.25318098449E+02 -0.24395043096E+02  0.36820822288E+02  0.00000000000E+00 0.  1.
         11    1    4    4    0    0 -0.12878634299E+02 -0.15036249181E+02  0.30497136635E+02  0.36359639080E+02  0.51100000000E-03 0. -1.
        -11    1    4    4    0    0  0.69939882717E+01 -0.40740850861E+01 -0.26116461924E+00  0.80982867603E+01  0.51100000000E-03 0.  1.
         12    1    4    4    0    0 -0.50537595793E+01 -0.62077641822E+01 -0.58409289192E+01  0.99092518722E+01  0.00000000000E+00 0. -1.
</event>
<event>
 8    1  0.1244838E-006  0.9118800E+02  0.7816164E-02  0.1184000E+00
        -11   -1    0    0    0    0  0.00000000000E+00  0.00000000000E+00  0.45593999997E+02  0.45594000000E+02  0.51100000000E-03 0.  1.
         11   -1    0    0    0    0 -0.00000000000E+00 -0.00000000000E+00 -0.45593999997E+02  0.45594000000E+02  0.51100000000E-03 0. -1.
         23    2    1    2    0    0  0.00000000000E+00  0.35527136788E-14  0.00000000000E+00  0.91188000000E+02  0.91188000000E+02 0.  0.
    9900012    2    3    3    0    0 -0.23032307977E+02 -0.26259818657E+02  0.11649676714E+02  0.54367078581E+02  0.39999987241E+02 0.  0.
         12    1    3    3    0    0  0.23032307977E+02  0.26259818657E+02 -0.11649676714E+02  0.36820921419E+02  0.00000000000E+00 0. -1.
         11    1    4    4    0    0 -0.73719327383E+01 -0.10748131790E+01  0.12139937671E+02  0.14243549508E+02  0.51100000000E-03 0.  1.
        -11    1    4    4    0    0 -0.19473842222E+02 -0.22169628910E+02  0.77923268616E+01  0.30519556601E+02  0.51100000000E-03 0. -1.
         12    1    4    4    0    0  0.38134669842E+01 -0.30153765673E+01 -0.82825878187E+01  0.96039724727E+01  0.00000000000E+00 0. -1.
</event>
<event>
 8    1  0.1244838E-006  0.9118800E+02  0.7816164E-02  0.1184000E+00
        -11   -1    0    0    0    0  0.00000000000E+00  0.00000000000E+00  0.45593999997E+02  0.45594000000E+02  0.51100000000E-03 0.  1.
         11   -1    0    0    0    0 -0.00000000000E+00 -0.00000000000E+00 -0.45593999997E+02  0.45594000000E+02  0.51100000000E-03 0. -1.
         23    2    1    2    0    0  0.00000000000E+00  0.00000000000E+00 -0.88817841970E-15  0.91188000000E+02  0.91188000000E+02 0.  0.
    9900012    2    3    3    0    0 -0.26219865429E+02 -0.25494092759E+02 -0.42837452167E+01  0.54367074132E+02  0.39999977098E+02 0.  0.
         12    1    3    3    0    0  0.26219865429E+02  0.25494092759E+02  0.42837452167E+01  0.36820925868E+02  0.00000000000E+00 0. -1.
         11    1    4    4    0    0 -0.12479685622E+02 -0.92315986476E+01 -0.19812488824E+02  0.25169419550E+02  0.51100000000E-03 0. -1.
        -11    1    4    4    0    0 -0.13500727575E+02 -0.10010888100E+02  0.15613987950E+02  0.22940883714E+02  0.51100000000E-03 0.  1.
         12    1    4    4    0    0 -0.23945223163E+00 -0.62516060115E+01 -0.85244343299E-01  0.62567708678E+01  0.00000000000E+00 0. -1.
</event>
<event>
 8    1  0.1244838E-006  0.9118800E+02  0.7816164E-02  0.1184000E+00
        -11   -1    0    0    0    0  0.00000000000E+00  0.00000000000E+00  0.45593999997E+02  0.45594000000E+02  0.51100000000E-03 0.  1.
         11   -1    0    0    0    0 -0.00000000000E+00 -0.00000000000E+00 -0.45593999997E+02  0.45594000000E+02  0.51100000000E-03 0. -1.
         23    2    1    2    0    0  0.35527136788E-14 -0.35527136788E-14  0.35527136788E-14  0.91188000000E+02  0.91188000000E+02 0.  0.
    9900012    2    3    3    0    0  0.15472695717E+02  0.19961986831E+02  0.26793559476E+02  0.54367081212E+02  0.39999993239E+02 0.  0.
         12    1    3    3    0    0 -0.15472695717E+02 -0.19961986831E+02 -0.26793559476E+02  0.36820918788E+02  0.00000000000E+00 0. -1.
         11    1    4    4    0    0 -0.32696407310E+01  0.43836454851E+01 -0.50232591352E+01  0.74256333635E+01  0.51100000000E-03 0. -1.
        -11    1    4    4    0    0  0.12921889988E+02 -0.31820733021E+01  0.19985592646E+02  0.24010929700E+02  0.51100000000E-03 0.  1.
         12    1    4    4    0    0  0.58204464604E+01  0.18760414648E+02  0.11831225965E+02  0.22930518149E+02  0.00000000000E+00 0. -1.
</event>
<event>
 8    1  0.1244838E-006  0.9118800E+02  0.7816164E-02  0.1184000E+00
        -11   -1    0    0    0    0  0.00000000000E+00  0.00000000000E+00  0.45593999997E+02  0.45594000000E+02  0.51100000000E-03 0. -1.
         11   -1    0    0    0    0 -0.00000000000E+00 -0.00000000000E+00 -0.45593999997E+02  0.45594000000E+02  0.51100000000E-03 0.  1.
         23    2    1    2    0    0 -0.14210854715E-13  0.00000000000E+00  0.00000000000E+00  0.91188000000E+02  0.91188000000E+02 0.  0.
    9900012    2    3    3    0    0 -0.34422095150E+02  0.12894139548E+02  0.21542390753E+01  0.54367079110E+02  0.39999988448E+02 0.  0.
        -12    1    3    3    0    0  0.34422095150E+02 -0.12894139548E+02 -0.21542390753E+01  0.36820920890E+02  0.00000000000E+00 0.  1.
         11    1    4    4    0    0 -0.34629172732E+02  0.61171072826E+01  0.49167150773E+01  0.35507361111E+02  0.51100000000E-03 0. -1.
        -11    1    4    4    0    0  0.90258364208E+00 -0.51398192941E+01  0.25329989069E+01  0.58007312755E+01  0.51100000000E-03 0.  1.
        -12    1    4    4    0    0 -0.69550605949E+00  0.11916851559E+02 -0.52954749089E+01  0.13058986725E+02  0.00000000000E+00 0.  1.
</event>
<event>
 8    1  0.1244838E-006  0.9118800E+02  0.7816164E-02  0.1184000E+00
        -11   -1    0    0    0    0  0.00000000000E+00  0.00000000000E+00  0.45593999997E+02  0.45594000000E+02  0.51100000000E-03 0.  1.
         11   -1    0    0    0    0 -0.00000000000E+00 -0.00000000000E+00 -0.45593999997E+02  0.45594000000E+02  0.51100000000E-03 0. -1.
         23    2    1    2    0    0 -0.71054273576E-14 -0.53290705182E-14  0.35527136788E-14  0.91188000000E+02  0.91188000000E+02 0.  0.
    9900012    2    3    3    0    0  0.32376900553E+02  0.12019003122E+02 -0.12769513196E+02  0.54367073983E+02  0.39999976759E+02 0.  0.
         12    1    3    3    0    0 -0.32376900553E+02 -0.12019003122E+02  0.12769513196E+02  0.36820926017E+02  0.00000000000E+00 0. -1.
         11    1    4    4    0    0  0.31125579451E+01 -0.50966463504E+01  0.25944630324E+01  0.65111488748E+01  0.51100000000E-03 0. -1.
        -11    1    4    4    0    0  0.17218154336E+02 -0.27772719102E+01  0.36474940918E+01  0.17818032759E+02  0.51100000000E-03 0.  1.
         12    1    4    4    0    0  0.12046188273E+02  0.19892921383E+02 -0.19011470321E+02  0.30037892349E+02  0.00000000000E+00 0. -1.
</event>
<event>
 8    1  0.1244838E-006  0.9118800E+02  0.7816164E-02  0.1184000E+00
        -11   -1    0    0    0    0  0.00000000000E+00  0.00000000000E+00  0.45593999997E+02  0.45594000000E+02  0.51100000000E-03 0. -1.
         11   -1    0    0    0    0 -0.00000000000E+00 -0.00000000000E+00 -0.45593999997E+02  0.45594000000E+02  0.51100000000E-03 0.  1.
         23    2    1    2    0    0  0.88817841970E-15  0.71054273576E-14  0.00000000000E+00  0.91188000000E+02  0.91188000000E+02 0.  0.
    9900012    2    3    3    0    0  0.62008634562E+01  0.36278521524E+02  0.10949480691E+01  0.54367071945E+02  0.39999972113E+02 0.  0.
         12    1    3    3    0    0 -0.62008634562E+01 -0.36278521524E+02 -0.10949480691E+01  0.36820928055E+02  0.00000000000E+00 0. -1.
         11    1    4    4    0    0 -0.84138734641E+01  0.15985380878E+02  0.87873289639E+01  0.20088375222E+02  0.51100000000E-03 0. -1.
        -11    1    4    4    0    0  0.14598717212E+02  0.39182069528E+01 -0.94238575084E+01  0.17812466998E+02  0.51100000000E-03 0.  1.
        -12    1    4    4    0    0  0.16019708030E-01  0.16374933693E+02  0.17314766135E+01  0.16466229725E+02  0.00000000000E+00 0.  1.
</event>
<event>
 8    1  0.1244838E-006  0.9118800E+02  0.7816164E-02  0.1184000E+00
        -11   -1    0    0    0    0  0.00000000000E+00  0.00000000000E+00  0.45593999997E+02  0.45594000000E+02  0.51100000000E-03 0. -1.
         11   -1    0    0    0    0 -0.00000000000E+00 -0.00000000000E+00 -0.45593999997E+02  0.45594000000E+02  0.51100000000E-03 0.  1.
         23    2    1    2    0    0  0.00000000000E+00  0.88817841970E-15 -0.13322676296E-14  0.91188000000E+02  0.91188000000E+02 0.  0.
    9900012    2    3    3    0    0  0.35853684343E+02 -0.78668132327E+01 -0.28993552731E+01  0.54367086209E+02  0.40000004630E+02 0.  0.
         12    1    3    3    0    0 -0.35853684343E+02  0.78668132327E+01  0.28993552731E+01  0.36820913791E+02  0.00000000000E+00 0. -1.
         11    1    4    4    0    0  0.46025939771E+01  0.74625667091E+01  0.48969216663E+01  0.10042590068E+02  0.51100000000E-03 0. -1.
        -11    1    4    4    0    0  0.18764281546E+02  0.40964182729E+01 -0.89787515697E+01  0.21201341575E+02  0.51100000000E-03 0.  1.
        -12    1    4    4    0    0  0.12486808821E+02 -0.19425798215E+02  0.11824746302E+01  0.23123154565E+02  0.00000000000E+00 0.  1.
</event>
<event>
 8    1  0.1244838E-006  0.9118800E+02  0.7816164E-02  0.1184000E+00
        -11   -1    0    0    0    0  0.00000000000E+00  0.00000000000E+00  0.45593999997E+02  0.45594000000E+02  0.51100000000E-03 0.  1.
         11   -1    0    0    0    0 -0.00000000000E+00 -0.00000000000E+00 -0.45593999997E+02  0.45594000000E+02  0.51100000000E-03 0. -1.
         23    2    1    2    0    0  0.00000000000E+00  0.00000000000E+00  0.35527136788E-14  0.91188000000E+02  0.91188000000E+02 0.  0.
    9900012    2    3    3    0    0  0.19895749727E+02 -0.22080841459E+02  0.21734196314E+02  0.54367086023E+02  0.40000004206E+02 0.  0.
         12    1    3    3    0    0 -0.19895749727E+02  0.22080841459E+02 -0.21734196314E+02  0.36820913977E+02  0.00000000000E+00 0. -1.
         11    1    4    4    0    0  0.95076180651E+01  0.55659042409E+01 -0.37067921347E+01  0.11623871966E+02  0.51100000000E-03 0. -1.
        -11    1    4    4    0    0 -0.70386267484E+00  0.11494307011E+01  0.62727177325E+01  0.64158866585E+01  0.51100000000E-03 0.  1.
         12    1    4    4    0    0  0.11091994337E+02 -0.28796176400E+02  0.19168270716E+02  0.36327327398E+02  0.00000000000E+00 0. -1.
</event>
<event>
 8    1  0.1244838E-006  0.9118800E+02  0.7816164E-02  0.1184000E+00
        -11   -1    0    0    0    0  0.00000000000E+00  0.00000000000E+00  0.45593999997E+02  0.45594000000E+02  0.51100000000E-03 0.  1.
         11   -1    0    0    0    0 -0.00000000000E+00 -0.00000000000E+00 -0.45593999997E+02  0.45594000000E+02  0.51100000000E-03 0. -1.
         23    2    1    2    0    0 -0.71054273576E-14  0.71054273576E-14 -0.53290705182E-14  0.91188000000E+02  0.91188000000E+02 0.  0.
    9900012    2    3    3    0    0 -0.23742218543E+02  0.26627136115E+02 -0.91149305178E+01  0.54367091844E+02  0.40000017478E+02 0.  0.
        -12    1    3    3    0    0  0.23742218543E+02 -0.26627136115E+02  0.91149305178E+01  0.36820908156E+02  0.00000000000E+00 0.  1.
         11    1    4    4    0    0  0.14427557294E+01  0.41097869003E+01  0.35582500730E+01  0.56243254087E+01  0.51100000000E-03 0. -1.
        -11    1    4    4    0    0 -0.41753544906E+01  0.14667265590E+01  0.10268428238E+02  0.11181479806E+02  0.51100000000E-03 0.  1.
         12    1    4    4    0    0 -0.21009619782E+02  0.21050622656E+02 -0.22941608829E+02  0.37561286629E+02  0.00000000000E+00 0. -1.
</event>
<event>
 8    1  0.1244838E-006  0.9118800E+02  0.7816164E-02  0.1184000E+00
        -11   -1    0    0    0    0  0.00000000000E+00  0.00000000000E+00  0.45593999997E+02  0.45594000000E+02  0.51100000000E-03 0.  1.
         11   -1    0    0    0    0 -0.00000000000E+00 -0.00000000000E+00 -0.45593999997E+02  0.45594000000E+02  0.51100000000E-03 0. -1.
         23    2    1    2    0    0  0.35527136788E-14  0.00000000000E+00 -0.77715611724E-15  0.91188000000E+02  0.91188000000E+02 0.  0.
    9900012    2    3    3    0    0 -0.29583259869E+02  0.21913029089E+02  0.65473811370E+00  0.54367098459E+02  0.40000032556E+02 0.  0.
        -12    1    3    3    0    0  0.29583259869E+02 -0.21913029089E+02 -0.65473811370E+00  0.36820901541E+02  0.00000000000E+00 0.  1.
         11    1    4    4    0    0 -0.33072558662E+02  0.24818200959E+02 -0.17049250362E+01  0.41384103288E+02  0.51100000000E-03 0. -1.
        -11    1    4    4    0    0 -0.11850807352E+01  0.18895440250E+01 -0.34564342946E+01  0.41136031974E+01  0.51100000000E-03 0.  1.
         12    1    4    4    0    0  0.46743795285E+01 -0.47947158949E+01  0.58160974445E+01  0.88693919732E+01  0.00000000000E+00 0. -1.
</event>
<event>
 8    1  0.1244838E-006  0.9118800E+02  0.7816164E-02  0.1184000E+00
        -11   -1    0    0    0    0  0.00000000000E+00  0.00000000000E+00  0.45593999997E+02  0.45594000000E+02  0.51100000000E-03 0. -1.
         11   -1    0    0    0    0 -0.00000000000E+00 -0.00000000000E+00 -0.45593999997E+02  0.45594000000E+02  0.51100000000E-03 0.  1.
         23    2    1    2    0    0  0.00000000000E+00  0.00000000000E+00  0.00000000000E+00  0.91188000000E+02  0.91188000000E+02 0.  0.
    9900012    2    3    3    0    0  0.22809086660E+02 -0.13493009116E+02  0.25562944053E+02  0.54367084233E+02  0.40000000125E+02 0.  0.
        -12    1    3    3    0    0 -0.22809086660E+02  0.13493009116E+02 -0.25562944053E+02  0.36820915767E+02  0.00000000000E+00 0.  1.
         11    1    4    4    0    0  0.13106630259E+02  0.44838761731E+01  0.42329572867E+01  0.14484710213E+02  0.51100000000E-03 0. -1.
        -11    1    4    4    0    0  0.78837107475E+01 -0.52302884512E+00  0.20883684847E+02  0.22328339557E+02  0.51100000000E-03 0.  1.
        -12    1    4    4    0    0  0.18187456535E+01 -0.17453856444E+02  0.44630191958E+00  0.17554034463E+02  0.00000000000E+00 0.  1.
</event>
<event>
 8    1  0.1244838E-006  0.9118800E+02  0.7816164E-02  0.1184000E+00
        -11   -1    0    0    0    0  0.00000000000E+00  0.00000000000E+00  0.45593999997E+02  0.45594000000E+02  0.51100000000E-03 0.  1.
         11   -1    0    0    0    0 -0.00000000000E+00 -0.00000000000E+00 -0.45593999997E+02  0.45594000000E+02  0.51100000000E-03 0. -1.
         23    2    1    2    0    0  0.00000000000E+00  0.00000000000E+00  0.35527136788E-14  0.91188000000E+02  0.91188000000E+02 0.  0.
    9900012    2    3    3    0    0  0.14037895819E+02  0.24318360600E+02 -0.23818891283E+02  0.54367017351E+02  0.39999847655E+02 0.  0.
        -12    1    3    3    0    0 -0.14037895819E+02 -0.24318360600E+02  0.23818891283E+02  0.36820982649E+02  0.00000000000E+00 0.  1.
         11    1    4    4    0    0  0.13442183558E+02  0.28734802851E+02 -0.16459662038E+02  0.35739357414E+02  0.51100000000E-03 0. -1.
        -11    1    4    4    0    0  0.39608104721E+01 -0.74402282527E+01  0.16107817819E+01  0.85813538709E+01  0.51100000000E-03 0.  1.
         12    1    4    4    0    0 -0.33650982114E+01  0.30237860017E+01 -0.89700110270E+01  0.10046306066E+02  0.00000000000E+00 0. -1.
</event>
<event>
 8    1  0.1244838E-006  0.9118800E+02  0.7816164E-02  0.1184000E+00
        -11   -1    0    0    0    0  0.00000000000E+00  0.00000000000E+00  0.45593999997E+02  0.45594000000E+02  0.51100000000E-03 0. -1.
         11   -1    0    0    0    0 -0.00000000000E+00 -0.00000000000E+00 -0.45593999997E+02  0.45594000000E+02  0.51100000000E-03 0.  1.
         23    2    1    2    0    0  0.00000000000E+00  0.00000000000E+00  0.17763568394E-14  0.91188000000E+02  0.91188000000E+02 0.  0.
    9900012    2    3    3    0    0  0.34263734222E+02  0.98113468499E+01  0.92474191241E+01  0.54367071572E+02  0.39999971264E+02 0.  0.
         12    1    3    3    0    0 -0.34263734222E+02 -0.98113468499E+01 -0.92474191241E+01  0.36820928428E+02  0.00000000000E+00 0. -1.
         11    1    4    4    0    0  0.11100568187E+02 -0.15897857210E+01 -0.10603475919E+01  0.11263852360E+02  0.51100000000E-03 0. -1.
        -11    1    4    4    0    0  0.12605325768E+02 -0.92242047472E+01 -0.36671437314E+01  0.16044567129E+02  0.51100000000E-03 0.  1.
         12    1    4    4    0    0  0.10557840266E+02  0.20625337318E+02  0.13974910447E+02  0.27058652084E+02  0.00000000000E+00 0. -1.
</event>
<event>
 8    1  0.1244838E-006  0.9118800E+02  0.7816164E-02  0.1184000E+00
        -11   -1    0    0    0    0  0.00000000000E+00  0.00000000000E+00  0.45593999997E+02  0.45594000000E+02  0.51100000000E-03 0. -1.
         11   -1    0    0    0    0 -0.00000000000E+00 -0.00000000000E+00 -0.45593999997E+02  0.45594000000E+02  0.51100000000E-03 0.  1.
         23    2    1    2    0    0 -0.44408920985E-15 -0.35527136788E-14  0.00000000000E+00  0.91188000000E+02  0.91188000000E+02 0.  0.
    9900012    2    3    3    0    0  0.32997300281E+01  0.23868106744E+02  0.27842495831E+02  0.54367091376E+02  0.40000016409E+02 0.  0.
        -12    1    3    3    0    0 -0.32997300281E+01 -0.23868106744E+02 -0.27842495831E+02  0.36820908624E+02  0.00000000000E+00 0.  1.
         11    1    4    4    0    0 -0.74744017786E+01  0.13904627500E+02 -0.33779217493E+00  0.15789852808E+02  0.51100000000E-03 0. -1.
        -11    1    4    4    0    0  0.23794511015E+01 -0.60411651713E+01  0.20553933008E+01  0.68104409588E+01  0.51100000000E-03 0.  1.
         12    1    4    4    0    0  0.83946807052E+01  0.16004644415E+02  0.26124894706E+02  0.31766797609E+02  0.00000000000E+00 0. -1.
</event>
<event>
 8    1  0.1244838E-006  0.9118800E+02  0.7816164E-02  0.1184000E+00
        -11   -1    0    0    0    0  0.00000000000E+00  0.00000000000E+00  0.45593999997E+02  0.45594000000E+02  0.51100000000E-03 0.  1.
         11   -1    0    0    0    0 -0.00000000000E+00 -0.00000000000E+00 -0.45593999997E+02  0.45594000000E+02  0.51100000000E-03 0. -1.
         23    2    1    2    0    0  0.00000000000E+00  0.00000000000E+00  0.00000000000E+00  0.91188000000E+02  0.91188000000E+02 0.  0.
    9900012    2    3    3    0    0 -0.88756928084E+01  0.31113896570E+02  0.17576311537E+02  0.54367092762E+02  0.40000019569E+02 0.  0.
         12    1    3    3    0    0  0.88756928084E+01 -0.31113896570E+02 -0.17576311537E+02  0.36820907238E+02  0.00000000000E+00 0. -1.
         11    1    4    4    0    0 -0.82736555401E+01  0.12592914847E+02  0.44789729718E+00  0.15074332244E+02  0.51100000000E-03 0. -1.
        -11    1    4    4    0    0 -0.96200082209E+01  0.58947704329E+01  0.20513841641E+02  0.23411761484E+02  0.51100000000E-03 0.  1.
         12    1    4    4    0    0  0.90179709527E+01  0.12626211290E+02 -0.33854274008E+01  0.15880999034E+02  0.00000000000E+00 0. -1.
</event>
<event>
 8    1  0.1244838E-006  0.9118800E+02  0.7816164E-02  0.1184000E+00
        -11   -1    0    0    0    0  0.00000000000E+00  0.00000000000E+00  0.45593999997E+02  0.45594000000E+02  0.51100000000E-03 0.  1.
         11   -1    0    0    0    0 -0.00000000000E+00 -0.00000000000E+00 -0.45593999997E+02  0.45594000000E+02  0.51100000000E-03 0. -1.
         23    2    1    2    0    0  0.17763568394E-14  0.00000000000E+00 -0.17763568394E-14  0.91188000000E+02  0.91188000000E+02 0.  0.
    9900012    2    3    3    0    0 -0.13786295852E+02 -0.31894866138E+02  0.12183343646E+02  0.54367105094E+02  0.40000047682E+02 0.  0.
         12    1    3    3    0    0  0.13786295852E+02  0.31894866138E+02 -0.12183343646E+02  0.36820894906E+02  0.00000000000E+00 0. -1.
         11    1    4    4    0    0 -0.15410260814E+02 -0.28715763100E+02  0.87937870255E+00  0.32601295924E+02  0.51100000000E-03 0.  1.
        -11    1    4    4    0    0  0.99321144937E+01 -0.98444466220E+00  0.54952687973E+01  0.11393595088E+02  0.51100000000E-03 0. -1.
         12    1    4    4    0    0 -0.83081495319E+01 -0.21946583759E+01  0.58086961462E+01  0.10372214081E+02  0.00000000000E+00 0. -1.
</event>
<event>
 8    1  0.1244838E-006  0.9118800E+02  0.7816164E-02  0.1184000E+00
        -11   -1    0    0    0    0  0.00000000000E+00  0.00000000000E+00  0.45593999997E+02  0.45594000000E+02  0.51100000000E-03 0.  1.
         11   -1    0    0    0    0 -0.00000000000E+00 -0.00000000000E+00 -0.45593999997E+02  0.45594000000E+02  0.51100000000E-03 0. -1.
         23    2    1    2    0    0  0.00000000000E+00  0.00000000000E+00  0.00000000000E+00  0.91188000000E+02  0.91188000000E+02 0.  0.
    9900012    2    3    3    0    0  0.26382669639E+02 -0.16462974445E+02  0.19715625565E+02  0.54367072849E+02  0.39999974174E+02 0.  0.
         12    1    3    3    0    0 -0.26382669639E+02  0.16462974445E+02 -0.19715625565E+02  0.36820927151E+02  0.00000000000E+00 0. -1.
         11    1    4    4    0    0  0.12725159799E+02 -0.93650366034E+01 -0.63875749542E+01  0.17042145304E+02  0.51100000000E-03 0. -1.
        -11    1    4    4    0    0  0.99658712691E+01 -0.13080611379E+02  0.25401755385E+02  0.30260042319E+02  0.51100000000E-03 0.  1.
        -12    1    4    4    0    0  0.36916385707E+01  0.59826735376E+01  0.70144513374E+00  0.70648852269E+01  0.00000000000E+00 0.  1.
</event>
<event>
 8    1  0.1244838E-006  0.9118800E+02  0.7816164E-02  0.1184000E+00
        -11   -1    0    0    0    0  0.00000000000E+00  0.00000000000E+00  0.45593999997E+02  0.45594000000E+02  0.51100000000E-03 0.  1.
         11   -1    0    0    0    0 -0.00000000000E+00 -0.00000000000E+00 -0.45593999997E+02  0.45594000000E+02  0.51100000000E-03 0. -1.
         23    2    1    2    0    0  0.00000000000E+00  0.17763568394E-14  0.00000000000E+00  0.91188000000E+02  0.91188000000E+02 0.  0.
    9900012    2    3    3    0    0 -0.32444119085E+02 -0.15062989886E+02  0.87329992733E+01  0.54367084696E+02  0.40000001182E+02 0.  0.
        -12    1    3    3    0    0  0.32444119085E+02  0.15062989886E+02 -0.87329992733E+01  0.36820915304E+02  0.00000000000E+00 0.  1.
         11    1    4    4    0    0 -0.30674710100E+02 -0.26227016732E+01 -0.16129305987E+01  0.30828849300E+02  0.51100000000E-03 0. -1.
        -11    1    4    4    0    0 -0.56379850318E+01  0.79130494262E+00 -0.87902612455E+00  0.57607053318E+01  0.51100000000E-03 0.  1.
        -12    1    4    4    0    0  0.38685760466E+01 -0.13231593156E+02  0.11224955997E+02  0.17777530065E+02  0.00000000000E+00 0.  1.
</event>
<event>
 8    1  0.1244838E-006  0.9118800E+02  0.7816164E-02  0.1184000E+00
        -11   -1    0    0    0    0  0.00000000000E+00  0.00000000000E+00  0.45593999997E+02  0.45594000000E+02  0.51100000000E-03 0.  1.
         11   -1    0    0    0    0 -0.00000000000E+00 -0.00000000000E+00 -0.45593999997E+02  0.45594000000E+02  0.51100000000E-03 0. -1.
         23    2    1    2    0    0  0.00000000000E+00  0.00000000000E+00 -0.35527136788E-14  0.91188000000E+02  0.91188000000E+02 0.  0.
    9900012    2    3    3    0    0  0.30018086075E+02  0.19028913999E+02  0.96226193709E+01  0.54367083890E+02  0.39999999345E+02 0.  0.
         12    1    3    3    0    0 -0.30018086075E+02 -0.19028913999E+02 -0.96226193709E+01  0.36820916110E+02  0.00000000000E+00 0. -1.
         11    1    4    4    0    0  0.83067190681E+01  0.96761862464E+01  0.59057485253E+01  0.14053754938E+02  0.51100000000E-03 0. -1.
        -11    1    4    4    0    0  0.19108371509E+02  0.19475613994E+02  0.88300172379E+01  0.28677493037E+02  0.51100000000E-03 0.  1.
         12    1    4    4    0    0  0.26029954979E+01 -0.10122886242E+02 -0.51131463923E+01  0.11635835916E+02  0.00000000000E+00 0. -1.
</event>
<event>
 8    1  0.1244838E-006  0.9118800E+02  0.7816164E-02  0.1184000E+00
        -11   -1    0    0    0    0  0.00000000000E+00  0.00000000000E+00  0.45593999997E+02  0.45594000000E+02  0.51100000000E-03 0.  1.
         11   -1    0    0    0    0 -0.00000000000E+00 -0.00000000000E+00 -0.45593999997E+02  0.45594000000E+02  0.51100000000E-03 0. -1.
         23    2    1    2    0    0  0.00000000000E+00  0.00000000000E+00 -0.35527136788E-14  0.91188000000E+02  0.91188000000E+02 0.  0.
    9900012    2    3    3    0    0 -0.18332636425E+02 -0.62723576462E+01  0.31310570734E+02  0.54367083819E+02  0.39999999182E+02 0.  0.
         12    1    3    3    0    0  0.18332636425E+02  0.62723576462E+01 -0.31310570734E+02  0.36820916181E+02  0.00000000000E+00 0. -1.
         11    1    4    4    0    0  0.91687020279E+01 -0.29322301030E+01  0.10944642800E+02  0.14575605529E+02  0.51100000000E-03 0. -1.
        -11    1    4    4    0    0 -0.29737841038E+02 -0.52934867385E+01  0.15155305635E+02  0.33794133819E+02  0.51100000000E-03 0.  1.
        -12    1    4    4    0    0  0.22365025849E+01  0.19533591954E+01  0.52106222987E+01  0.59973444705E+01  0.00000000000E+00 0.  1.
</event>
<event>
 8    1  0.1244838E-006  0.9118800E+02  0.7816164E-02  0.1184000E+00
        -11   -1    0    0    0    0  0.00000000000E+00  0.00000000000E+00  0.45593999997E+02  0.45594000000E+02  0.51100000000E-03 0. -1.
         11   -1    0    0    0    0 -0.00000000000E+00 -0.00000000000E+00 -0.45593999997E+02  0.45594000000E+02  0.51100000000E-03 0.  1.
         23    2    1    2    0    0  0.88817841970E-15  0.00000000000E+00 -0.35527136788E-14  0.91188000000E+02  0.91188000000E+02 0.  0.
    9900012    2    3    3    0    0 -0.63437264489E+01  0.26119093752E+02 -0.25166045148E+02  0.54367085399E+02  0.40000002784E+02 0.  0.
         12    1    3    3    0    0  0.63437264489E+01 -0.26119093752E+02  0.25166045148E+02  0.36820914601E+02  0.00000000000E+00 0. -1.
         11    1    4    4    0    0  0.28034874945E+01  0.11708919859E+02  0.75012683179E+01  0.14185463441E+02  0.51100000000E-03 0. -1.
        -11    1    4    4    0    0 -0.10459031601E+02  0.12262763080E+02 -0.33781685607E+02  0.37429520209E+02  0.51100000000E-03 0.  1.
        -12    1    4    4    0    0  0.13118176575E+01  0.21474108124E+01  0.11143721416E+01  0.27521017485E+01  0.00000000000E+00 0.  1.
</event>
<event>
 8    1  0.1244838E-006  0.9118800E+02  0.7816164E-02  0.1184000E+00
        -11   -1    0    0    0    0  0.00000000000E+00  0.00000000000E+00  0.45593999997E+02  0.45594000000E+02  0.51100000000E-03 0. -1.
         11   -1    0    0    0    0 -0.00000000000E+00 -0.00000000000E+00 -0.45593999997E+02  0.45594000000E+02  0.51100000000E-03 0.  1.
         23    2    1    2    0    0  0.00000000000E+00 -0.17763568394E-14  0.71054273576E-14  0.91188000000E+02  0.91188000000E+02 0.  0.
    9900012    2    3    3    0    0  0.25203148542E+01 -0.11732976030E+02  0.34810434819E+02  0.54367067288E+02  0.39999961496E+02 0.  0.
        -12    1    3    3    0    0 -0.25203148542E+01  0.11732976030E+02 -0.34810434819E+02  0.36820932712E+02  0.00000000000E+00 0.  1.
         11    1    4    4    0    0  0.49481446564E+01 -0.99991245249E+01 -0.34369697815E+00  0.11161754104E+02  0.51100000000E-03 0. -1.
        -11    1    4    4    0    0 -0.44873394546E+01 -0.10613847294E+02  0.67066707858E+01  0.13333019278E+02  0.51100000000E-03 0.  1.
         12    1    4    4    0    0  0.20595096524E+01  0.88799957891E+01  0.28447461011E+02  0.29872293906E+02  0.00000000000E+00 0. -1.
</event>
<event>
 8    1  0.1244838E-006  0.9118800E+02  0.7816164E-02  0.1184000E+00
        -11   -1    0    0    0    0  0.00000000000E+00  0.00000000000E+00  0.45593999997E+02  0.45594000000E+02  0.51100000000E-03 0.  1.
         11   -1    0    0    0    0 -0.00000000000E+00 -0.00000000000E+00 -0.45593999997E+02  0.45594000000E+02  0.51100000000E-03 0. -1.
         23    2    1    2    0    0 -0.35527136788E-14 -0.35527136788E-14  0.00000000000E+00  0.91188000000E+02  0.91188000000E+02 0.  0.
    9900012    2    3    3    0    0  0.28764448559E+02 -0.22180381258E+02  0.60345544960E+01  0.54367100206E+02  0.40000036540E+02 0.  0.
         12    1    3    3    0    0 -0.28764448559E+02  0.22180381258E+02 -0.60345544960E+01  0.36820899794E+02  0.00000000000E+00 0. -1.
         11    1    4    4    0    0  0.26793307852E+01 -0.73156489448E+01  0.92498521621E+01  0.12093688363E+02  0.51100000000E-03 0. -1.
        -11    1    4    4    0    0  0.23686001075E+02 -0.23166953663E+02 -0.48289658460E+01  0.33482134048E+02  0.51100000000E-03 0.  1.
        -12    1    4    4    0    0  0.23991166988E+01  0.83022213501E+01  0.16136681799E+01  0.87912777954E+01  0.00000000000E+00 0.  1.
</event>
<event>
 8    1  0.1244838E-006  0.9118800E+02  0.7816164E-02  0.1184000E+00
        -11   -1    0    0    0    0  0.00000000000E+00  0.00000000000E+00  0.45593999997E+02  0.45594000000E+02  0.51100000000E-03 0. -1.
         11   -1    0    0    0    0 -0.00000000000E+00 -0.00000000000E+00 -0.45593999997E+02  0.45594000000E+02  0.51100000000E-03 0.  1.
         23    2    1    2    0    0  0.00000000000E+00  0.00000000000E+00  0.00000000000E+00  0.91188000000E+02  0.91188000000E+02 0.  0.
    9900012    2    3    3    0    0 -0.22397053224E+02 -0.23092430694E+02 -0.17913442314E+02  0.54367085237E+02  0.40000002415E+02 0.  0.
         12    1    3    3    0    0  0.22397053224E+02  0.23092430694E+02  0.17913442314E+02  0.36820914763E+02  0.00000000000E+00 0. -1.
         11    1    4    4    0    0 -0.17633632042E+02  0.33228600171E+01 -0.32502120120E+01  0.18235960519E+02  0.51100000000E-03 0.  1.
        -11    1    4    4    0    0  0.59507596198E+01 -0.19167588892E+02 -0.94727532870E+01  0.22193266075E+02  0.51100000000E-03 0. -1.
        -12    1    4    4    0    0 -0.10714180802E+02 -0.72477018190E+01 -0.51904770145E+01  0.13937858643E+02  0.00000000000E+00 0.  1.
</event>
<event>
 8    1  0.1244838E-006  0.9118800E+02  0.7816164E-02  0.1184000E+00
        -11   -1    0    0    0    0  0.00000000000E+00  0.00000000000E+00  0.45593999997E+02  0.45594000000E+02  0.51100000000E-03 0.  1.
         11   -1    0    0    0    0 -0.00000000000E+00 -0.00000000000E+00 -0.45593999997E+02  0.45594000000E+02  0.51100000000E-03 0. -1.
         23    2    1    2    0    0  0.00000000000E+00  0.00000000000E+00  0.00000000000E+00  0.91188000000E+02  0.91188000000E+02 0.  0.
    9900012    2    3    3    0    0 -0.34505830713E+02  0.64044948252E+01  0.11140471962E+02  0.54367081724E+02  0.39999994407E+02 0.  0.
         12    1    3    3    0    0  0.34505830713E+02 -0.64044948252E+01 -0.11140471962E+02  0.36820918276E+02  0.00000000000E+00 0. -1.
         11    1    4    4    0    0 -0.66197108463E+01  0.11267459229E+02 -0.77738044338E+01  0.15205533362E+02  0.51100000000E-03 0. -1.
        -11    1    4    4    0    0 -0.15542780600E+01  0.56791545315E+01  0.25577296891E+01  0.64195449920E+01  0.51100000000E-03 0.  1.
         12    1    4    4    0    0 -0.26331841806E+02 -0.10542118936E+02  0.16356546707E+02  0.32742003371E+02  0.00000000000E+00 0. -1.
</event>
<event>
 8    1  0.1244838E-006  0.9118800E+02  0.7816164E-02  0.1184000E+00
        -11   -1    0    0    0    0  0.00000000000E+00  0.00000000000E+00  0.45593999997E+02  0.45594000000E+02  0.51100000000E-03 0.  1.
         11   -1    0    0    0    0 -0.00000000000E+00 -0.00000000000E+00 -0.45593999997E+02  0.45594000000E+02  0.51100000000E-03 0. -1.
         23    2    1    2    0    0  0.00000000000E+00  0.00000000000E+00  0.88817841970E-15  0.91188000000E+02  0.91188000000E+02 0.  0.
    9900012    2    3    3    0    0 -0.16539317026E+02 -0.32363158074E+02  0.59041011788E+01  0.54367062765E+02  0.39999951184E+02 0.  0.
         12    1    3    3    0    0  0.16539317026E+02  0.32363158074E+02 -0.59041011788E+01  0.36820937235E+02  0.00000000000E+00 0. -1.
         11    1    4    4    0    0  0.19225205568E+01 -0.77338843635E+01  0.15736097242E+02  0.17638985496E+02  0.51100000000E-03 0. -1.
        -11    1    4    4    0    0 -0.41188280339E+01  0.10005687009E+01  0.24471421393E+01  0.48943219152E+01  0.51100000000E-03 0.  1.
         12    1    4    4    0    0 -0.14343009548E+02 -0.25629842411E+02 -0.12279138203E+02  0.31833755354E+02  0.00000000000E+00 0. -1.
</event>
<event>
 8    1  0.1244838E-006  0.9118800E+02  0.7816164E-02  0.1184000E+00
        -11   -1    0    0    0    0  0.00000000000E+00  0.00000000000E+00  0.45593999997E+02  0.45594000000E+02  0.51100000000E-03 0.  1.
         11   -1    0    0    0    0 -0.00000000000E+00 -0.00000000000E+00 -0.45593999997E+02  0.45594000000E+02  0.51100000000E-03 0. -1.
         23    2    1    2    0    0  0.00000000000E+00  0.00000000000E+00  0.00000000000E+00  0.91188000000E+02  0.91188000000E+02 0.  0.
    9900012    2    3    3    0    0  0.24671273691E+02 -0.26005949318E+02 -0.84142403473E+01  0.54367074074E+02  0.39999976966E+02 0.  0.
         12    1    3    3    0    0 -0.24671273691E+02  0.26005949318E+02  0.84142403473E+01  0.36820925926E+02  0.00000000000E+00 0. -1.
         11    1    4    4    0    0  0.20130643186E+02 -0.29687480559E+02 -0.40372869533E+01  0.36095553511E+02  0.51100000000E-03 0. -1.
        -11    1    4    4    0    0  0.28551774931E+00 -0.65949538466E+01 -0.20039126227E+01  0.68985942543E+01  0.51100000000E-03 0.  1.
         12    1    4    4    0    0  0.42551127553E+01  0.10276485088E+02 -0.23730407714E+01  0.11372926309E+02  0.00000000000E+00 0. -1.
</event>
<event>
 8    1  0.1244838E-006  0.9118800E+02  0.7816164E-02  0.1184000E+00
        -11   -1    0    0    0    0  0.00000000000E+00  0.00000000000E+00  0.45593999997E+02  0.45594000000E+02  0.51100000000E-03 0.  1.
         11   -1    0    0    0    0 -0.00000000000E+00 -0.00000000000E+00 -0.45593999997E+02  0.45594000000E+02  0.51100000000E-03 0. -1.
         23    2    1    2    0    0  0.00000000000E+00  0.00000000000E+00  0.00000000000E+00  0.91188000000E+02  0.91188000000E+02 0.  0.
    9900012    2    3    3    0    0  0.60837071510E+01  0.11050439179E+02 -0.34592714407E+02  0.54367087616E+02  0.40000007839E+02 0.  0.
        -12    1    3    3    0    0 -0.60837071510E+01 -0.11050439179E+02  0.34592714407E+02  0.36820912384E+02  0.00000000000E+00 0.  1.
         11    1    4    4    0    0  0.13069795846E+02  0.31610003615E+01 -0.12248658880E+02  0.18189038769E+02  0.51100000000E-03 0.  1.
        -11    1    4    4    0    0 -0.10141054040E+02  0.12026549364E+02 -0.25595028393E+02  0.30043041546E+02  0.51100000000E-03 0. -1.
        -12    1    4    4    0    0  0.31549653449E+01 -0.41371105473E+01  0.32509728658E+01  0.61350073009E+01  0.00000000000E+00 0.  1.
</event>
<event>
 8    1  0.1244838E-006  0.9118800E+02  0.7816164E-02  0.1184000E+00
        -11   -1    0    0    0    0  0.00000000000E+00  0.00000000000E+00  0.45593999997E+02  0.45594000000E+02  0.51100000000E-03 0.  1.
         11   -1    0    0    0    0 -0.00000000000E+00 -0.00000000000E+00 -0.45593999997E+02  0.45594000000E+02  0.51100000000E-03 0. -1.
         23    2    1    2    0    0  0.00000000000E+00 -0.44408920985E-15  0.00000000000E+00  0.91188000000E+02  0.91188000000E+02 0.  0.
    9900012    2    3    3    0    0  0.26964275624E+02 -0.24980508023E+01  0.24949301878E+02  0.54367080919E+02  0.39999992571E+02 0.  0.
         12    1    3    3    0    0 -0.26964275624E+02  0.24980508023E+01 -0.24949301878E+02  0.36820919081E+02  0.00000000000E+00 0. -1.
         11    1    4    4    0    0 -0.46791421260E+01 -0.18412851973E+01 -0.21683853617E+01  0.54760019678E+01  0.51100000000E-03 0. -1.
        -11    1    4    4    0    0  0.84988873592E+01  0.82309174385E+01  0.19757875818E+02  0.23029388731E+02  0.51100000000E-03 0.  1.
        -12    1    4    4    0    0  0.23144530391E+02 -0.88876830435E+01  0.73598114223E+01  0.25861690221E+02  0.00000000000E+00 0.  1.
</event>
<event>
 8    1  0.1244838E-006  0.9118800E+02  0.7816164E-02  0.1184000E+00
        -11   -1    0    0    0    0  0.00000000000E+00  0.00000000000E+00  0.45593999997E+02  0.45594000000E+02  0.51100000000E-03 0. -1.
         11   -1    0    0    0    0 -0.00000000000E+00 -0.00000000000E+00 -0.45593999997E+02  0.45594000000E+02  0.51100000000E-03 0.  1.
         23    2    1    2    0    0  0.00000000000E+00  0.00000000000E+00  0.00000000000E+00  0.91188000000E+02  0.91188000000E+02 0.  0.
    9900012    2    3    3    0    0  0.26074945033E+02  0.14659467187E+02 -0.21470387376E+02  0.54367078356E+02  0.39999986727E+02 0.  0.
         12    1    3    3    0    0 -0.26074945033E+02 -0.14659467187E+02  0.21470387376E+02  0.36820921644E+02  0.00000000000E+00 0. -1.
         11    1    4    4    0    0  0.27997384950E+01  0.68688076280E+01 -0.33790324231E+01  0.81508842617E+01  0.51100000000E-03 0. -1.
        -11    1    4    4    0    0 -0.53017788343E+01  0.12232323707E+02 -0.33055567137E+01  0.13735549043E+02  0.51100000000E-03 0.  1.
         12    1    4    4    0    0  0.28576985372E+02 -0.44416641471E+01 -0.14785798239E+02  0.32480645051E+02  0.00000000000E+00 0. -1.
</event>
<event>
 8    1  0.1244838E-006  0.9118800E+02  0.7816164E-02  0.1184000E+00
        -11   -1    0    0    0    0  0.00000000000E+00  0.00000000000E+00  0.45593999997E+02  0.45594000000E+02  0.51100000000E-03 0.  1.
         11   -1    0    0    0    0 -0.00000000000E+00 -0.00000000000E+00 -0.45593999997E+02  0.45594000000E+02  0.51100000000E-03 0. -1.
         23    2    1    2    0    0 -0.35527136788E-14  0.00000000000E+00  0.00000000000E+00  0.91188000000E+02  0.91188000000E+02 0.  0.
    9900012    2    3    3    0    0  0.12149034871E+02  0.18015562007E+02  0.29725745856E+02  0.54367088965E+02  0.40000010913E+02 0.  0.
         12    1    3    3    0    0 -0.12149034871E+02 -0.18015562007E+02 -0.29725745856E+02  0.36820911035E+02  0.00000000000E+00 0. -1.
         11    1    4    4    0    0  0.19625709937E+02  0.10150977461E+02  0.75448177444E+00  0.22108371197E+02  0.51100000000E-03 0. -1.
        -11    1    4    4    0    0 -0.33091378841E+01  0.78301563323E+01  0.25350847838E+02  0.26738123122E+02  0.51100000000E-03 0.  1.
        -12    1    4    4    0    0 -0.41675371822E+01  0.34428213652E-01  0.36204162434E+01  0.55205946458E+01  0.00000000000E+00 0.  1.
</event>
<event>
 8    1  0.1244838E-006  0.9118800E+02  0.7816164E-02  0.1184000E+00
        -11   -1    0    0    0    0  0.00000000000E+00  0.00000000000E+00  0.45593999997E+02  0.45594000000E+02  0.51100000000E-03 0.  1.
         11   -1    0    0    0    0 -0.00000000000E+00 -0.00000000000E+00 -0.45593999997E+02  0.45594000000E+02  0.51100000000E-03 0. -1.
         23    2    1    2    0    0 -0.35527136788E-14 -0.35527136788E-14  0.26645352591E-14  0.91188000000E+02  0.91188000000E+02 0.  0.
    9900012    2    3    3    0    0 -0.26167872065E+02 -0.24785942702E+02  0.75289632882E+01  0.54367003650E+02  0.39999816420E+02 0.  0.
         12    1    3    3    0    0  0.26167872065E+02  0.24785942702E+02 -0.75289632882E+01  0.36820996350E+02  0.00000000000E+00 0. -1.
         11    1    4    4    0    0 -0.67200999684E+00  0.90796695762E+00  0.85693039704E+01  0.86434352101E+01  0.51100000000E-03 0. -1.
        -11    1    4    4    0    0  0.33714573478E+01 -0.13327567801E+02 -0.36116198833E+01  0.14213887103E+02  0.51100000000E-03 0.  1.
        -12    1    4    4    0    0 -0.28867319416E+02 -0.12366341859E+02  0.25712792010E+01  0.31509681337E+02  0.00000000000E+00 0.  1.
</event>
<event>
 8    1  0.1244838E-006  0.9118800E+02  0.7816164E-02  0.1184000E+00
        -11   -1    0    0    0    0  0.00000000000E+00  0.00000000000E+00  0.45593999997E+02  0.45594000000E+02  0.51100000000E-03 0.  1.
         11   -1    0    0    0    0 -0.00000000000E+00 -0.00000000000E+00 -0.45593999997E+02  0.45594000000E+02  0.51100000000E-03 0. -1.
         23    2    1    2    0    0  0.00000000000E+00  0.88817841970E-15  0.00000000000E+00  0.91188000000E+02  0.91188000000E+02 0.  0.
    9900012    2    3    3    0    0  0.12735508500E+02  0.40622693444E+01 -0.34308683151E+02  0.54367069152E+02  0.39999965745E+02 0.  0.
        -12    1    3    3    0    0 -0.12735508500E+02 -0.40622693444E+01  0.34308683151E+02  0.36820930848E+02  0.00000000000E+00 0.  1.
         11    1    4    4    0    0 -0.64806494376E+01 -0.33475664715E+01  0.24917730486E+01  0.77080446029E+01  0.51100000000E-03 0. -1.
        -11    1    4    4    0    0  0.73099424430E+01  0.11266019172E+02 -0.89863715166E+01  0.16159001201E+02  0.51100000000E-03 0.  1.
         12    1    4    4    0    0  0.11906215495E+02 -0.38561833562E+01 -0.27814084683E+02  0.30500023348E+02  0.00000000000E+00 0. -1.
</event>
<event>
 8    1  0.1244838E-006  0.9118800E+02  0.7816164E-02  0.1184000E+00
        -11   -1    0    0    0    0  0.00000000000E+00  0.00000000000E+00  0.45593999997E+02  0.45594000000E+02  0.51100000000E-03 0. -1.
         11   -1    0    0    0    0 -0.00000000000E+00 -0.00000000000E+00 -0.45593999997E+02  0.45594000000E+02  0.51100000000E-03 0.  1.
         23    2    1    2    0    0  0.00000000000E+00  0.00000000000E+00 -0.35527136788E-14  0.91188000000E+02  0.91188000000E+02 0.  0.
    9900012    2    3    3    0    0 -0.21115865608E+02 -0.18494500257E+02  0.23829695920E+02  0.54367072150E+02  0.39999972580E+02 0.  0.
        -12    1    3    3    0    0  0.21115865608E+02  0.18494500257E+02 -0.23829695920E+02  0.36820927850E+02  0.00000000000E+00 0.  1.
         11    1    4    4    0    0  0.28151815145E+01 -0.78062327710E+01  0.24443355160E+02  0.25813564821E+02  0.51100000000E-03 0. -1.
        -11    1    4    4    0    0 -0.40232326196E+01  0.20267101775E+01 -0.19168461635E+01  0.48957383846E+01  0.51100000000E-03 0.  1.
         12    1    4    4    0    0 -0.19907814503E+02 -0.12714977663E+02  0.13031869231E+01  0.23657768944E+02  0.00000000000E+00 0. -1.
</event>
<event>
 8    1  0.1244838E-006  0.9118800E+02  0.7816164E-02  0.1184000E+00
        -11   -1    0    0    0    0  0.00000000000E+00  0.00000000000E+00  0.45593999997E+02  0.45594000000E+02  0.51100000000E-03 0.  1.
         11   -1    0    0    0    0 -0.00000000000E+00 -0.00000000000E+00 -0.45593999997E+02  0.45594000000E+02  0.51100000000E-03 0. -1.
         23    2    1    2    0    0  0.00000000000E+00 -0.66613381478E-15  0.00000000000E+00  0.91188000000E+02  0.91188000000E+02 0.  0.
    9900012    2    3    3    0    0 -0.17112385053E+02  0.88615259818E+00  0.32590588676E+02  0.54367279490E+02  0.40000445250E+02 0.  0.
         12    1    3    3    0    0  0.17112385053E+02 -0.88615259818E+00 -0.32590588676E+02  0.36820720510E+02  0.00000000000E+00 0. -1.
         11    1    4    4    0    0 -0.71076914426E+01  0.10954579923E+02  0.26834123679E+02  0.29842792979E+02  0.51100000000E-03 0.  1.
        -11    1    4    4    0    0 -0.11738962574E+02 -0.13346924791E+02  0.86997245006E+01  0.19789614709E+02  0.51100000000E-03 0. -1.
        -12    1    4    4    0    0  0.17342689643E+01  0.32784974660E+01 -0.29432595028E+01  0.47348718014E+01  0.00000000000E+00 0.  1.
</event>
<event>
 8    1  0.1244838E-006  0.9118800E+02  0.7816164E-02  0.1184000E+00
        -11   -1    0    0    0    0  0.00000000000E+00  0.00000000000E+00  0.45593999997E+02  0.45594000000E+02  0.51100000000E-03 0.  1.
         11   -1    0    0    0    0 -0.00000000000E+00 -0.00000000000E+00 -0.45593999997E+02  0.45594000000E+02  0.51100000000E-03 0. -1.
         23    2    1    2    0    0 -0.17763568394E-14  0.00000000000E+00  0.00000000000E+00  0.91188000000E+02  0.91188000000E+02 0.  0.
    9900012    2    3    3    0    0  0.11183257058E+02  0.24738262309E+02 -0.24874332764E+02  0.54367091660E+02  0.40000017058E+02 0.  0.
        -12    1    3    3    0    0 -0.11183257058E+02 -0.24738262309E+02  0.24874332764E+02  0.36820908340E+02  0.00000000000E+00 0.  1.
         11    1    4    4    0    0 -0.65829984356E+01  0.20655818275E+02 -0.90675035520E+01  0.23499325904E+02  0.51100000000E-03 0. -1.
        -11    1    4    4    0    0  0.13012171912E+02  0.11638890652E+02 -0.90001297061E+01  0.19641352511E+02  0.51100000000E-03 0.  1.
        -12    1    4    4    0    0  0.47540835813E+01 -0.75564466178E+01 -0.68066995061E+01  0.11226413245E+02  0.00000000000E+00 0.  1.
</event>
<event>
 8    1  0.1244838E-006  0.9118800E+02  0.7816164E-02  0.1184000E+00
        -11   -1    0    0    0    0  0.00000000000E+00  0.00000000000E+00  0.45593999997E+02  0.45594000000E+02  0.51100000000E-03 0.  1.
         11   -1    0    0    0    0 -0.00000000000E+00 -0.00000000000E+00 -0.45593999997E+02  0.45594000000E+02  0.51100000000E-03 0. -1.
         23    2    1    2    0    0  0.00000000000E+00  0.35527136788E-14 -0.17763568394E-14  0.91188000000E+02  0.91188000000E+02 0.  0.
    9900012    2    3    3    0    0 -0.30980010524E+02 -0.17456041778E+02  0.95556251420E+01  0.54367022032E+02  0.39999858327E+02 0.  0.
         12    1    3    3    0    0  0.30980010524E+02  0.17456041778E+02 -0.95556251420E+01  0.36820977968E+02  0.00000000000E+00 0. -1.
         11    1    4    4    0    0 -0.11795451965E+02 -0.21340290919E+01  0.19339687913E+02  0.22753248033E+02  0.51100000000E-03 0. -1.
        -11    1    4    4    0    0 -0.68009596997E+01  0.34064672097E+01 -0.26667182116E+01  0.80603013572E+01  0.51100000000E-03 0.  1.
        -12    1    4    4    0    0 -0.12383598859E+02 -0.18728479896E+02 -0.71173445595E+01  0.23553472642E+02  0.00000000000E+00 0.  1.
</event>
<event>
 8    1  0.1244838E-006  0.9118800E+02  0.7816164E-02  0.1184000E+00
        -11   -1    0    0    0    0  0.00000000000E+00  0.00000000000E+00  0.45593999997E+02  0.45594000000E+02  0.51100000000E-03 0. -1.
         11   -1    0    0    0    0 -0.00000000000E+00 -0.00000000000E+00 -0.45593999997E+02  0.45594000000E+02  0.51100000000E-03 0.  1.
         23    2    1    2    0    0  0.17763568394E-14  0.99920072216E-15  0.00000000000E+00  0.91188000000E+02  0.91188000000E+02 0.  0.
    9900012    2    3    3    0    0  0.71302950661E+01 -0.86778590097E+00  0.36113502254E+02  0.54367092825E+02  0.40000019714E+02 0.  0.
        -12    1    3    3    0    0 -0.71302950661E+01  0.86778590097E+00 -0.36113502254E+02  0.36820907175E+02  0.00000000000E+00 0.  1.
         11    1    4    4    0    0  0.10637243117E+02  0.11325858276E+02  0.36793432536E+02  0.39939738167E+02  0.51100000000E-03 0. -1.
        -11    1    4    4    0    0  0.97237477409E+00 -0.58420302435E+01  0.19295034469E+01  0.62287891183E+01  0.51100000000E-03 0.  1.
        -12    1    4    4    0    0 -0.44793228249E+01 -0.63516139335E+01 -0.26094337284E+01  0.81985655400E+01  0.00000000000E+00 0.  1.
</event>
<event>
 8    1  0.1244838E-006  0.9118800E+02  0.7816164E-02  0.1184000E+00
        -11   -1    0    0    0    0  0.00000000000E+00  0.00000000000E+00  0.45593999997E+02  0.45594000000E+02  0.51100000000E-03 0.  1.
         11   -1    0    0    0    0 -0.00000000000E+00 -0.00000000000E+00 -0.45593999997E+02  0.45594000000E+02  0.51100000000E-03 0. -1.
         23    2    1    2    0    0  0.00000000000E+00  0.17763568394E-14  0.71054273576E-14  0.91188000000E+02  0.91188000000E+02 0.  0.
    9900012    2    3    3    0    0 -0.13259326136E+02 -0.97284025505E+01  0.32944295621E+02  0.54367107022E+02  0.40000052077E+02 0.  0.
         12    1    3    3    0    0  0.13259326136E+02  0.97284025505E+01 -0.32944295621E+02  0.36820892978E+02  0.00000000000E+00 0. -1.
         11    1    4    4    0    0 -0.31931757347E+01  0.51863417145E+01  0.14385249858E+01  0.62581040298E+01  0.51100000000E-03 0. -1.
        -11    1    4    4    0    0 -0.31775760189E+01  0.99966536005E+01  0.98550029859E+01  0.14392746669E+02  0.51100000000E-03 0.  1.
        -12    1    4    4    0    0 -0.68885743824E+01 -0.24911397865E+02  0.21650767649E+02  0.33716256323E+02  0.00000000000E+00 0.  1.
</event>
<event>
 8    1  0.1244838E-006  0.9118800E+02  0.7816164E-02  0.1184000E+00
        -11   -1    0    0    0    0  0.00000000000E+00  0.00000000000E+00  0.45593999997E+02  0.45594000000E+02  0.51100000000E-03 0.  1.
         11   -1    0    0    0    0 -0.00000000000E+00 -0.00000000000E+00 -0.45593999997E+02  0.45594000000E+02  0.51100000000E-03 0. -1.
         23    2    1    2    0    0  0.17763568394E-14  0.00000000000E+00  0.00000000000E+00  0.91188000000E+02  0.91188000000E+02 0.  0.
    9900012    2    3    3    0    0  0.68631793225E+01 -0.33637542547E+02  0.13311348965E+02  0.54367088682E+02  0.40000010269E+02 0.  0.
         12    1    3    3    0    0 -0.68631793225E+01  0.33637542547E+02 -0.13311348965E+02  0.36820911318E+02  0.00000000000E+00 0. -1.
         11    1    4    4    0    0  0.10736303825E+01 -0.12715618143E+02 -0.79421137490E+01  0.15030528867E+02  0.51100000000E-03 0. -1.
        -11    1    4    4    0    0 -0.41403639516E+01  0.21996901412E+01 -0.19781428212E+01  0.50886441859E+01  0.51100000000E-03 0.  1.
        -12    1    4    4    0    0  0.99299128915E+01 -0.23121614545E+02  0.23231605536E+02  0.34247915629E+02  0.00000000000E+00 0.  1.
</event>
<event>
 8    1  0.1244838E-006  0.9118800E+02  0.7816164E-02  0.1184000E+00
        -11   -1    0    0    0    0  0.00000000000E+00  0.00000000000E+00  0.45593999997E+02  0.45594000000E+02  0.51100000000E-03 0.  1.
         11   -1    0    0    0    0 -0.00000000000E+00 -0.00000000000E+00 -0.45593999997E+02  0.45594000000E+02  0.51100000000E-03 0. -1.
         23    2    1    2    0    0  0.00000000000E+00  0.00000000000E+00  0.00000000000E+00  0.91188000000E+02  0.91188000000E+02 0.  0.
    9900012    2    3    3    0    0  0.25974546497E+02  0.24718367230E+02  0.83728331536E+01  0.54367094535E+02  0.40000023612E+02 0.  0.
        -12    1    3    3    0    0 -0.25974546497E+02 -0.24718367230E+02 -0.83728331536E+01  0.36820905465E+02  0.00000000000E+00 0.  1.
         11    1    4    4    0    0 -0.73741696441E+01  0.40611305632E+00 -0.22233067734E+01  0.77127426395E+01  0.51100000000E-03 0. -1.
        -11    1    4    4    0    0  0.16103967485E+02  0.64736383681E+00  0.46603391388E+01  0.16777234869E+02  0.51100000000E-03 0.  1.
         12    1    4    4    0    0  0.17244748655E+02  0.23664890337E+02  0.59358007882E+01  0.29877117027E+02  0.00000000000E+00 0. -1.
</event>
<event>
 8    1  0.1244838E-006  0.9118800E+02  0.7816164E-02  0.1184000E+00
        -11   -1    0    0    0    0  0.00000000000E+00  0.00000000000E+00  0.45593999997E+02  0.45594000000E+02  0.51100000000E-03 0. -1.
         11   -1    0    0    0    0 -0.00000000000E+00 -0.00000000000E+00 -0.45593999997E+02  0.45594000000E+02  0.51100000000E-03 0.  1.
         23    2    1    2    0    0  0.00000000000E+00  0.00000000000E+00  0.00000000000E+00  0.91188000000E+02  0.91188000000E+02 0.  0.
    9900012    2    3    3    0    0 -0.95184516074E+01  0.83168383841E+01 -0.34583371117E+02  0.54367078237E+02  0.39999986456E+02 0.  0.
         12    1    3    3    0    0  0.95184516074E+01 -0.83168383841E+01  0.34583371117E+02  0.36820921763E+02  0.00000000000E+00 0. -1.
         11    1    4    4    0    0 -0.71292862592E+01 -0.12670023755E+01  0.69460656538E+01  0.10033934717E+02  0.51100000000E-03 0. -1.
        -11    1    4    4    0    0 -0.59915699094E+01  0.84124281879E+01 -0.37070652697E+02  0.38482478476E+02  0.51100000000E-03 0.  1.
         12    1    4    4    0    0  0.36024045611E+01  0.11714125717E+01 -0.44587840738E+01  0.58506650435E+01  0.00000000000E+00 0. -1.
</event>
<event>
 8    1  0.1244838E-006  0.9118800E+02  0.7816164E-02  0.1184000E+00
        -11   -1    0    0    0    0  0.00000000000E+00  0.00000000000E+00  0.45593999997E+02  0.45594000000E+02  0.51100000000E-03 0. -1.
         11   -1    0    0    0    0 -0.00000000000E+00 -0.00000000000E+00 -0.45593999997E+02  0.45594000000E+02  0.51100000000E-03 0.  1.
         23    2    1    2    0    0  0.00000000000E+00  0.00000000000E+00  0.00000000000E+00  0.91188000000E+02  0.91188000000E+02 0.  0.
    9900012    2    3    3    0    0 -0.62548231756E+01  0.33425988663E+02 -0.14119412360E+02  0.54367118202E+02  0.40000077564E+02 0.  0.
         12    1    3    3    0    0  0.62548231756E+01 -0.33425988663E+02  0.14119412360E+02  0.36820881798E+02  0.00000000000E+00 0. -1.
         11    1    4    4    0    0 -0.45437867702E+01  0.12431963830E+02  0.54437064393E+01  0.14312011143E+02  0.51100000000E-03 0. -1.
        -11    1    4    4    0    0  0.22859635057E+01  0.25651896284E+02 -0.21574507159E+02  0.33596201743E+02  0.51100000000E-03 0.  1.
         12    1    4    4    0    0 -0.39969999111E+01 -0.46578714521E+01  0.20113883596E+01  0.64589053164E+01  0.00000000000E+00 0. -1.
</event>
<event>
 8    1  0.1244838E-006  0.9118800E+02  0.7816164E-02  0.1184000E+00
        -11   -1    0    0    0    0  0.00000000000E+00  0.00000000000E+00  0.45593999997E+02  0.45594000000E+02  0.51100000000E-03 0. -1.
         11   -1    0    0    0    0 -0.00000000000E+00 -0.00000000000E+00 -0.45593999997E+02  0.45594000000E+02  0.51100000000E-03 0.  1.
         23    2    1    2    0    0  0.00000000000E+00  0.00000000000E+00 -0.35527136788E-14  0.91188000000E+02  0.91188000000E+02 0.  0.
    9900012    2    3    3    0    0 -0.28873466592E+02 -0.49995025804E+01 -0.22295851467E+02  0.54367121524E+02  0.40000085138E+02 0.  0.
         12    1    3    3    0    0  0.28873466592E+02  0.49995025804E+01  0.22295851467E+02  0.36820878476E+02  0.00000000000E+00 0. -1.
         11    1    4    4    0    0  0.37463014814E+01  0.59932207988E+01  0.49036651702E+00  0.70847674566E+01  0.51100000000E-03 0. -1.
        -11    1    4    4    0    0 -0.79104402404E+01 -0.52146715517E+01 -0.19518988674E+02  0.21696976363E+02  0.51100000000E-03 0.  1.
        -12    1    4    4    0    0 -0.24709327833E+02 -0.57780518275E+01 -0.32672293102E+01  0.25585377704E+02  0.00000000000E+00 0.  1.
</event>
<event>
 8    1  0.1244838E-006  0.9118800E+02  0.7816164E-02  0.1184000E+00
        -11   -1    0    0    0    0  0.00000000000E+00  0.00000000000E+00  0.45593999997E+02  0.45594000000E+02  0.51100000000E-03 0.  1.
         11   -1    0    0    0    0 -0.00000000000E+00 -0.00000000000E+00 -0.45593999997E+02  0.45594000000E+02  0.51100000000E-03 0. -1.
         23    2    1    2    0    0  0.00000000000E+00 -0.88817841970E-15  0.00000000000E+00  0.91188000000E+02  0.91188000000E+02 0.  0.
    9900012    2    3    3    0    0  0.19985763992E+02  0.79863290690E+01  0.29875835753E+02  0.54367112229E+02  0.40000063948E+02 0.  0.
         12    1    3    3    0    0 -0.19985763992E+02 -0.79863290690E+01 -0.29875835753E+02  0.36820887771E+02  0.00000000000E+00 0. -1.
         11    1    4    4    0    0  0.11077466563E+01 -0.44337481804E+01  0.15379180111E+02  0.16043827683E+02  0.51100000000E-03 0. -1.
        -11    1    4    4    0    0  0.21422676695E+02  0.92524587055E+01  0.20508831585E+02  0.31066883367E+02  0.51100000000E-03 0.  1.
        -12    1    4    4    0    0 -0.25446593595E+01  0.31676185439E+01 -0.60121759433E+01  0.72564011789E+01  0.00000000000E+00 0.  1.
</event>
<event>
 8    1  0.1244838E-006  0.9118800E+02  0.7816164E-02  0.1184000E+00
        -11   -1    0    0    0    0  0.00000000000E+00  0.00000000000E+00  0.45593999997E+02  0.45594000000E+02  0.51100000000E-03 0. -1.
         11   -1    0    0    0    0 -0.00000000000E+00 -0.00000000000E+00 -0.45593999997E+02  0.45594000000E+02  0.51100000000E-03 0.  1.
         23    2    1    2    0    0  0.00000000000E+00 -0.11102230246E-14  0.00000000000E+00  0.91188000000E+02  0.91188000000E+02 0.  0.
    9900012    2    3    3    0    0  0.26455897103E+02  0.17315190711E+01  0.25551260453E+02  0.54367087999E+02  0.40000008711E+02 0.  0.
        -12    1    3    3    0    0 -0.26455897103E+02 -0.17315190711E+01 -0.25551260453E+02  0.36820912001E+02  0.00000000000E+00 0.  1.
         11    1    4    4    0    0  0.16083873502E+02 -0.34519134562E+01  0.16257983357E+02  0.23128526033E+02  0.51100000000E-03 0. -1.
        -11    1    4    4    0    0  0.35368833991E+01  0.10580674501E+02 -0.67102412738E+01  0.13018738621E+02  0.51100000000E-03 0.  1.
        -12    1    4    4    0    0  0.68351402027E+01 -0.53972419737E+01  0.16003518370E+02  0.18219823345E+02  0.00000000000E+00 0.  1.
</event>
<event>
 8    1  0.1244838E-006  0.9118800E+02  0.7816164E-02  0.1184000E+00
        -11   -1    0    0    0    0  0.00000000000E+00  0.00000000000E+00  0.45593999997E+02  0.45594000000E+02  0.51100000000E-03 0. -1.
         11   -1    0    0    0    0 -0.00000000000E+00 -0.00000000000E+00 -0.45593999997E+02  0.45594000000E+02  0.51100000000E-03 0.  1.
         23    2    1    2    0    0 -0.17763568394E-14  0.00000000000E+00  0.00000000000E+00  0.91188000000E+02  0.91188000000E+02 0.  0.
    9900012    2    3    3    0    0 -0.11033748248E+02  0.14628434484E+02 -0.31938278635E+02  0.54366968808E+02  0.39999736992E+02 0.  0.
         12    1    3    3    0    0  0.11033748248E+02 -0.14628434484E+02  0.31938278635E+02  0.36821031192E+02  0.00000000000E+00 0. -1.
         11    1    4    4    0    0 -0.15822246475E+02  0.13182776529E+02 -0.10011501157E+02  0.22898891593E+02  0.51100000000E-03 0. -1.
        -11    1    4    4    0    0 -0.80908785366E+01 -0.28988532170E+01 -0.11396166544E+02  0.14273691801E+02  0.51100000000E-03 0.  1.
         12    1    4    4    0    0  0.12879376763E+02  0.43445111726E+01 -0.10530610933E+02  0.17194385414E+02  0.00000000000E+00 0. -1.
</event>
<event>
 8    1  0.1244838E-006  0.9118800E+02  0.7816164E-02  0.1184000E+00
        -11   -1    0    0    0    0  0.00000000000E+00  0.00000000000E+00  0.45593999997E+02  0.45594000000E+02  0.51100000000E-03 0.  1.
         11   -1    0    0    0    0 -0.00000000000E+00 -0.00000000000E+00 -0.45593999997E+02  0.45594000000E+02  0.51100000000E-03 0. -1.
         23    2    1    2    0    0 -0.35527136788E-14  0.00000000000E+00 -0.35527136788E-14  0.91188000000E+02  0.91188000000E+02 0.  0.
    9900012    2    3    3    0    0  0.31799586078E+02 -0.63716076716E+01 -0.17434612389E+02  0.54367125917E+02  0.40000095153E+02 0.  0.
        -12    1    3    3    0    0 -0.31799586078E+02  0.63716076716E+01  0.17434612389E+02  0.36820874083E+02  0.00000000000E+00 0.  1.
         11    1    4    4    0    0  0.27821118102E+02 -0.10344508891E+02 -0.67149267573E+01  0.30432116559E+02  0.51100000000E-03 0. -1.
        -11    1    4    4    0    0 -0.14410317169E+01 -0.24951155417E+01 -0.14431510462E+02  0.14716340185E+02  0.51100000000E-03 0.  1.
         12    1    4    4    0    0  0.54194996933E+01  0.64680167615E+01  0.37118248298E+01  0.92186691729E+01  0.00000000000E+00 0. -1.
</event>
<event>
 8    1  0.1244838E-006  0.9118800E+02  0.7816164E-02  0.1184000E+00
        -11   -1    0    0    0    0  0.00000000000E+00  0.00000000000E+00  0.45593999997E+02  0.45594000000E+02  0.51100000000E-03 0.  1.
         11   -1    0    0    0    0 -0.00000000000E+00 -0.00000000000E+00 -0.45593999997E+02  0.45594000000E+02  0.51100000000E-03 0. -1.
         23    2    1    2    0    0  0.00000000000E+00  0.00000000000E+00  0.22204460493E-15  0.91188000000E+02  0.91188000000E+02 0.  0.
    9900012    2    3    3    0    0  0.32914187687E+02  0.16502556424E+02  0.31905483565E+00  0.54367083178E+02  0.39999997722E+02 0.  0.
         12    1    3    3    0    0 -0.32914187687E+02 -0.16502556424E+02 -0.31905483565E+00  0.36820916822E+02  0.00000000000E+00 0. -1.
         11    1    4    4    0    0 -0.90587119299E+00  0.10898835403E+01 -0.62886309058E+01  0.64463421938E+01  0.51100000000E-03 0. -1.
        -11    1    4    4    0    0  0.10494247364E+02  0.16920220249E+01 -0.11265846741E+02  0.15489075806E+02  0.51100000000E-03 0.  1.
        -12    1    4    4    0    0  0.23325811515E+02  0.13720650859E+02  0.17873532482E+02  0.32431665178E+02  0.00000000000E+00 0.  1.
</event>
<event>
 8    1  0.1244838E-006  0.9118800E+02  0.7816164E-02  0.1184000E+00
        -11   -1    0    0    0    0  0.00000000000E+00  0.00000000000E+00  0.45593999997E+02  0.45594000000E+02  0.51100000000E-03 0. -1.
         11   -1    0    0    0    0 -0.00000000000E+00 -0.00000000000E+00 -0.45593999997E+02  0.45594000000E+02  0.51100000000E-03 0.  1.
         23    2    1    2    0    0 -0.35527136788E-14  0.17763568394E-14  0.00000000000E+00  0.91188000000E+02  0.91188000000E+02 0.  0.
    9900012    2    3    3    0    0  0.19162745080E+02  0.14517931956E+02 -0.27889052983E+02  0.54367076281E+02  0.39999981997E+02 0.  0.
         12    1    3    3    0    0 -0.19162745080E+02 -0.14517931956E+02  0.27889052983E+02  0.36820923719E+02  0.00000000000E+00 0. -1.
         11    1    4    4    0    0 -0.42347000554E+01 -0.16457325246E+01 -0.16695707845E+01  0.48403085612E+01  0.51100000000E-03 0.  1.
        -11    1    4    4    0    0  0.13329687627E+02 -0.81500290419E+01 -0.11235042913E+02  0.19243953210E+02  0.51100000000E-03 0. -1.
         12    1    4    4    0    0  0.10067757508E+02  0.24313693522E+02 -0.14984439286E+02  0.30282814510E+02  0.00000000000E+00 0. -1.
</event>
<event>
 8    1  0.1244838E-006  0.9118800E+02  0.7816164E-02  0.1184000E+00
        -11   -1    0    0    0    0  0.00000000000E+00  0.00000000000E+00  0.45593999997E+02  0.45594000000E+02  0.51100000000E-03 0.  1.
         11   -1    0    0    0    0 -0.00000000000E+00 -0.00000000000E+00 -0.45593999997E+02  0.45594000000E+02  0.51100000000E-03 0. -1.
         23    2    1    2    0    0  0.71054273576E-14  0.11102230246E-15  0.00000000000E+00  0.91188000000E+02  0.91188000000E+02 0.  0.
    9900012    2    3    3    0    0 -0.33245663902E+02  0.77578765423E-01 -0.15827148738E+02  0.54367098002E+02  0.40000031516E+02 0.  0.
        -12    1    3    3    0    0  0.33245663902E+02 -0.77578765423E-01  0.15827148738E+02  0.36820901998E+02  0.00000000000E+00 0.  1.
         11    1    4    4    0    0  0.40128313702E+00 -0.40814902621E+01 -0.14245957182E+02  0.14824536661E+02  0.51100000000E-03 0. -1.
        -11    1    4    4    0    0  0.15252928942E+01  0.27780681015E+01 -0.29317358142E+01  0.43173204578E+01  0.51100000000E-03 0.  1.
         12    1    4    4    0    0 -0.35172239933E+02  0.13810009260E+01  0.13505442588E+01  0.35225240883E+02  0.00000000000E+00 0. -1.
</event>
<event>
 8    1  0.1244838E-006  0.9118800E+02  0.7816164E-02  0.1184000E+00
        -11   -1    0    0    0    0  0.00000000000E+00  0.00000000000E+00  0.45593999997E+02  0.45594000000E+02  0.51100000000E-03 0. -1.
         11   -1    0    0    0    0 -0.00000000000E+00 -0.00000000000E+00 -0.45593999997E+02  0.45594000000E+02  0.51100000000E-03 0.  1.
         23    2    1    2    0    0 -0.88817841970E-15 -0.71054273576E-14  0.00000000000E+00  0.91188000000E+02  0.91188000000E+02 0.  0.
    9900012    2    3    3    0    0  0.78752164225E+01  0.35789443985E+02 -0.35883533896E+01  0.54367087267E+02  0.40000007043E+02 0.  0.
         12    1    3    3    0    0 -0.78752164225E+01 -0.35789443985E+02  0.35883533896E+01  0.36820912733E+02  0.00000000000E+00 0. -1.
         11    1    4    4    0    0  0.17104338535E+01  0.88724399189E+01 -0.90541595814E+01  0.12791543303E+02  0.51100000000E-03 0. -1.
        -11    1    4    4    0    0  0.56667093676E+01 -0.59481848749E+01  0.24271576405E+01  0.85664224059E+01  0.51100000000E-03 0.  1.
         12    1    4    4    0    0  0.49807320135E+00  0.32865188941E+02  0.30386485513E+01  0.33009121558E+02  0.00000000000E+00 0. -1.
</event>
<event>
 8    1  0.1244838E-006  0.9118800E+02  0.7816164E-02  0.1184000E+00
        -11   -1    0    0    0    0  0.00000000000E+00  0.00000000000E+00  0.45593999997E+02  0.45594000000E+02  0.51100000000E-03 0. -1.
         11   -1    0    0    0    0 -0.00000000000E+00 -0.00000000000E+00 -0.45593999997E+02  0.45594000000E+02  0.51100000000E-03 0.  1.
         23    2    1    2    0    0 -0.35527136788E-14  0.35527136788E-14  0.00000000000E+00  0.91188000000E+02  0.91188000000E+02 0.  0.
    9900012    2    3    3    0    0 -0.61844913104E+01 -0.30681026761E+02 -0.19396035451E+02  0.54367088454E+02  0.40000009748E+02 0.  0.
         12    1    3    3    0    0  0.61844913104E+01  0.30681026761E+02  0.19396035451E+02  0.36820911546E+02  0.00000000000E+00 0. -1.
         11    1    4    4    0    0  0.49092560953E+01  0.51917323474E+01 -0.10020699462E+02  0.12307286385E+02  0.51100000000E-03 0. -1.
        -11    1    4    4    0    0 -0.14858163732E+02 -0.23746769555E+02 -0.87528560433E+01  0.29347684457E+02  0.51100000000E-03 0.  1.
         12    1    4    4    0    0  0.37644163262E+01 -0.12125989553E+02 -0.62247994550E+00  0.12712117613E+02  0.00000000000E+00 0. -1.
</event>
<event>
 8    1  0.1244838E-006  0.9118800E+02  0.7816164E-02  0.1184000E+00
        -11   -1    0    0    0    0  0.00000000000E+00  0.00000000000E+00  0.45593999997E+02  0.45594000000E+02  0.51100000000E-03 0. -1.
         11   -1    0    0    0    0 -0.00000000000E+00 -0.00000000000E+00 -0.45593999997E+02  0.45594000000E+02  0.51100000000E-03 0.  1.
         23    2    1    2    0    0  0.00000000000E+00  0.88817841970E-15 -0.55511151231E-15  0.91188000000E+02  0.91188000000E+02 0.  0.
    9900012    2    3    3    0    0 -0.36341203568E+02 -0.59006719801E+01  0.52805666659E+00  0.54367084063E+02  0.39999999738E+02 0.  0.
         12    1    3    3    0    0  0.36341203568E+02  0.59006719801E+01 -0.52805666659E+00  0.36820915937E+02  0.00000000000E+00 0. -1.
         11    1    4    4    0    0 -0.70482052766E+01 -0.10381116977E+02  0.53743935925E+01  0.13650234213E+02  0.51100000000E-03 0.  1.
        -11    1    4    4    0    0 -0.17878609368E+01  0.23923293574E+01  0.92636835303E+01  0.97332173147E+01  0.51100000000E-03 0. -1.
        -12    1    4    4    0    0 -0.27505137355E+02  0.20881156397E+01 -0.14110020456E+02  0.30983632536E+02  0.00000000000E+00 0.  1.
</event>
<event>
 8    1  0.1244838E-006  0.9118800E+02  0.7816164E-02  0.1184000E+00
        -11   -1    0    0    0    0  0.00000000000E+00  0.00000000000E+00  0.45593999997E+02  0.45594000000E+02  0.51100000000E-03 0.  1.
         11   -1    0    0    0    0 -0.00000000000E+00 -0.00000000000E+00 -0.45593999997E+02  0.45594000000E+02  0.51100000000E-03 0. -1.
         23    2    1    2    0    0  0.00000000000E+00  0.00000000000E+00 -0.17763568394E-14  0.91188000000E+02  0.91188000000E+02 0.  0.
    9900012    2    3    3    0    0  0.60056497499E+01 -0.33199104143E+02 -0.14749411715E+02  0.54366898839E+02  0.39999577480E+02 0.  0.
        -12    1    3    3    0    0 -0.60056497499E+01  0.33199104143E+02  0.14749411715E+02  0.36821101161E+02  0.00000000000E+00 0.  1.
         11    1    4    4    0    0 -0.17840220800E+01 -0.73955874090E+01 -0.25969489988E+01  0.80387556419E+01  0.51100000000E-03 0.  1.
        -11    1    4    4    0    0  0.85009936376E+01  0.12196997426E+01  0.86717925008E+01  0.12204693594E+02  0.51100000000E-03 0. -1.
         12    1    4    4    0    0 -0.71132180777E+00 -0.27023216477E+02 -0.20824255217E+02  0.34123449603E+02  0.00000000000E+00 0. -1.
</event>
<event>
 8    1  0.1244838E-006  0.9118800E+02  0.7816164E-02  0.1184000E+00
        -11   -1    0    0    0    0  0.00000000000E+00  0.00000000000E+00  0.45593999997E+02  0.45594000000E+02  0.51100000000E-03 0.  1.
         11   -1    0    0    0    0 -0.00000000000E+00 -0.00000000000E+00 -0.45593999997E+02  0.45594000000E+02  0.51100000000E-03 0. -1.
         23    2    1    2    0    0 -0.17763568394E-14 -0.61062266354E-15  0.00000000000E+00  0.91188000000E+02  0.91188000000E+02 0.  0.
    9900012    2    3    3    0    0  0.41052309644E+01  0.48858892431E+00 -0.36588077644E+02  0.54367094714E+02  0.40000024020E+02 0.  0.
        -12    1    3    3    0    0 -0.41052309644E+01 -0.48858892431E+00  0.36588077644E+02  0.36820905286E+02  0.00000000000E+00 0.  1.
         11    1    4    4    0    0  0.17525404597E+02 -0.83449899045E+01 -0.16906804506E+02  0.25741381114E+02  0.51100000000E-03 0. -1.
        -11    1    4    4    0    0 -0.64445967166E+01  0.99155316682E+01 -0.60695695640E+01  0.13292489235E+02  0.51100000000E-03 0.  1.
         12    1    4    4    0    0 -0.69755769162E+01 -0.10819528394E+01 -0.13611703574E+02  0.15333224365E+02  0.00000000000E+00 0. -1.
</event>
<event>
 8    1  0.1244838E-006  0.9118800E+02  0.7816164E-02  0.1184000E+00
        -11   -1    0    0    0    0  0.00000000000E+00  0.00000000000E+00  0.45593999997E+02  0.45594000000E+02  0.51100000000E-03 0. -1.
         11   -1    0    0    0    0 -0.00000000000E+00 -0.00000000000E+00 -0.45593999997E+02  0.45594000000E+02  0.51100000000E-03 0.  1.
         23    2    1    2    0    0 -0.17763568394E-14  0.00000000000E+00  0.00000000000E+00  0.91188000000E+02  0.91188000000E+02 0.  0.
    9900012    2    3    3    0    0 -0.11547865367E+02  0.73848871482E+01 -0.34174412726E+02  0.54367078802E+02  0.39999987744E+02 0.  0.
         12    1    3    3    0    0  0.11547865367E+02 -0.73848871482E+01  0.34174412726E+02  0.36820921198E+02  0.00000000000E+00 0. -1.
         11    1    4    4    0    0 -0.24860527143E+01 -0.20247989880E+01 -0.16349647106E+02  0.16661069288E+02  0.51100000000E-03 0. -1.
        -11    1    4    4    0    0  0.47893829206E+01  0.11765465660E+02 -0.19793061581E+02  0.23518708679E+02  0.51100000000E-03 0.  1.
         12    1    4    4    0    0 -0.13851195574E+02 -0.23557795236E+01  0.19682959613E+01  0.14187300835E+02  0.00000000000E+00 0. -1.
</event>
<event>
 8    1  0.1244838E-006  0.9118800E+02  0.7816164E-02  0.1184000E+00
        -11   -1    0    0    0    0  0.00000000000E+00  0.00000000000E+00  0.45593999997E+02  0.45594000000E+02  0.51100000000E-03 0. -1.
         11   -1    0    0    0    0 -0.00000000000E+00 -0.00000000000E+00 -0.45593999997E+02  0.45594000000E+02  0.51100000000E-03 0.  1.
         23    2    1    2    0    0  0.00000000000E+00  0.00000000000E+00  0.00000000000E+00  0.91188000000E+02  0.91188000000E+02 0.  0.
    9900012    2    3    3    0    0  0.25643711806E+02  0.98078867384E+01  0.24535381338E+02  0.54367088348E+02  0.40000009506E+02 0.  0.
        -12    1    3    3    0    0 -0.25643711806E+02 -0.98078867384E+01 -0.24535381338E+02  0.36820911652E+02  0.00000000000E+00 0.  1.
         11    1    4    4    0    0  0.10406303289E+02  0.33259134232E+00  0.20297722296E+02  0.22812261962E+02  0.51100000000E-03 0. -1.
        -11    1    4    4    0    0  0.34200946743E+01 -0.88149169044E+01  0.56894996207E+00  0.94722495709E+01  0.51100000000E-03 0.  1.
        -12    1    4    4    0    0  0.11817313843E+02  0.18290212301E+02  0.36687090800E+01  0.22082576815E+02  0.00000000000E+00 0.  1.
</event>
<event>
 8    1  0.1244838E-006  0.9118800E+02  0.7816164E-02  0.1184000E+00
        -11   -1    0    0    0    0  0.00000000000E+00  0.00000000000E+00  0.45593999997E+02  0.45594000000E+02  0.51100000000E-03 0.  1.
         11   -1    0    0    0    0 -0.00000000000E+00 -0.00000000000E+00 -0.45593999997E+02  0.45594000000E+02  0.51100000000E-03 0. -1.
         23    2    1    2    0    0  0.35527136788E-14  0.00000000000E+00 -0.88817841970E-15  0.91188000000E+02  0.91188000000E+02 0.  0.
    9900012    2    3    3    0    0  0.26280505857E+02  0.25626347035E+02  0.28990516768E+01  0.54367093559E+02  0.40000021387E+02 0.  0.
        -12    1    3    3    0    0 -0.26280505857E+02 -0.25626347035E+02 -0.28990516768E+01  0.36820906441E+02  0.00000000000E+00 0.  1.
         11    1    4    4    0    0  0.12399439558E+01  0.75997958009E+01 -0.61919294131E+01  0.98810094296E+01  0.51100000000E-03 0. -1.
        -11    1    4    4    0    0  0.22679798366E+02 -0.20801711938E+01  0.13607861055E+01  0.22815610998E+02  0.51100000000E-03 0.  1.
         12    1    4    4    0    0  0.23607635357E+01  0.20106722428E+02  0.77301949844E+01  0.21670473132E+02  0.00000000000E+00 0. -1.
</event>
<event>
 8    1  0.1244838E-006  0.9118800E+02  0.7816164E-02  0.1184000E+00
        -11   -1    0    0    0    0  0.00000000000E+00  0.00000000000E+00  0.45593999997E+02  0.45594000000E+02  0.51100000000E-03 0. -1.
         11   -1    0    0    0    0 -0.00000000000E+00 -0.00000000000E+00 -0.45593999997E+02  0.45594000000E+02  0.51100000000E-03 0.  1.
         23    2    1    2    0    0 -0.17763568394E-14  0.00000000000E+00 -0.35527136788E-14  0.91188000000E+02  0.91188000000E+02 0.  0.
    9900012    2    3    3    0    0  0.14220281251E+02  0.20219674393E+02 -0.27289704363E+02  0.54367087523E+02  0.40000007625E+02 0.  0.
        -12    1    3    3    0    0 -0.14220281251E+02 -0.20219674393E+02  0.27289704363E+02  0.36820912477E+02  0.00000000000E+00 0.  1.
         11    1    4    4    0    0  0.23260279343E+02  0.17316318003E+02 -0.49823948628E+01  0.29423115456E+02  0.51100000000E-03 0. -1.
        -11    1    4    4    0    0 -0.27416176564E+01 -0.11090189337E+01 -0.11019396184E+02  0.11409359443E+02  0.51100000000E-03 0.  1.
         12    1    4    4    0    0 -0.62983804355E+01  0.40123753238E+01 -0.11287913316E+02  0.13534612624E+02  0.00000000000E+00 0. -1.
</event>
<event>
 8    1  0.1244838E-006  0.9118800E+02  0.7816164E-02  0.1184000E+00
        -11   -1    0    0    0    0  0.00000000000E+00  0.00000000000E+00  0.45593999997E+02  0.45594000000E+02  0.51100000000E-03 0.  1.
         11   -1    0    0    0    0 -0.00000000000E+00 -0.00000000000E+00 -0.45593999997E+02  0.45594000000E+02  0.51100000000E-03 0. -1.
         23    2    1    2    0    0  0.35527136788E-14  0.00000000000E+00  0.00000000000E+00  0.91188000000E+02  0.91188000000E+02 0.  0.
    9900012    2    3    3    0    0 -0.24166230185E+02 -0.12811210086E+02  0.24650473334E+02  0.54367087181E+02  0.40000006846E+02 0.  0.
         12    1    3    3    0    0  0.24166230185E+02  0.12811210086E+02 -0.24650473334E+02  0.36820912819E+02  0.00000000000E+00 0. -1.
         11    1    4    4    0    0 -0.78725086775E+01 -0.41573335584E+01  0.96679130419E+01  0.13142616103E+02  0.51100000000E-03 0.  1.
        -11    1    4    4    0    0 -0.44912559273E+01  0.98360746976E+01  0.15947348595E+02  0.19267528973E+02  0.51100000000E-03 0. -1.
        -12    1    4    4    0    0 -0.11802465581E+02 -0.18489951225E+02 -0.96478830267E+00  0.21956942104E+02  0.00000000000E+00 0.  1.
</event>
<event>
 8    1  0.1244838E-006  0.9118800E+02  0.7816164E-02  0.1184000E+00
        -11   -1    0    0    0    0  0.00000000000E+00  0.00000000000E+00  0.45593999997E+02  0.45594000000E+02  0.51100000000E-03 0.  1.
         11   -1    0    0    0    0 -0.00000000000E+00 -0.00000000000E+00 -0.45593999997E+02  0.45594000000E+02  0.51100000000E-03 0. -1.
         23    2    1    2    0    0  0.00000000000E+00 -0.35527136788E-14  0.35527136788E-14  0.91188000000E+02  0.91188000000E+02 0.  0.
    9900012    2    3    3    0    0 -0.10728797815E+02 -0.16185219076E+02  0.31284384272E+02  0.54367066845E+02  0.39999960487E+02 0.  0.
         12    1    3    3    0    0  0.10728797815E+02  0.16185219076E+02 -0.31284384272E+02  0.36820933155E+02  0.00000000000E+00 0. -1.
         11    1    4    4    0    0  0.61753132037E+01 -0.76032813647E+01  0.11574013514E+00  0.97958040362E+01  0.51100000000E-03 0. -1.
        -11    1    4    4    0    0 -0.67094227578E+01  0.87649219584E+01  0.15698708405E+02  0.19190874303E+02  0.51100000000E-03 0.  1.
        -12    1    4    4    0    0 -0.10194688261E+02 -0.17346859670E+02  0.15469935732E+02  0.25380388506E+02  0.00000000000E+00 0.  1.
</event>
<event>
 8    1  0.1244838E-006  0.9118800E+02  0.7816164E-02  0.1184000E+00
        -11   -1    0    0    0    0  0.00000000000E+00  0.00000000000E+00  0.45593999997E+02  0.45594000000E+02  0.51100000000E-03 0. -1.
         11   -1    0    0    0    0 -0.00000000000E+00 -0.00000000000E+00 -0.45593999997E+02  0.45594000000E+02  0.51100000000E-03 0.  1.
         23    2    1    2    0    0 -0.17763568394E-14  0.00000000000E+00 -0.35527136788E-14  0.91188000000E+02  0.91188000000E+02 0.  0.
    9900012    2    3    3    0    0 -0.13815591134E+02  0.12703379875E+02 -0.31678595109E+02  0.54367084657E+02  0.40000001092E+02 0.  0.
         12    1    3    3    0    0  0.13815591134E+02 -0.12703379875E+02  0.31678595109E+02  0.36820915343E+02  0.00000000000E+00 0. -1.
         11    1    4    4    0    0 -0.38395049850E+01 -0.26037583494E+01  0.97852054827E+00  0.47411874880E+01  0.51100000000E-03 0. -1.
        -11    1    4    4    0    0 -0.10421389056E+02 -0.59616498046E+01 -0.23652434238E+02  0.26525162844E+02  0.51100000000E-03 0.  1.
        -12    1    4    4    0    0  0.44530290684E+00  0.21268788029E+02 -0.90046814192E+01  0.23100734325E+02  0.00000000000E+00 0.  1.
</event>
<event>
 8    1  0.1244838E-006  0.9118800E+02  0.7816164E-02  0.1184000E+00
        -11   -1    0    0    0    0  0.00000000000E+00  0.00000000000E+00  0.45593999997E+02  0.45594000000E+02  0.51100000000E-03 0.  1.
         11   -1    0    0    0    0 -0.00000000000E+00 -0.00000000000E+00 -0.45593999997E+02  0.45594000000E+02  0.51100000000E-03 0. -1.
         23    2    1    2    0    0  0.17763568394E-14 -0.17763568394E-14  0.00000000000E+00  0.91188000000E+02  0.91188000000E+02 0.  0.
    9900012    2    3    3    0    0  0.13020032187E+02 -0.12518315624E+02 -0.32086649760E+02  0.54367047309E+02  0.39999915950E+02 0.  0.
        -12    1    3    3    0    0 -0.13020032187E+02  0.12518315624E+02  0.32086649760E+02  0.36820952691E+02  0.00000000000E+00 0.  1.
         11    1    4    4    0    0 -0.10857344509E+02 -0.39176694561E+01 -0.44458151489E+01  0.12369128359E+02  0.51100000000E-03 0. -1.
        -11    1    4    4    0    0  0.18116686417E+01  0.26576252684E+01  0.16676769287E+01  0.36230183458E+01  0.51100000000E-03 0.  1.
         12    1    4    4    0    0  0.22065708055E+02 -0.11258271437E+02 -0.29308511540E+02  0.38374900604E+02  0.00000000000E+00 0. -1.
</event>
<event>
 8    1  0.1244838E-006  0.9118800E+02  0.7816164E-02  0.1184000E+00
        -11   -1    0    0    0    0  0.00000000000E+00  0.00000000000E+00  0.45593999997E+02  0.45594000000E+02  0.51100000000E-03 0.  1.
         11   -1    0    0    0    0 -0.00000000000E+00 -0.00000000000E+00 -0.45593999997E+02  0.45594000000E+02  0.51100000000E-03 0. -1.
         23    2    1    2    0    0 -0.17763568394E-14  0.17763568394E-14  0.00000000000E+00  0.91188000000E+02  0.91188000000E+02 0.  0.
    9900012    2    3    3    0    0  0.75896724588E+01 -0.11446030582E+02 -0.34163800970E+02  0.54367081477E+02  0.39999993843E+02 0.  0.
        -12    1    3    3    0    0 -0.75896724588E+01  0.11446030582E+02  0.34163800970E+02  0.36820918523E+02  0.00000000000E+00 0.  1.
         11    1    4    4    0    0  0.13174775338E+02 -0.92517415220E+01 -0.13945222165E+02  0.21298794517E+02  0.51100000000E-03 0. -1.
        -11    1    4    4    0    0 -0.40222393589E+01 -0.10352360851E+02 -0.21934925190E+02  0.24586393148E+02  0.51100000000E-03 0.  1.
        -12    1    4    4    0    0 -0.15628635204E+01  0.81580717910E+01  0.17163463844E+01  0.84818938122E+01  0.00000000000E+00 0.  1.
</event>
<event>
 8    1  0.1244838E-006  0.9118800E+02  0.7816164E-02  0.1184000E+00
        -11   -1    0    0    0    0  0.00000000000E+00  0.00000000000E+00  0.45593999997E+02  0.45594000000E+02  0.51100000000E-03 0.  1.
         11   -1    0    0    0    0 -0.00000000000E+00 -0.00000000000E+00 -0.45593999997E+02  0.45594000000E+02  0.51100000000E-03 0. -1.
         23    2    1    2    0    0 -0.17763568394E-14 -0.35527136788E-14  0.00000000000E+00  0.91188000000E+02  0.91188000000E+02 0.  0.
    9900012    2    3    3    0    0 -0.12404493518E+02 -0.26579853265E+02  0.22258017654E+02  0.54367090059E+02  0.40000013407E+02 0.  0.
         12    1    3    3    0    0  0.12404493518E+02  0.26579853265E+02 -0.22258017654E+02  0.36820909941E+02  0.00000000000E+00 0. -1.
         11    1    4    4    0    0 -0.16381239487E+02 -0.11586468600E+02  0.44957198112E+01  0.20562168140E+02  0.51100000000E-03 0. -1.
        -11    1    4    4    0    0  0.63468595819E+01  0.39402212085E+01  0.11516666894E+02  0.13727402753E+02  0.51100000000E-03 0.  1.
         12    1    4    4    0    0 -0.23701136133E+01 -0.18933605873E+02  0.62456309490E+01  0.20077519166E+02  0.00000000000E+00 0. -1.
</event>
<event>
 8    1  0.1244838E-006  0.9118800E+02  0.7816164E-02  0.1184000E+00
        -11   -1    0    0    0    0  0.00000000000E+00  0.00000000000E+00  0.45593999997E+02  0.45594000000E+02  0.51100000000E-03 0.  1.
         11   -1    0    0    0    0 -0.00000000000E+00 -0.00000000000E+00 -0.45593999997E+02  0.45594000000E+02  0.51100000000E-03 0. -1.
         23    2    1    2    0    0  0.33306690739E-15  0.00000000000E+00  0.00000000000E+00  0.91188000000E+02  0.91188000000E+02 0.  0.
    9900012    2    3    3    0    0 -0.69167052736E+00  0.30206852365E+02  0.21043911612E+02  0.54367101670E+02  0.40000039877E+02 0.  0.
         12    1    3    3    0    0  0.69167052736E+00 -0.30206852365E+02 -0.21043911612E+02  0.36820898330E+02  0.00000000000E+00 0. -1.
         11    1    4    4    0    0 -0.35900570502E+01  0.12822576844E+02 -0.73733619508E+01  0.15220823015E+02  0.51100000000E-03 0. -1.
        -11    1    4    4    0    0  0.87936310104E+01  0.84721828854E+00  0.60304496357E+01  0.10696356774E+02  0.51100000000E-03 0.  1.
        -12    1    4    4    0    0 -0.58952444876E+01  0.16537057233E+02  0.22386823927E+02  0.28449921881E+02  0.00000000000E+00 0.  1.
</event>
<event>
 8    1  0.1244838E-006  0.9118800E+02  0.7816164E-02  0.1184000E+00
        -11   -1    0    0    0    0  0.00000000000E+00  0.00000000000E+00  0.45593999997E+02  0.45594000000E+02  0.51100000000E-03 0.  1.
         11   -1    0    0    0    0 -0.00000000000E+00 -0.00000000000E+00 -0.45593999997E+02  0.45594000000E+02  0.51100000000E-03 0. -1.
         23    2    1    2    0    0  0.00000000000E+00  0.17763568394E-14  0.00000000000E+00  0.91188000000E+02  0.91188000000E+02 0.  0.
    9900012    2    3    3    0    0 -0.32104777029E+02  0.15599033045E+02  0.90406457189E+01  0.54367084544E+02  0.40000000835E+02 0.  0.
        -12    1    3    3    0    0  0.32104777029E+02 -0.15599033045E+02 -0.90406457189E+01  0.36820915456E+02  0.00000000000E+00 0.  1.
         11    1    4    4    0    0 -0.30414939323E+02  0.88492673680E+01 -0.79484628696E+01  0.32658170941E+02  0.51100000000E-03 0. -1.
        -11    1    4    4    0    0  0.28032649071E+01 -0.12183426138E+01  0.91997287150E+01  0.96942076290E+01  0.51100000000E-03 0.  1.
         12    1    4    4    0    0 -0.44931026130E+01  0.79681082904E+01  0.77893798734E+01  0.12014705974E+02  0.00000000000E+00 0. -1.
</event>
<event>
 8    1  0.1244838E-006  0.9118800E+02  0.7816164E-02  0.1184000E+00
        -11   -1    0    0    0    0  0.00000000000E+00  0.00000000000E+00  0.45593999997E+02  0.45594000000E+02  0.51100000000E-03 0.  1.
         11   -1    0    0    0    0 -0.00000000000E+00 -0.00000000000E+00 -0.45593999997E+02  0.45594000000E+02  0.51100000000E-03 0. -1.
         23    2    1    2    0    0 -0.35527136788E-14  0.35527136788E-14  0.22204460493E-15  0.91188000000E+02  0.91188000000E+02 0.  0.
    9900012    2    3    3    0    0  0.28732368278E+02 -0.22976010408E+02  0.15275778133E+01  0.54367088345E+02  0.40000009500E+02 0.  0.
        -12    1    3    3    0    0 -0.28732368278E+02  0.22976010408E+02 -0.15275778133E+01  0.36820911655E+02  0.00000000000E+00 0.  1.
         11    1    4    4    0    0  0.21285691213E+02 -0.78737987313E+00  0.45885377582E+01  0.21788880111E+02  0.51100000000E-03 0. -1.
        -11    1    4    4    0    0 -0.19861252283E+01 -0.51865688945E+01 -0.10404640420E+02  0.11794139767E+02  0.51100000000E-03 0.  1.
        -12    1    4    4    0    0  0.94328022931E+01 -0.17002061640E+02  0.73436804748E+01  0.20784068467E+02  0.00000000000E+00 0.  1.
</event>
<event>
 8    1  0.1244838E-006  0.9118800E+02  0.7816164E-02  0.1184000E+00
        -11   -1    0    0    0    0  0.00000000000E+00  0.00000000000E+00  0.45593999997E+02  0.45594000000E+02  0.51100000000E-03 0.  1.
         11   -1    0    0    0    0 -0.00000000000E+00 -0.00000000000E+00 -0.45593999997E+02  0.45594000000E+02  0.51100000000E-03 0. -1.
         23    2    1    2    0    0  0.00000000000E+00 -0.35527136788E-14  0.00000000000E+00  0.91188000000E+02  0.91188000000E+02 0.  0.
    9900012    2    3    3    0    0  0.69186167737E+01 -0.26681888448E+02  0.24413089755E+02  0.54366954651E+02  0.39999704717E+02 0.  0.
         12    1    3    3    0    0 -0.69186167737E+01  0.26681888448E+02 -0.24413089755E+02  0.36821045349E+02  0.00000000000E+00 0. -1.
         11    1    4    4    0    0 -0.76969149792E+00  0.65241746322E+01  0.22556078099E+01  0.69458654239E+01  0.51100000000E-03 0. -1.
        -11    1    4    4    0    0  0.33212688052E+01 -0.33645395005E+02  0.25125353180E+02  0.42122758744E+02  0.51100000000E-03 0.  1.
        -12    1    4    4    0    0  0.43670394664E+01  0.43933192462E+00 -0.29678712352E+01  0.52983304832E+01  0.00000000000E+00 0.  1.
</event>
<event>
 8    1  0.1244838E-006  0.9118800E+02  0.7816164E-02  0.1184000E+00
        -11   -1    0    0    0    0  0.00000000000E+00  0.00000000000E+00  0.45593999997E+02  0.45594000000E+02  0.51100000000E-03 0. -1.
         11   -1    0    0    0    0 -0.00000000000E+00 -0.00000000000E+00 -0.45593999997E+02  0.45594000000E+02  0.51100000000E-03 0.  1.
         23    2    1    2    0    0 -0.17763568394E-14 -0.26645352591E-14  0.00000000000E+00  0.91188000000E+02  0.91188000000E+02 0.  0.
    9900012    2    3    3    0    0  0.11481654971E+02  0.46676542678E+01 -0.34672242608E+02  0.54367084684E+02  0.40000001155E+02 0.  0.
         12    1    3    3    0    0 -0.11481654971E+02 -0.46676542678E+01  0.34672242608E+02  0.36820915316E+02  0.00000000000E+00 0. -1.
         11    1    4    4    0    0  0.14992488967E+02  0.16933244429E+02 -0.16705684519E+02  0.28117421429E+02  0.51100000000E-03 0. -1.
        -11    1    4    4    0    0  0.50492661096E+01 -0.18781014879E+01 -0.31867285533E+01  0.62592006341E+01  0.51100000000E-03 0.  1.
         12    1    4    4    0    0 -0.85601001049E+01 -0.10387488673E+02 -0.14779829535E+02  0.19990462622E+02  0.00000000000E+00 0. -1.
</event>
<event>
 8    1  0.1244838E-006  0.9118800E+02  0.7816164E-02  0.1184000E+00
        -11   -1    0    0    0    0  0.00000000000E+00  0.00000000000E+00  0.45593999997E+02  0.45594000000E+02  0.51100000000E-03 0. -1.
         11   -1    0    0    0    0 -0.00000000000E+00 -0.00000000000E+00 -0.45593999997E+02  0.45594000000E+02  0.51100000000E-03 0.  1.
         23    2    1    2    0    0  0.00000000000E+00  0.88817841970E-15 -0.71054273576E-14  0.91188000000E+02  0.91188000000E+02 0.  0.
    9900012    2    3    3    0    0 -0.11797025990E+02 -0.62743158411E+01  0.34310992571E+02  0.54367067466E+02  0.39999961901E+02 0.  0.
        -12    1    3    3    0    0  0.11797025990E+02  0.62743158411E+01 -0.34310992571E+02  0.36820932534E+02  0.00000000000E+00 0.  1.
         11    1    4    4    0    0 -0.13980392108E+02 -0.36372825759E+01  0.41004135344E+01  0.15016476932E+02  0.51100000000E-03 0. -1.
        -11    1    4    4    0    0  0.43276039410E+01 -0.75140051741E+01 -0.27771582601E-02  0.86711266627E+01  0.51100000000E-03 0.  1.
         12    1    4    4    0    0 -0.21442378228E+01  0.48769719088E+01  0.30213356195E+02  0.30679463871E+02  0.00000000000E+00 0. -1.
</event>
<event>
 8    1  0.1244838E-006  0.9118800E+02  0.7816164E-02  0.1184000E+00
        -11   -1    0    0    0    0  0.00000000000E+00  0.00000000000E+00  0.45593999997E+02  0.45594000000E+02  0.51100000000E-03 0.  1.
         11   -1    0    0    0    0 -0.00000000000E+00 -0.00000000000E+00 -0.45593999997E+02  0.45594000000E+02  0.51100000000E-03 0. -1.
         23    2    1    2    0    0  0.00000000000E+00  0.17763568394E-14  0.00000000000E+00  0.91188000000E+02  0.91188000000E+02 0.  0.
    9900012    2    3    3    0    0  0.75943609400E+01  0.13026176491E+02 -0.33592033735E+02  0.54367077652E+02  0.39999985124E+02 0.  0.
        -12    1    3    3    0    0 -0.75943609400E+01 -0.13026176491E+02  0.33592033735E+02  0.36820922348E+02  0.00000000000E+00 0.  1.
         11    1    4    4    0    0  0.70107396350E+01  0.10352994414E+02 -0.37641288456E+02  0.39663604986E+02  0.51100000000E-03 0. -1.
        -11    1    4    4    0    0  0.23742362234E+01  0.97237212760E+00 -0.48397675408E+01  0.54777600631E+01  0.51100000000E-03 0.  1.
         12    1    4    4    0    0 -0.17906149185E+01  0.17008099496E+01  0.88890222616E+01  0.92257126032E+01  0.00000000000E+00 0. -1.
</event>
<event>
 8    1  0.1244838E-006  0.9118800E+02  0.7816164E-02  0.1184000E+00
        -11   -1    0    0    0    0  0.00000000000E+00  0.00000000000E+00  0.45593999997E+02  0.45594000000E+02  0.51100000000E-03 0.  1.
         11   -1    0    0    0    0 -0.00000000000E+00 -0.00000000000E+00 -0.45593999997E+02  0.45594000000E+02  0.51100000000E-03 0. -1.
         23    2    1    2    0    0 -0.35527136788E-14  0.00000000000E+00  0.35527136788E-14  0.91188000000E+02  0.91188000000E+02 0.  0.
    9900012    2    3    3    0    0  0.20584408962E+02 -0.18779646654E+02 -0.24070457718E+02  0.54367082636E+02  0.39999996485E+02 0.  0.
        -12    1    3    3    0    0 -0.20584408962E+02  0.18779646654E+02  0.24070457718E+02  0.36820917364E+02  0.00000000000E+00 0.  1.
         11    1    4    4    0    0  0.87925503362E+01 -0.88286170768E+01 -0.56398273247E+01  0.13677027214E+02  0.51100000000E-03 0. -1.
        -11    1    4    4    0    0 -0.20586509192E+01 -0.11234812809E+02 -0.23302875126E+02  0.25951552012E+02  0.51100000000E-03 0.  1.
        -12    1    4    4    0    0  0.13850509545E+02  0.12837832315E+01  0.48722447318E+01  0.14738503410E+02  0.00000000000E+00 0.  1.
</event>
<event>
 8    1  0.1244838E-006  0.9118800E+02  0.7816164E-02  0.1184000E+00
        -11   -1    0    0    0    0  0.00000000000E+00  0.00000000000E+00  0.45593999997E+02  0.45594000000E+02  0.51100000000E-03 0.  1.
         11   -1    0    0    0    0 -0.00000000000E+00 -0.00000000000E+00 -0.45593999997E+02  0.45594000000E+02  0.51100000000E-03 0. -1.
         23    2    1    2    0    0  0.00000000000E+00  0.17763568394E-14  0.00000000000E+00  0.91188000000E+02  0.91188000000E+02 0.  0.
    9900012    2    3    3    0    0 -0.11582066390E+02  0.63912461694E+01 -0.34362582028E+02  0.54367091088E+02  0.40000015754E+02 0.  0.
        -12    1    3    3    0    0  0.11582066390E+02 -0.63912461694E+01  0.34362582028E+02  0.36820908912E+02  0.00000000000E+00 0.  1.
         11    1    4    4    0    0  0.32492035881E+00  0.17212110147E+02 -0.19511837688E+02  0.26020647939E+02  0.51100000000E-03 0. -1.
        -11    1    4    4    0    0  0.44607111333E+01 -0.32503266212E+00 -0.43909202369E+01  0.62676766696E+01  0.51100000000E-03 0.  1.
        -12    1    4    4    0    0 -0.16367697882E+02 -0.10495831316E+02 -0.10459824103E+02  0.22078766479E+02  0.00000000000E+00 0.  1.
</event>
<event>
 8    1  0.1244838E-006  0.9118800E+02  0.7816164E-02  0.1184000E+00
        -11   -1    0    0    0    0  0.00000000000E+00  0.00000000000E+00  0.45593999997E+02  0.45594000000E+02  0.51100000000E-03 0. -1.
         11   -1    0    0    0    0 -0.00000000000E+00 -0.00000000000E+00 -0.45593999997E+02  0.45594000000E+02  0.51100000000E-03 0.  1.
         23    2    1    2    0    0  0.00000000000E+00  0.00000000000E+00 -0.99920072216E-15  0.91188000000E+02  0.91188000000E+02 0.  0.
    9900012    2    3    3    0    0 -0.22337964840E+02  0.29269983764E+02 -0.25287892822E+00  0.54367074285E+02  0.39999977448E+02 0.  0.
        -12    1    3    3    0    0  0.22337964840E+02 -0.29269983764E+02  0.25287892822E+00  0.36820925715E+02  0.00000000000E+00 0.  1.
         11    1    4    4    0    0 -0.71366951608E+00  0.25117529628E+02  0.56276217713E+01  0.25750140696E+02  0.51100000000E-03 0. -1.
        -11    1    4    4    0    0 -0.25339692237E+01  0.41966065038E+01 -0.80276885361E+01  0.94061835868E+01  0.51100000000E-03 0.  1.
         12    1    4    4    0    0 -0.19090326101E+02 -0.44152368201E-01  0.21471878366E+01  0.19210750003E+02  0.00000000000E+00 0. -1.
</event>
<event>
 8    1  0.1244838E-006  0.9118800E+02  0.7816164E-02  0.1184000E+00
        -11   -1    0    0    0    0  0.00000000000E+00  0.00000000000E+00  0.45593999997E+02  0.45594000000E+02  0.51100000000E-03 0.  1.
         11   -1    0    0    0    0 -0.00000000000E+00 -0.00000000000E+00 -0.45593999997E+02  0.45594000000E+02  0.51100000000E-03 0. -1.
         23    2    1    2    0    0  0.00000000000E+00  0.00000000000E+00  0.13322676296E-14  0.91188000000E+02  0.91188000000E+02 0.  0.
    9900012    2    3    3    0    0  0.59635627633E+01  0.36268279764E+02  0.21961158095E+01  0.54367148265E+02  0.40000146099E+02 0.  0.
        -12    1    3    3    0    0 -0.59635627633E+01 -0.36268279764E+02 -0.21961158095E+01  0.36820851735E+02  0.00000000000E+00 0.  1.
         11    1    4    4    0    0 -0.46877184331E+01  0.29365458484E+02 -0.10827069736E+02  0.31646963447E+02  0.51100000000E-03 0. -1.
        -11    1    4    4    0    0  0.11815890981E+02  0.78597760523E+01  0.57822569137E+01  0.15324028665E+02  0.51100000000E-03 0.  1.
         12    1    4    4    0    0 -0.11646097843E+01 -0.95695477234E+00  0.72409286317E+01  0.73961561527E+01  0.00000000000E+00 0. -1.
</event>
<event>
 8    1  0.1244838E-006  0.9118800E+02  0.7816164E-02  0.1184000E+00
        -11   -1    0    0    0    0  0.00000000000E+00  0.00000000000E+00  0.45593999997E+02  0.45594000000E+02  0.51100000000E-03 0. -1.
         11   -1    0    0    0    0 -0.00000000000E+00 -0.00000000000E+00 -0.45593999997E+02  0.45594000000E+02  0.51100000000E-03 0.  1.
         23    2    1    2    0    0  0.00000000000E+00  0.17763568394E-14  0.00000000000E+00  0.91188000000E+02  0.91188000000E+02 0.  0.
    9900012    2    3    3    0    0  0.34091359835E+02 -0.80571144189E+01 -0.11342024858E+02  0.54367089690E+02  0.40000012567E+02 0.  0.
        -12    1    3    3    0    0 -0.34091359835E+02  0.80571144189E+01  0.11342024858E+02  0.36820910310E+02  0.00000000000E+00 0.  1.
         11    1    4    4    0    0  0.14708896056E+02 -0.66278385471E+01 -0.13407183767E+02  0.20976950298E+02  0.51100000000E-03 0. -1.
        -11    1    4    4    0    0  0.24659811276E+02 -0.44664079082E+01  0.64607520833E+01  0.25880425219E+02  0.51100000000E-03 0.  1.
         12    1    4    4    0    0 -0.52773474969E+01  0.30371320364E+01 -0.43955931745E+01  0.75097141733E+01  0.00000000000E+00 0. -1.
</event>
<event>
 8    1  0.1244838E-006  0.9118800E+02  0.7816164E-02  0.1184000E+00
        -11   -1    0    0    0    0  0.00000000000E+00  0.00000000000E+00  0.45593999997E+02  0.45594000000E+02  0.51100000000E-03 0. -1.
         11   -1    0    0    0    0 -0.00000000000E+00 -0.00000000000E+00 -0.45593999997E+02  0.45594000000E+02  0.51100000000E-03 0.  1.
         23    2    1    2    0    0  0.00000000000E+00  0.88817841970E-15  0.00000000000E+00  0.91188000000E+02  0.91188000000E+02 0.  0.
    9900012    2    3    3    0    0 -0.35127857633E+02 -0.62722031715E+01  0.90815666970E+01  0.54367058022E+02  0.39999940372E+02 0.  0.
        -12    1    3    3    0    0  0.35127857633E+02  0.62722031715E+01 -0.90815666970E+01  0.36820941978E+02  0.00000000000E+00 0.  1.
         11    1    4    4    0    0 -0.93422816569E+01  0.13210037786E+02  0.63715627305E+01  0.17389080964E+02  0.51100000000E-03 0. -1.
        -11    1    4    4    0    0 -0.22379450954E+02 -0.74993755545E+01  0.54478352023E+01  0.24223116384E+02  0.51100000000E-03 0.  1.
        -12    1    4    4    0    0 -0.34061250221E+01 -0.11982865403E+02 -0.27378312358E+01  0.12754860674E+02  0.00000000000E+00 0.  1.
</event>
<event>
 8    1  0.1244838E-006  0.9118800E+02  0.7816164E-02  0.1184000E+00
        -11   -1    0    0    0    0  0.00000000000E+00  0.00000000000E+00  0.45593999997E+02  0.45594000000E+02  0.51100000000E-03 0. -1.
         11   -1    0    0    0    0 -0.00000000000E+00 -0.00000000000E+00 -0.45593999997E+02  0.45594000000E+02  0.51100000000E-03 0.  1.
         23    2    1    2    0    0  0.35527136788E-14  0.17763568394E-14 -0.35527136788E-14  0.91188000000E+02  0.91188000000E+02 0.  0.
    9900012    2    3    3    0    0 -0.25379784268E+02  0.90451121043E+01 -0.25096431416E+02  0.54367104135E+02  0.40000045497E+02 0.  0.
         12    1    3    3    0    0  0.25379784268E+02 -0.90451121043E+01  0.25096431416E+02  0.36820895865E+02  0.00000000000E+00 0. -1.
         11    1    4    4    0    0 -0.11517461832E+02 -0.21594273778E+01 -0.10194689575E+02  0.15532119928E+02  0.51100000000E-03 0. -1.
        -11    1    4    4    0    0 -0.21216651182E+02  0.99563500531E+01 -0.19136809979E+02  0.30257109746E+02  0.51100000000E-03 0.  1.
         12    1    4    4    0    0  0.73543287455E+01  0.12481894290E+01  0.42350681382E+01  0.85778744618E+01  0.00000000000E+00 0. -1.
</event>
<event>
 8    1  0.1244838E-006  0.9118800E+02  0.7816164E-02  0.1184000E+00
        -11   -1    0    0    0    0  0.00000000000E+00  0.00000000000E+00  0.45593999997E+02  0.45594000000E+02  0.51100000000E-03 0. -1.
         11   -1    0    0    0    0 -0.00000000000E+00 -0.00000000000E+00 -0.45593999997E+02  0.45594000000E+02  0.51100000000E-03 0.  1.
         23    2    1    2    0    0 -0.35527136788E-14  0.22204460493E-15  0.00000000000E+00  0.91188000000E+02  0.91188000000E+02 0.  0.
    9900012    2    3    3    0    0 -0.26761574932E+02 -0.82252309306E+00 -0.25276930285E+02  0.54367059738E+02  0.39999944286E+02 0.  0.
         12    1    3    3    0    0  0.26761574932E+02  0.82252309306E+00  0.25276930285E+02  0.36820940262E+02  0.00000000000E+00 0. -1.
         11    1    4    4    0    0  0.62505367452E+00  0.41082143315E+01  0.16451503329E+01  0.44692993823E+01  0.51100000000E-03 0. -1.
        -11    1    4    4    0    0 -0.17800641384E+02  0.89093765156E+01 -0.22551517245E+01  0.20033110920E+02  0.51100000000E-03 0.  1.
        -12    1    4    4    0    0 -0.95859872235E+01 -0.13840113940E+02 -0.24666928894E+02  0.29864649436E+02  0.00000000000E+00 0.  1.
</event>
<event>
 8    1  0.1244838E-006  0.9118800E+02  0.7816164E-02  0.1184000E+00
        -11   -1    0    0    0    0  0.00000000000E+00  0.00000000000E+00  0.45593999997E+02  0.45594000000E+02  0.51100000000E-03 0. -1.
         11   -1    0    0    0    0 -0.00000000000E+00 -0.00000000000E+00 -0.45593999997E+02  0.45594000000E+02  0.51100000000E-03 0.  1.
         23    2    1    2    0    0  0.00000000000E+00  0.17763568394E-14  0.00000000000E+00  0.91188000000E+02  0.91188000000E+02 0.  0.
    9900012    2    3    3    0    0 -0.30592823936E+02  0.86087011091E+01  0.18594285619E+02  0.54367108256E+02  0.40000054891E+02 0.  0.
        -12    1    3    3    0    0  0.30592823936E+02 -0.86087011091E+01 -0.18594285619E+02  0.36820891744E+02  0.00000000000E+00 0.  1.
         11    1    4    4    0    0 -0.20372923716E+02 -0.87777228357E+01  0.15245536820E+02  0.26917110397E+02  0.51100000000E-03 0. -1.
        -11    1    4    4    0    0 -0.11248027599E+02  0.14726237596E+02 -0.45255549398E+01  0.19075136864E+02  0.51100000000E-03 0.  1.
        -12    1    4    4    0    0  0.10281273794E+01  0.26601863486E+01  0.78743037383E+01  0.83748609947E+01  0.00000000000E+00 0.  1.
</event>
<event>
 8    1  0.1244838E-006  0.9118800E+02  0.7816164E-02  0.1184000E+00
        -11   -1    0    0    0    0  0.00000000000E+00  0.00000000000E+00  0.45593999997E+02  0.45594000000E+02  0.51100000000E-03 0. -1.
         11   -1    0    0    0    0 -0.00000000000E+00 -0.00000000000E+00 -0.45593999997E+02  0.45594000000E+02  0.51100000000E-03 0.  1.
         23    2    1    2    0    0  0.00000000000E+00 -0.17763568394E-14  0.17763568394E-14  0.91188000000E+02  0.91188000000E+02 0.  0.
    9900012    2    3    3    0    0  0.32702437553E+02  0.14834955110E+02  0.81396584278E+01  0.54367090800E+02  0.40000015096E+02 0.  0.
        -12    1    3    3    0    0 -0.32702437553E+02 -0.14834955110E+02 -0.81396584278E+01  0.36820909200E+02  0.00000000000E+00 0.  1.
         11    1    4    4    0    0 -0.25394030158E+00  0.98875283788E+01  0.12134536754E+02  0.15654861405E+02  0.51100000000E-03 0. -1.
        -11    1    4    4    0    0  0.69182052645E+01 -0.30436125007E+01 -0.82009175455E+01  0.11152586695E+02  0.51100000000E-03 0.  1.
        -12    1    4    4    0    0  0.26038172590E+02  0.79910392320E+01  0.42060392195E+01  0.27559642700E+02  0.00000000000E+00 0.  1.
</event>
<event>
 8    1  0.1244838E-006  0.9118800E+02  0.7816164E-02  0.1184000E+00
        -11   -1    0    0    0    0  0.00000000000E+00  0.00000000000E+00  0.45593999997E+02  0.45594000000E+02  0.51100000000E-03 0.  1.
         11   -1    0    0    0    0 -0.00000000000E+00 -0.00000000000E+00 -0.45593999997E+02  0.45594000000E+02  0.51100000000E-03 0. -1.
         23    2    1    2    0    0 -0.44408920985E-15 -0.35527136788E-14  0.35527136788E-14  0.91188000000E+02  0.91188000000E+02 0.  0.
    9900012    2    3    3    0    0  0.15371937767E+01 -0.24655254008E+02 -0.27304495596E+02  0.54367082104E+02  0.39999995273E+02 0.  0.
        -12    1    3    3    0    0 -0.15371937767E+01  0.24655254008E+02  0.27304495596E+02  0.36820917896E+02  0.00000000000E+00 0.  1.
         11    1    4    4    0    0  0.12081885659E+02 -0.10486158302E+02  0.26966383675E+01  0.16223542639E+02  0.51100000000E-03 0.  1.
        -11    1    4    4    0    0 -0.67933405769E+01  0.24247697065E+00 -0.17240871874E+02  0.18532564165E+02  0.51100000000E-03 0. -1.
        -12    1    4    4    0    0 -0.37513513056E+01 -0.14411572677E+02 -0.12760262089E+02  0.19610975300E+02  0.00000000000E+00 0.  1.
</event>
<event>
 8    1  0.1244838E-006  0.9118800E+02  0.7816164E-02  0.1184000E+00
        -11   -1    0    0    0    0  0.00000000000E+00  0.00000000000E+00  0.45593999997E+02  0.45594000000E+02  0.51100000000E-03 0.  1.
         11   -1    0    0    0    0 -0.00000000000E+00 -0.00000000000E+00 -0.45593999997E+02  0.45594000000E+02  0.51100000000E-03 0. -1.
         23    2    1    2    0    0 -0.35527136788E-14  0.71054273576E-14 -0.35527136788E-14  0.91188000000E+02  0.91188000000E+02 0.  0.
    9900012    2    3    3    0    0 -0.25084998808E+02  0.19178099954E+02 -0.18940019735E+02  0.54367068038E+02  0.39999963206E+02 0.  0.
        -12    1    3    3    0    0  0.25084998808E+02 -0.19178099954E+02  0.18940019735E+02  0.36820931962E+02  0.00000000000E+00 0.  1.
         11    1    4    4    0    0 -0.19451554040E+02  0.29328873541E+02 -0.76096491942E+01  0.36006284713E+02  0.51100000000E-03 0. -1.
        -11    1    4    4    0    0  0.12973336631E+01 -0.36893126450E+01 -0.68309664229E+01  0.78712263948E+01  0.51100000000E-03 0.  1.
         12    1    4    4    0    0 -0.69307784312E+01 -0.64614609421E+01 -0.44994041175E+01  0.10489556930E+02  0.00000000000E+00 0. -1.
</event>
<event>
 8    1  0.1244838E-006  0.9118800E+02  0.7816164E-02  0.1184000E+00
        -11   -1    0    0    0    0  0.00000000000E+00  0.00000000000E+00  0.45593999997E+02  0.45594000000E+02  0.51100000000E-03 0. -1.
         11   -1    0    0    0    0 -0.00000000000E+00 -0.00000000000E+00 -0.45593999997E+02  0.45594000000E+02  0.51100000000E-03 0.  1.
         23    2    1    2    0    0  0.00000000000E+00  0.88817841970E-15  0.00000000000E+00  0.91188000000E+02  0.91188000000E+02 0.  0.
    9900012    2    3    3    0    0  0.15426387972E+02 -0.41905671549E+01 -0.33169919098E+02  0.54367111473E+02  0.40000062226E+02 0.  0.
         12    1    3    3    0    0 -0.15426387972E+02  0.41905671549E+01  0.33169919098E+02  0.36820888527E+02  0.00000000000E+00 0. -1.
         11    1    4    4    0    0  0.24786559956E+01  0.33198930747E+01  0.96278125226E+00  0.42535130860E+01  0.51100000000E-03 0. -1.
        -11    1    4    4    0    0  0.28313024368E+01 -0.15836704068E+02 -0.30392634238E+01  0.16372372817E+02  0.51100000000E-03 0.  1.
        -12    1    4    4    0    0  0.10116429539E+02  0.83262438388E+01 -0.31093436926E+02  0.33741225570E+02  0.00000000000E+00 0.  1.
</event>
<event>
 8    1  0.1244838E-006  0.9118800E+02  0.7816164E-02  0.1184000E+00
        -11   -1    0    0    0    0  0.00000000000E+00  0.00000000000E+00  0.45593999997E+02  0.45594000000E+02  0.51100000000E-03 0.  1.
         11   -1    0    0    0    0 -0.00000000000E+00 -0.00000000000E+00 -0.45593999997E+02  0.45594000000E+02  0.51100000000E-03 0. -1.
         23    2    1    2    0    0 -0.22204460493E-15  0.35527136788E-14  0.00000000000E+00  0.91188000000E+02  0.91188000000E+02 0.  0.
    9900012    2    3    3    0    0 -0.15378522932E+01  0.31010962141E+02 -0.19792330910E+02  0.54367066750E+02  0.39999960269E+02 0.  0.
        -12    1    3    3    0    0  0.15378522932E+01 -0.31010962141E+02  0.19792330910E+02  0.36820933250E+02  0.00000000000E+00 0.  1.
         11    1    4    4    0    0  0.35553832187E+00  0.10216279661E+01 -0.23068049625E+02  0.23093398298E+02  0.51100000000E-03 0. -1.
        -11    1    4    4    0    0  0.18895795700E+01  0.16684547508E+02 -0.92806725437E+00  0.16816835183E+02  0.51100000000E-03 0.  1.
         12    1    4    4    0    0 -0.37829701851E+01  0.13304786667E+02  0.42037859693E+01  0.14456833268E+02  0.00000000000E+00 0. -1.
</event>
<event>
 8    1  0.1244838E-006  0.9118800E+02  0.7816164E-02  0.1184000E+00
        -11   -1    0    0    0    0  0.00000000000E+00  0.00000000000E+00  0.45593999997E+02  0.45594000000E+02  0.51100000000E-03 0.  1.
         11   -1    0    0    0    0 -0.00000000000E+00 -0.00000000000E+00 -0.45593999997E+02  0.45594000000E+02  0.51100000000E-03 0. -1.
         23    2    1    2    0    0  0.00000000000E+00 -0.88817841970E-15  0.00000000000E+00  0.91188000000E+02  0.91188000000E+02 0.  0.
    9900012    2    3    3    0    0  0.55973438127E+01  0.64822159663E+01  0.35811037155E+02  0.54367085241E+02  0.40000002424E+02 0.  0.
         12    1    3    3    0    0 -0.55973438127E+01 -0.64822159663E+01 -0.35811037155E+02  0.36820914759E+02  0.00000000000E+00 0. -1.
         11    1    4    4    0    0  0.64783211716E+01 -0.13492127105E+02  0.14088273648E+02  0.20554454351E+02  0.51100000000E-03 0. -1.
        -11    1    4    4    0    0 -0.61490772535E-01  0.22828567533E+02  0.20164573191E+02  0.30459108473E+02  0.51100000000E-03 0.  1.
        -12    1    4    4    0    0 -0.81948658636E+00 -0.28542244620E+01  0.15581903159E+01  0.33535224176E+01  0.00000000000E+00 0.  1.
</event>
<event>
 8    1  0.1244838E-006  0.9118800E+02  0.7816164E-02  0.1184000E+00
        -11   -1    0    0    0    0  0.00000000000E+00  0.00000000000E+00  0.45593999997E+02  0.45594000000E+02  0.51100000000E-03 0. -1.
         11   -1    0    0    0    0 -0.00000000000E+00 -0.00000000000E+00 -0.45593999997E+02  0.45594000000E+02  0.51100000000E-03 0.  1.
         23    2    1    2    0    0 -0.53290705182E-14  0.00000000000E+00  0.71054273576E-14  0.91188000000E+02  0.91188000000E+02 0.  0.
    9900012    2    3    3    0    0 -0.12117807971E+02  0.13073137423E+02  0.32218549872E+02  0.54367039286E+02  0.39999897659E+02 0.  0.
        -12    1    3    3    0    0  0.12117807971E+02 -0.13073137423E+02 -0.32218549872E+02  0.36820960714E+02  0.00000000000E+00 0.  1.
         11    1    4    4    0    0  0.14957268430E+01  0.42018958494E+01 -0.57689282912E+01  0.72920272496E+01  0.51100000000E-03 0. -1.
        -11    1    4    4    0    0  0.24771611876E+01 -0.51388741247E+01  0.13137698362E+02  0.14322830493E+02  0.51100000000E-03 0.  1.
         12    1    4    4    0    0 -0.16090696002E+02  0.14010115698E+02  0.24849779800E+02  0.32752181543E+02  0.00000000000E+00 0. -1.
</event>
<event>
 8    1  0.1244838E-006  0.9118800E+02  0.7816164E-02  0.1184000E+00
        -11   -1    0    0    0    0  0.00000000000E+00  0.00000000000E+00  0.45593999997E+02  0.45594000000E+02  0.51100000000E-03 0.  1.
         11   -1    0    0    0    0 -0.00000000000E+00 -0.00000000000E+00 -0.45593999997E+02  0.45594000000E+02  0.51100000000E-03 0. -1.
         23    2    1    2    0    0  0.00000000000E+00  0.00000000000E+00  0.00000000000E+00  0.91188000000E+02  0.91188000000E+02 0.  0.
    9900012    2    3    3    0    0 -0.26059454516E+02 -0.22879802032E+02  0.12377412153E+02  0.54367070594E+02  0.39999969034E+02 0.  0.
        -12    1    3    3    0    0  0.26059454516E+02  0.22879802032E+02 -0.12377412153E+02  0.36820929406E+02  0.00000000000E+00 0.  1.
         11    1    4    4    0    0 -0.18114083428E+02 -0.36754407770E+01 -0.67601848007E+01  0.19680675348E+02  0.51100000000E-03 0. -1.
        -11    1    4    4    0    0  0.46522946745E-01  0.35624329406E+01  0.65868284300E+01  0.74886181548E+01  0.51100000000E-03 0.  1.
         12    1    4    4    0    0 -0.79918940345E+01 -0.22766794196E+02  0.12550768523E+02  0.27197777092E+02  0.00000000000E+00 0. -1.
</event>
<event>
 8    1  0.1244838E-006  0.9118800E+02  0.7816164E-02  0.1184000E+00
        -11   -1    0    0    0    0  0.00000000000E+00  0.00000000000E+00  0.45593999997E+02  0.45594000000E+02  0.51100000000E-03 0. -1.
         11   -1    0    0    0    0 -0.00000000000E+00 -0.00000000000E+00 -0.45593999997E+02  0.45594000000E+02  0.51100000000E-03 0.  1.
         23    2    1    2    0    0 -0.88817841970E-15  0.00000000000E+00  0.00000000000E+00  0.91188000000E+02  0.91188000000E+02 0.  0.
    9900012    2    3    3    0    0  0.29389819451E+01  0.15577702124E+02  0.33233672904E+02  0.54367089731E+02  0.40000012660E+02 0.  0.
        -12    1    3    3    0    0 -0.29389819451E+01 -0.15577702124E+02 -0.33233672904E+02  0.36820910269E+02  0.00000000000E+00 0.  1.
         11    1    4    4    0    0  0.22933006235E+01  0.85934979872E+01  0.10079091185E+02  0.13442303180E+02  0.51100000000E-03 0. -1.
        -11    1    4    4    0    0 -0.14855567409E+02 -0.15786069515E+01  0.15814120670E+02  0.21754684456E+02  0.51100000000E-03 0.  1.
         12    1    4    4    0    0  0.15501248731E+02  0.85628110882E+01  0.73404610485E+01  0.19170102095E+02  0.00000000000E+00 0. -1.
</event>
<event>
 8    1  0.1244838E-006  0.9118800E+02  0.7816164E-02  0.1184000E+00
        -11   -1    0    0    0    0  0.00000000000E+00  0.00000000000E+00  0.45593999997E+02  0.45594000000E+02  0.51100000000E-03 0.  1.
         11   -1    0    0    0    0 -0.00000000000E+00 -0.00000000000E+00 -0.45593999997E+02  0.45594000000E+02  0.51100000000E-03 0. -1.
         23    2    1    2    0    0  0.88817841970E-15  0.00000000000E+00 -0.35527136788E-14  0.91188000000E+02  0.91188000000E+02 0.  0.
    9900012    2    3    3    0    0  0.49323513402E+01 -0.25139835740E+02 -0.26446932980E+02  0.54367086176E+02  0.40000004556E+02 0.  0.
        -12    1    3    3    0    0 -0.49323513402E+01  0.25139835740E+02  0.26446932980E+02  0.36820913824E+02  0.00000000000E+00 0.  1.
         11    1    4    4    0    0  0.20375874252E+01  0.19562822883E+01 -0.27039665151E+01  0.39102734026E+01  0.51100000000E-03 0. -1.
        -11    1    4    4    0    0 -0.46060675768E+01  0.76278289543E+01 -0.60448879696E+01  0.10767557936E+02  0.51100000000E-03 0.  1.
         12    1    4    4    0    0  0.75008314918E+01 -0.34723946983E+02 -0.17698078495E+02  0.39689254838E+02  0.00000000000E+00 0. -1.
</event>
<event>
 8    1  0.1244838E-006  0.9118800E+02  0.7816164E-02  0.1184000E+00
        -11   -1    0    0    0    0  0.00000000000E+00  0.00000000000E+00  0.45593999997E+02  0.45594000000E+02  0.51100000000E-03 0. -1.
         11   -1    0    0    0    0 -0.00000000000E+00 -0.00000000000E+00 -0.45593999997E+02  0.45594000000E+02  0.51100000000E-03 0.  1.
         23    2    1    2    0    0 -0.71054273576E-14  0.00000000000E+00  0.00000000000E+00  0.91188000000E+02  0.91188000000E+02 0.  0.
    9900012    2    3    3    0    0  0.31346021551E+02  0.18938581072E+02  0.38126258546E+01  0.54367095122E+02  0.40000024950E+02 0.  0.
        -12    1    3    3    0    0 -0.31346021551E+02 -0.18938581072E+02 -0.38126258546E+01  0.36820904878E+02  0.00000000000E+00 0.  1.
         11    1    4    4    0    0  0.92918178268E+01  0.22745996201E+02 -0.30376342833E+01  0.24757735034E+02  0.51100000000E-03 0. -1.
        -11    1    4    4    0    0 -0.11517962476E+01 -0.25635773910E+01  0.56839411162E+01  0.63408004629E+01  0.51100000000E-03 0.  1.
        -12    1    4    4    0    0  0.23205999972E+02 -0.12438377374E+01  0.11663190217E+01  0.23268559626E+02  0.00000000000E+00 0.  1.
</event>
<event>
 8    1  0.1244838E-006  0.9118800E+02  0.7816164E-02  0.1184000E+00
        -11   -1    0    0    0    0  0.00000000000E+00  0.00000000000E+00  0.45593999997E+02  0.45594000000E+02  0.51100000000E-03 0. -1.
         11   -1    0    0    0    0 -0.00000000000E+00 -0.00000000000E+00 -0.45593999997E+02  0.45594000000E+02  0.51100000000E-03 0.  1.
         23    2    1    2    0    0  0.00000000000E+00  0.00000000000E+00  0.00000000000E+00  0.91188000000E+02  0.91188000000E+02 0.  0.
    9900012    2    3    3    0    0 -0.86211184328E+01 -0.18629147613E+02  0.30568146017E+02  0.54367076943E+02  0.39999983508E+02 0.  0.
        -12    1    3    3    0    0  0.86211184328E+01  0.18629147613E+02 -0.30568146017E+02  0.36820923057E+02  0.00000000000E+00 0.  1.
         11    1    4    4    0    0 -0.13949777885E+02 -0.91152741270E+01  0.24470003191E+02  0.29605161406E+02  0.51100000000E-03 0. -1.
        -11    1    4    4    0    0 -0.60236920753E+01 -0.10913456310E+02  0.20767383389E+01  0.12637295488E+02  0.51100000000E-03 0.  1.
         12    1    4    4    0    0  0.11352351528E+02  0.13995828245E+01  0.40214044870E+01  0.12124620049E+02  0.00000000000E+00 0. -1.
</event>
<event>
 8    1  0.1244838E-006  0.9118800E+02  0.7816164E-02  0.1184000E+00
        -11   -1    0    0    0    0  0.00000000000E+00  0.00000000000E+00  0.45593999997E+02  0.45594000000E+02  0.51100000000E-03 0.  1.
         11   -1    0    0    0    0 -0.00000000000E+00 -0.00000000000E+00 -0.45593999997E+02  0.45594000000E+02  0.51100000000E-03 0. -1.
         23    2    1    2    0    0 -0.35527136788E-14 -0.35527136788E-14  0.17763568394E-14  0.91188000000E+02  0.91188000000E+02 0.  0.
    9900012    2    3    3    0    0 -0.24683416912E+02 -0.26540961985E+02  0.64873377591E+01  0.54367091745E+02  0.40000017250E+02 0.  0.
        -12    1    3    3    0    0  0.24683416912E+02  0.26540961985E+02 -0.64873377591E+01  0.36820908255E+02  0.00000000000E+00 0.  1.
         11    1    4    4    0    0 -0.64972377283E+01 -0.16076731820E+02 -0.31914455352E+01  0.17631242979E+02  0.51100000000E-03 0. -1.
        -11    1    4    4    0    0  0.74591489016E+01  0.39971628712E+00  0.84785041593E+00  0.75178139134E+01  0.51100000000E-03 0.  1.
         12    1    4    4    0    0 -0.25645328085E+02 -0.10863946452E+02  0.88309328783E+01  0.29218034852E+02  0.00000000000E+00 0. -1.
</event>
<event>
 8    1  0.1244838E-006  0.9118800E+02  0.7816164E-02  0.1184000E+00
        -11   -1    0    0    0    0  0.00000000000E+00  0.00000000000E+00  0.45593999997E+02  0.45594000000E+02  0.51100000000E-03 0. -1.
         11   -1    0    0    0    0 -0.00000000000E+00 -0.00000000000E+00 -0.45593999997E+02  0.45594000000E+02  0.51100000000E-03 0.  1.
         23    2    1    2    0    0 -0.35527136788E-14  0.35527136788E-14 -0.22204460493E-15  0.91188000000E+02  0.91188000000E+02 0.  0.
    9900012    2    3    3    0    0  0.23983494657E+02  0.27911689791E+02  0.12287176325E+01  0.54367079452E+02  0.39999989228E+02 0.  0.
         12    1    3    3    0    0 -0.23983494657E+02 -0.27911689791E+02 -0.12287176325E+01  0.36820920548E+02  0.00000000000E+00 0. -1.
         11    1    4    4    0    0  0.73672390774E+01  0.20883746204E+02 -0.10077065062E+02  0.24330111132E+02  0.51100000000E-03 0. -1.
        -11    1    4    4    0    0  0.31172003525E+01 -0.59006148014E+01 -0.21440641130E+01  0.70093654673E+01  0.51100000000E-03 0.  1.
        -12    1    4    4    0    0  0.13499055228E+02  0.12928558388E+02  0.13449846808E+02  0.23027602853E+02  0.00000000000E+00 0.  1.
</event>
<event>
 8    1  0.1244838E-006  0.9118800E+02  0.7816164E-02  0.1184000E+00
        -11   -1    0    0    0    0  0.00000000000E+00  0.00000000000E+00  0.45593999997E+02  0.45594000000E+02  0.51100000000E-03 0. -1.
         11   -1    0    0    0    0 -0.00000000000E+00 -0.00000000000E+00 -0.45593999997E+02  0.45594000000E+02  0.51100000000E-03 0.  1.
         23    2    1    2    0    0  0.35527136788E-14  0.00000000000E+00 -0.35527136788E-14  0.91188000000E+02  0.91188000000E+02 0.  0.
    9900012    2    3    3    0    0  0.19815262964E+02  0.12336200584E+02  0.28477265894E+02  0.54367066226E+02  0.39999959075E+02 0.  0.
        -12    1    3    3    0    0 -0.19815262964E+02 -0.12336200584E+02 -0.28477265894E+02  0.36820933774E+02  0.00000000000E+00 0.  1.
         11    1    4    4    0    0  0.73625570313E+01 -0.40300540591E+01  0.17901177010E+01  0.85821386264E+01  0.51100000000E-03 0. -1.
        -11    1    4    4    0    0 -0.93717892753E+01  0.26048151899E+01  0.13962979243E+02  0.17017058676E+02  0.51100000000E-03 0.  1.
        -12    1    4    4    0    0  0.21824495208E+02  0.13761439454E+02  0.12724168950E+02  0.28767868924E+02  0.00000000000E+00 0.  1.
</event>
<event>
 8    1  0.1244838E-006  0.9118800E+02  0.7816164E-02  0.1184000E+00
        -11   -1    0    0    0    0  0.00000000000E+00  0.00000000000E+00  0.45593999997E+02  0.45594000000E+02  0.51100000000E-03 0. -1.
         11   -1    0    0    0    0 -0.00000000000E+00 -0.00000000000E+00 -0.45593999997E+02  0.45594000000E+02  0.51100000000E-03 0.  1.
         23    2    1    2    0    0 -0.17763568394E-14  0.00000000000E+00  0.00000000000E+00  0.91188000000E+02  0.91188000000E+02 0.  0.
    9900012    2    3    3    0    0 -0.10846918397E+02  0.10231563437E+02  0.33666605113E+02  0.54367070776E+02  0.39999969449E+02 0.  0.
        -12    1    3    3    0    0  0.10846918397E+02 -0.10231563437E+02 -0.33666605113E+02  0.36820929224E+02  0.00000000000E+00 0.  1.
         11    1    4    4    0    0 -0.83151466122E+01  0.19383188332E+02  0.31542702791E+02  0.37944587924E+02  0.51100000000E-03 0. -1.
        -11    1    4    4    0    0 -0.72308794324E+01 -0.18159746183E+01  0.19621238213E+01  0.77093003140E+01  0.51100000000E-03 0.  1.
        -12    1    4    4    0    0  0.46991076474E+01 -0.73356502766E+01  0.16177850040E+00  0.87131825383E+01  0.00000000000E+00 0.  1.
</event>
<event>
 8    1  0.1244838E-006  0.9118800E+02  0.7816164E-02  0.1184000E+00
        -11   -1    0    0    0    0  0.00000000000E+00  0.00000000000E+00  0.45593999997E+02  0.45594000000E+02  0.51100000000E-03 0. -1.
         11   -1    0    0    0    0 -0.00000000000E+00 -0.00000000000E+00 -0.45593999997E+02  0.45594000000E+02  0.51100000000E-03 0.  1.
         23    2    1    2    0    0  0.44408920985E-15 -0.35527136788E-14 -0.35527136788E-14  0.91188000000E+02  0.91188000000E+02 0.  0.
    9900012    2    3    3    0    0 -0.35636117460E+01  0.24825535177E+02  0.26958738429E+02  0.54367080630E+02  0.39999991913E+02 0.  0.
        -12    1    3    3    0    0  0.35636117460E+01 -0.24825535177E+02 -0.26958738429E+02  0.36820919370E+02  0.00000000000E+00 0.  1.
         11    1    4    4    0    0  0.48263216118E+01 -0.34292774662E+01  0.65930838683E+01  0.88612684981E+01  0.51100000000E-03 0. -1.
        -11    1    4    4    0    0  0.64045950380E+01 -0.45242891194E-01 -0.17764201096E+01  0.66465444546E+01  0.51100000000E-03 0.  1.
         12    1    4    4    0    0 -0.14794528396E+02  0.28300055535E+02  0.22142074671E+02  0.38859267678E+02  0.00000000000E+00 0. -1.
</event>
<event>
 8    1  0.1244838E-006  0.9118800E+02  0.7816164E-02  0.1184000E+00
        -11   -1    0    0    0    0  0.00000000000E+00  0.00000000000E+00  0.45593999997E+02  0.45594000000E+02  0.51100000000E-03 0.  1.
         11   -1    0    0    0    0 -0.00000000000E+00 -0.00000000000E+00 -0.45593999997E+02  0.45594000000E+02  0.51100000000E-03 0. -1.
         23    2    1    2    0    0 -0.71054273576E-14 -0.17763568394E-14  0.88817841970E-15  0.91188000000E+02  0.91188000000E+02 0.  0.
    9900012    2    3    3    0    0  0.32474066264E+02 -0.15743419249E+02  0.73050003524E+01  0.54367037770E+02  0.39999894204E+02 0.  0.
         12    1    3    3    0    0 -0.32474066264E+02  0.15743419249E+02 -0.73050003524E+01  0.36820962230E+02  0.00000000000E+00 0. -1.
         11    1    4    4    0    0  0.17110655293E+02  0.48615204817E+01 -0.55867384713E+01  0.18644585084E+02  0.51100000000E-03 0. -1.
        -11    1    4    4    0    0  0.13221769620E+02 -0.10620349951E+01  0.25457557655E+01  0.13506442274E+02  0.51100000000E-03 0.  1.
         12    1    4    4    0    0  0.21416413517E+01 -0.19542904736E+02  0.10345983058E+02  0.22216010412E+02  0.00000000000E+00 0. -1.
</event>
<event>
 8    1  0.1244838E-006  0.9118800E+02  0.7816164E-02  0.1184000E+00
        -11   -1    0    0    0    0  0.00000000000E+00  0.00000000000E+00  0.45593999997E+02  0.45594000000E+02  0.51100000000E-03 0.  1.
         11   -1    0    0    0    0 -0.00000000000E+00 -0.00000000000E+00 -0.45593999997E+02  0.45594000000E+02  0.51100000000E-03 0. -1.
         23    2    1    2    0    0  0.35527136788E-14  0.00000000000E+00  0.17763568394E-14  0.91188000000E+02  0.91188000000E+02 0.  0.
    9900012    2    3    3    0    0  0.20976218771E+02 -0.25708269120E+02 -0.15964434368E+02  0.54367081764E+02  0.39999994497E+02 0.  0.
        -12    1    3    3    0    0 -0.20976218771E+02  0.25708269120E+02  0.15964434368E+02  0.36820918236E+02  0.00000000000E+00 0.  1.
         11    1    4    4    0    0  0.11006316248E+02  0.10360638442E+01  0.13898908498E+01  0.11142002624E+02  0.51100000000E-03 0. -1.
        -11    1    4    4    0    0  0.31348350295E+01 -0.67409730193E+01  0.75250010014E+01  0.10577974676E+02  0.51100000000E-03 0.  1.
         12    1    4    4    0    0  0.68350674937E+01 -0.20003359945E+02 -0.24879326219E+02  0.32647104463E+02  0.00000000000E+00 0. -1.
</event>
<event>
 8    1  0.1244838E-006  0.9118800E+02  0.7816164E-02  0.1184000E+00
        -11   -1    0    0    0    0  0.00000000000E+00  0.00000000000E+00  0.45593999997E+02  0.45594000000E+02  0.51100000000E-03 0.  1.
         11   -1    0    0    0    0 -0.00000000000E+00 -0.00000000000E+00 -0.45593999997E+02  0.45594000000E+02  0.51100000000E-03 0. -1.
         23    2    1    2    0    0  0.17763568394E-14  0.00000000000E+00  0.35527136788E-14  0.91188000000E+02  0.91188000000E+02 0.  0.
    9900012    2    3    3    0    0 -0.11410269794E+02  0.19190173487E+02  0.29280070181E+02  0.54367088482E+02  0.40000009813E+02 0.  0.
         12    1    3    3    0    0  0.11410269794E+02 -0.19190173487E+02 -0.29280070181E+02  0.36820911518E+02  0.00000000000E+00 0. -1.
         11    1    4    4    0    0 -0.40494515046E+01  0.30038828390E+01  0.17313066268E+02  0.18032294182E+02  0.51100000000E-03 0. -1.
        -11    1    4    4    0    0  0.18182193108E+00  0.18400536881E+02 -0.37334569890E+01  0.18776355292E+02  0.51100000000E-03 0.  1.
        -12    1    4    4    0    0 -0.75426402200E+01 -0.22142462331E+01  0.15700460902E+02  0.17558439008E+02  0.00000000000E+00 0.  1.
</event>
<event>
 8    1  0.1244838E-006  0.9118800E+02  0.7816164E-02  0.1184000E+00
        -11   -1    0    0    0    0  0.00000000000E+00  0.00000000000E+00  0.45593999997E+02  0.45594000000E+02  0.51100000000E-03 0. -1.
         11   -1    0    0    0    0 -0.00000000000E+00 -0.00000000000E+00 -0.45593999997E+02  0.45594000000E+02  0.51100000000E-03 0.  1.
         23    2    1    2    0    0  0.00000000000E+00 -0.71054273576E-14  0.13877787808E-14  0.91188000000E+02  0.91188000000E+02 0.  0.
    9900012    2    3    3    0    0 -0.14286348880E+02 -0.33932911585E+02 -0.48801423782E+00  0.54367076453E+02  0.39999982390E+02 0.  0.
        -12    1    3    3    0    0  0.14286348880E+02  0.33932911585E+02  0.48801423782E+00  0.36820923547E+02  0.00000000000E+00 0.  1.
         11    1    4    4    0    0 -0.13835513257E+02 -0.70146533148E+01  0.86356258606E+01  0.17753895980E+02  0.51100000000E-03 0. -1.
        -11    1    4    4    0    0  0.11100712353E+02 -0.16355975153E+02 -0.59375613471E+01  0.20639728026E+02  0.51100000000E-03 0.  1.
         12    1    4    4    0    0 -0.11551547976E+02 -0.10562283117E+02 -0.31860787513E+01  0.15973452448E+02  0.00000000000E+00 0. -1.
</event>
<event>
 8    1  0.1244838E-006  0.9118800E+02  0.7816164E-02  0.1184000E+00
        -11   -1    0    0    0    0  0.00000000000E+00  0.00000000000E+00  0.45593999997E+02  0.45594000000E+02  0.51100000000E-03 0.  1.
         11   -1    0    0    0    0 -0.00000000000E+00 -0.00000000000E+00 -0.45593999997E+02  0.45594000000E+02  0.51100000000E-03 0. -1.
         23    2    1    2    0    0  0.17763568394E-14 -0.17763568394E-14  0.00000000000E+00  0.91188000000E+02  0.91188000000E+02 0.  0.
    9900012    2    3    3    0    0  0.13716234228E+02  0.81998285651E+01  0.33172345194E+02  0.54367126090E+02  0.40000095546E+02 0.  0.
         12    1    3    3    0    0 -0.13716234228E+02 -0.81998285651E+01 -0.33172345194E+02  0.36820873910E+02  0.00000000000E+00 0. -1.
         11    1    4    4    0    0 -0.15519319854E+01 -0.15742215066E+01 -0.40727904775E+01  0.46340359056E+01  0.51100000000E-03 0. -1.
        -11    1    4    4    0    0  0.14064974963E+02  0.97551871936E+01  0.41722328600E+02  0.45097005466E+02  0.51100000000E-03 0.  1.
        -12    1    4    4    0    0  0.12031912498E+01  0.18862878116E-01 -0.44771929289E+01  0.46360847182E+01  0.00000000000E+00 0.  1.
</event>
<event>
 8    1  0.1244838E-006  0.9118800E+02  0.7816164E-02  0.1184000E+00
        -11   -1    0    0    0    0  0.00000000000E+00  0.00000000000E+00  0.45593999997E+02  0.45594000000E+02  0.51100000000E-03 0. -1.
         11   -1    0    0    0    0 -0.00000000000E+00 -0.00000000000E+00 -0.45593999997E+02  0.45594000000E+02  0.51100000000E-03 0.  1.
         23    2    1    2    0    0  0.00000000000E+00  0.00000000000E+00  0.00000000000E+00  0.91188000000E+02  0.91188000000E+02 0.  0.
    9900012    2    3    3    0    0  0.44630623052E+01 -0.35461339366E+02  0.88518282646E+01  0.54367076894E+02  0.39999983395E+02 0.  0.
        -12    1    3    3    0    0 -0.44630623052E+01  0.35461339366E+02 -0.88518282646E+01  0.36820923106E+02  0.00000000000E+00 0.  1.
         11    1    4    4    0    0  0.46458546811E+01  0.42310142704E+00  0.49926250681E+01  0.68329558660E+01  0.51100000000E-03 0. -1.
        -11    1    4    4    0    0  0.31136229693E+00  0.57358365986E+01  0.15438875113E+00  0.57463557246E+01  0.51100000000E-03 0.  1.
         12    1    4    4    0    0 -0.49415467289E+00 -0.41620277391E+02  0.37048144454E+01  0.41787765303E+02  0.00000000000E+00 0. -1.
</event>
<event>
 8    1  0.1244838E-006  0.9118800E+02  0.7816164E-02  0.1184000E+00
        -11   -1    0    0    0    0  0.00000000000E+00  0.00000000000E+00  0.45593999997E+02  0.45594000000E+02  0.51100000000E-03 0.  1.
         11   -1    0    0    0    0 -0.00000000000E+00 -0.00000000000E+00 -0.45593999997E+02  0.45594000000E+02  0.51100000000E-03 0. -1.
         23    2    1    2    0    0  0.17763568394E-14 -0.35527136788E-14 -0.35527136788E-14  0.91188000000E+02  0.91188000000E+02 0.  0.
    9900012    2    3    3    0    0 -0.12867992836E+02  0.18768095326E+02  0.28947557215E+02  0.54366977330E+02  0.39999756417E+02 0.  0.
         12    1    3    3    0    0  0.12867992836E+02 -0.18768095326E+02 -0.28947557215E+02  0.36821022670E+02  0.00000000000E+00 0. -1.
         11    1    4    4    0    0  0.19047109156E+01  0.12956032312E+02  0.37597678464E+01  0.13624336735E+02  0.51100000000E-03 0. -1.
        -11    1    4    4    0    0 -0.11785078048E+02  0.16398793572E+02  0.11703229742E+02  0.23340395924E+02  0.51100000000E-03 0.  1.
         12    1    4    4    0    0 -0.29876257031E+01 -0.10586730558E+02  0.13484559626E+02  0.17402244671E+02  0.00000000000E+00 0. -1.
</event>
<event>
 8    1  0.1244838E-006  0.9118800E+02  0.7816164E-02  0.1184000E+00
        -11   -1    0    0    0    0  0.00000000000E+00  0.00000000000E+00  0.45593999997E+02  0.45594000000E+02  0.51100000000E-03 0. -1.
         11   -1    0    0    0    0 -0.00000000000E+00 -0.00000000000E+00 -0.45593999997E+02  0.45594000000E+02  0.51100000000E-03 0.  1.
         23    2    1    2    0    0  0.35527136788E-14  0.00000000000E+00  0.00000000000E+00  0.91188000000E+02  0.91188000000E+02 0.  0.
    9900012    2    3    3    0    0 -0.21245299832E+02  0.22470200705E+02 -0.19987643521E+02  0.54367101340E+02  0.40000039124E+02 0.  0.
         12    1    3    3    0    0  0.21245299832E+02 -0.22470200705E+02  0.19987643521E+02  0.36820898660E+02  0.00000000000E+00 0. -1.
         11    1    4    4    0    0  0.25719313526E+00 -0.54137167285E+01 -0.20271988753E+01  0.57865371913E+01  0.51100000000E-03 0. -1.
        -11    1    4    4    0    0 -0.17255834879E+02  0.13188737313E+02  0.37321927425E+01  0.22037148006E+02  0.51100000000E-03 0.  1.
        -12    1    4    4    0    0 -0.42466580876E+01  0.14695180120E+02 -0.21692637388E+02  0.26543416143E+02  0.00000000000E+00 0.  1.
</event>
<event>
 8    1  0.1244838E-006  0.9118800E+02  0.7816164E-02  0.1184000E+00
        -11   -1    0    0    0    0  0.00000000000E+00  0.00000000000E+00  0.45593999997E+02  0.45594000000E+02  0.51100000000E-03 0. -1.
         11   -1    0    0    0    0 -0.00000000000E+00 -0.00000000000E+00 -0.45593999997E+02  0.45594000000E+02  0.51100000000E-03 0.  1.
         23    2    1    2    0    0  0.00000000000E+00  0.00000000000E+00  0.00000000000E+00  0.91188000000E+02  0.91188000000E+02 0.  0.
    9900012    2    3    3    0    0 -0.22669489149E+02  0.18148798571E+02  0.22638360779E+02  0.54367081942E+02  0.39999994904E+02 0.  0.
         12    1    3    3    0    0  0.22669489149E+02 -0.18148798571E+02 -0.22638360779E+02  0.36820918058E+02  0.00000000000E+00 0. -1.
         11    1    4    4    0    0 -0.98200429054E+00  0.12933735052E+01  0.32034160188E+01  0.35915208340E+01  0.51100000000E-03 0. -1.
        -11    1    4    4    0    0 -0.93345355319E+01  0.18366257749E+02  0.28651263369E+02  0.35289486681E+02  0.51100000000E-03 0.  1.
        -12    1    4    4    0    0 -0.12352949326E+02 -0.15108326834E+01 -0.92163186092E+01  0.15486074427E+02  0.00000000000E+00 0.  1.
</event>
<event>
 8    1  0.1244838E-006  0.9118800E+02  0.7816164E-02  0.1184000E+00
        -11   -1    0    0    0    0  0.00000000000E+00  0.00000000000E+00  0.45593999997E+02  0.45594000000E+02  0.51100000000E-03 0. -1.
         11   -1    0    0    0    0 -0.00000000000E+00 -0.00000000000E+00 -0.45593999997E+02  0.45594000000E+02  0.51100000000E-03 0.  1.
         23    2    1    2    0    0  0.88817841970E-15  0.00000000000E+00 -0.35527136788E-14  0.91188000000E+02  0.91188000000E+02 0.  0.
    9900012    2    3    3    0    0 -0.59958943346E+01 -0.30949899144E+02 -0.19024531875E+02  0.54367084491E+02  0.40000000713E+02 0.  0.
         12    1    3    3    0    0  0.59958943346E+01  0.30949899144E+02  0.19024531875E+02  0.36820915509E+02  0.00000000000E+00 0. -1.
         11    1    4    4    0    0 -0.20786952706E+01 -0.25528081782E+02  0.55855196176E+01  0.26214537248E+02  0.51100000000E-03 0. -1.
        -11    1    4    4    0    0  0.54975552485E+00 -0.79293959509E+01 -0.18773413274E+02  0.20386726012E+02  0.51100000000E-03 0.  1.
         12    1    4    4    0    0 -0.44669545888E+01  0.25075785890E+01 -0.58366382187E+01  0.77658212299E+01  0.00000000000E+00 0. -1.
</event>
<event>
 8    1  0.1244838E-006  0.9118800E+02  0.7816164E-02  0.1184000E+00
        -11   -1    0    0    0    0  0.00000000000E+00  0.00000000000E+00  0.45593999997E+02  0.45594000000E+02  0.51100000000E-03 0. -1.
         11   -1    0    0    0    0 -0.00000000000E+00 -0.00000000000E+00 -0.45593999997E+02  0.45594000000E+02  0.51100000000E-03 0.  1.
         23    2    1    2    0    0  0.17763568394E-14 -0.71054273576E-14 -0.66613381478E-15  0.91188000000E+02  0.91188000000E+02 0.  0.
    9900012    2    3    3    0    0  0.49322028560E+01 -0.36457051294E+02 -0.15292350643E+01  0.54367057944E+02  0.39999940194E+02 0.  0.
         12    1    3    3    0    0 -0.49322028560E+01  0.36457051294E+02  0.15292350643E+01  0.36820942056E+02  0.00000000000E+00 0. -1.
         11    1    4    4    0    0  0.13552841316E+02 -0.11952592000E+02 -0.94580800849E+01  0.20396059483E+02  0.51100000000E-03 0. -1.
        -11    1    4    4    0    0 -0.46301804364E+01 -0.27531000020E+02  0.57220545798E+01  0.28498007682E+02  0.51100000000E-03 0.  1.
         12    1    4    4    0    0 -0.39904580238E+01  0.30265407269E+01  0.22067904408E+01  0.54729907785E+01  0.00000000000E+00 0. -1.
</event>
<event>
 8    1  0.1244838E-006  0.9118800E+02  0.7816164E-02  0.1184000E+00
        -11   -1    0    0    0    0  0.00000000000E+00  0.00000000000E+00  0.45593999997E+02  0.45594000000E+02  0.51100000000E-03 0.  1.
         11   -1    0    0    0    0 -0.00000000000E+00 -0.00000000000E+00 -0.45593999997E+02  0.45594000000E+02  0.51100000000E-03 0. -1.
         23    2    1    2    0    0  0.71054273576E-14  0.00000000000E+00  0.35527136788E-14  0.91188000000E+02  0.91188000000E+02 0.  0.
    9900012    2    3    3    0    0  0.23006409269E+02 -0.24095246187E+02  0.15681339671E+02  0.54367079722E+02  0.39999989841E+02 0.  0.
         12    1    3    3    0    0 -0.23006409269E+02  0.24095246187E+02 -0.15681339671E+02  0.36820920278E+02  0.00000000000E+00 0. -1.
         11    1    4    4    0    0 -0.22378527009E+01  0.22672917038E+01  0.41444476154E+01  0.52273360978E+01  0.51100000000E-03 0. -1.
        -11    1    4    4    0    0  0.17154740882E+01 -0.14670092717E+02 -0.76235351960E+01  0.16621454834E+02  0.51100000000E-03 0.  1.
        -12    1    4    4    0    0  0.23528787882E+02 -0.11692445174E+02  0.19160427251E+02  0.32518288789E+02  0.00000000000E+00 0.  1.
</event>
<event>
 8    1  0.1244838E-006  0.9118800E+02  0.7816164E-02  0.1184000E+00
        -11   -1    0    0    0    0  0.00000000000E+00  0.00000000000E+00  0.45593999997E+02  0.45594000000E+02  0.51100000000E-03 0.  1.
         11   -1    0    0    0    0 -0.00000000000E+00 -0.00000000000E+00 -0.45593999997E+02  0.45594000000E+02  0.51100000000E-03 0. -1.
         23    2    1    2    0    0  0.00000000000E+00 -0.88817841970E-15  0.00000000000E+00  0.91188000000E+02  0.91188000000E+02 0.  0.
    9900012    2    3    3    0    0 -0.36196936723E+02 -0.14978731304E+01 -0.65815666134E+01  0.54367097361E+02  0.40000030054E+02 0.  0.
        -12    1    3    3    0    0  0.36196936723E+02  0.14978731304E+01  0.65815666134E+01  0.36820902639E+02  0.00000000000E+00 0.  1.
         11    1    4    4    0    0 -0.66881124879E+01 -0.12110514118E+02  0.67118183331E+00  0.13850844240E+02  0.51100000000E-03 0.  1.
        -11    1    4    4    0    0 -0.22972527052E+02 -0.41525523236E+01 -0.69826107688E+01  0.24366730256E+02  0.51100000000E-03 0. -1.
        -12    1    4    4    0    0 -0.65362971836E+01  0.14765193311E+02 -0.27013767792E+00  0.16149522865E+02  0.00000000000E+00 0.  1.
</event>
<event>
 8    1  0.1244838E-006  0.9118800E+02  0.7816164E-02  0.1184000E+00
        -11   -1    0    0    0    0  0.00000000000E+00  0.00000000000E+00  0.45593999997E+02  0.45594000000E+02  0.51100000000E-03 0. -1.
         11   -1    0    0    0    0 -0.00000000000E+00 -0.00000000000E+00 -0.45593999997E+02  0.45594000000E+02  0.51100000000E-03 0.  1.
         23    2    1    2    0    0  0.00000000000E+00  0.00000000000E+00  0.00000000000E+00  0.91188000000E+02  0.91188000000E+02 0.  0.
    9900012    2    3    3    0    0 -0.27381747497E+02  0.92550963280E+01  0.22811493948E+02  0.54367066278E+02  0.39999959193E+02 0.  0.
        -12    1    3    3    0    0  0.27381747497E+02 -0.92550963280E+01 -0.22811493948E+02  0.36820933722E+02  0.00000000000E+00 0.  1.
         11    1    4    4    0    0 -0.66771172985E+01  0.97777594064E+01  0.12571641148E+02  0.17269471209E+02  0.51100000000E-03 0. -1.
        -11    1    4    4    0    0  0.40470140825E+01 -0.48183993982E+01 -0.47137317101E+01  0.78622237720E+01  0.51100000000E-03 0.  1.
        -12    1    4    4    0    0 -0.24751644281E+02  0.42957363198E+01  0.14953584510E+02  0.29235371296E+02  0.00000000000E+00 0.  1.
</event>
<event>
 8    1  0.1244838E-006  0.9118800E+02  0.7816164E-02  0.1184000E+00
        -11   -1    0    0    0    0  0.00000000000E+00  0.00000000000E+00  0.45593999997E+02  0.45594000000E+02  0.51100000000E-03 0.  1.
         11   -1    0    0    0    0 -0.00000000000E+00 -0.00000000000E+00 -0.45593999997E+02  0.45594000000E+02  0.51100000000E-03 0. -1.
         23    2    1    2    0    0  0.00000000000E+00  0.31641356202E-14  0.00000000000E+00  0.91188000000E+02  0.91188000000E+02 0.  0.
    9900012    2    3    3    0    0 -0.65431084903E+01 -0.41949198174E+00  0.36232461661E+02  0.54367088547E+02  0.40000009961E+02 0.  0.
         12    1    3    3    0    0  0.65431084903E+01  0.41949198174E+00 -0.36232461661E+02  0.36820911453E+02  0.00000000000E+00 0. -1.
         11    1    4    4    0    0 -0.10048670217E+02  0.14021643109E+02  0.34056541139E+01  0.17583535731E+02  0.51100000000E-03 0. -1.
        -11    1    4    4    0    0 -0.46486975190E+00 -0.13091931104E+01  0.10407116935E+02  0.10499436825E+02  0.51100000000E-03 0.  1.
         12    1    4    4    0    0  0.39704314785E+01 -0.13131941980E+02  0.22419690611E+02  0.26284115991E+02  0.00000000000E+00 0. -1.
</event>
<event>
 8    1  0.1244838E-006  0.9118800E+02  0.7816164E-02  0.1184000E+00
        -11   -1    0    0    0    0  0.00000000000E+00  0.00000000000E+00  0.45593999997E+02  0.45594000000E+02  0.51100000000E-03 0.  1.
         11   -1    0    0    0    0 -0.00000000000E+00 -0.00000000000E+00 -0.45593999997E+02  0.45594000000E+02  0.51100000000E-03 0. -1.
         23    2    1    2    0    0  0.00000000000E+00  0.35527136788E-14  0.00000000000E+00  0.91188000000E+02  0.91188000000E+02 0.  0.
    9900012    2    3    3    0    0 -0.18655811328E+02 -0.30137517597E+02  0.99734796801E+01  0.54367088005E+02  0.40000008725E+02 0.  0.
         12    1    3    3    0    0  0.18655811328E+02  0.30137517597E+02 -0.99734796801E+01  0.36820911995E+02  0.00000000000E+00 0. -1.
         11    1    4    4    0    0  0.50147701674E+01  0.50621966246E+01  0.12724203810E+01  0.72382876694E+01  0.51100000000E-03 0. -1.
        -11    1    4    4    0    0 -0.32844281234E+01 -0.21297670328E+02  0.25599700865E+01  0.21700960269E+02  0.51100000000E-03 0.  1.
         12    1    4    4    0    0 -0.20386153372E+02 -0.13902043893E+02  0.61410892126E+01  0.25427840066E+02  0.00000000000E+00 0. -1.
</event>
<event>
 8    1  0.1244838E-006  0.9118800E+02  0.7816164E-02  0.1184000E+00
        -11   -1    0    0    0    0  0.00000000000E+00  0.00000000000E+00  0.45593999997E+02  0.45594000000E+02  0.51100000000E-03 0.  1.
         11   -1    0    0    0    0 -0.00000000000E+00 -0.00000000000E+00 -0.45593999997E+02  0.45594000000E+02  0.51100000000E-03 0. -1.
         23    2    1    2    0    0  0.00000000000E+00  0.17763568394E-14  0.51070259133E-14  0.91188000000E+02  0.91188000000E+02 0.  0.
    9900012    2    3    3    0    0  0.35091538626E+02 -0.11072956637E+02  0.13240313900E+01  0.54367088673E+02  0.40000010248E+02 0.  0.
         12    1    3    3    0    0 -0.35091538626E+02  0.11072956637E+02 -0.13240313900E+01  0.36820911327E+02  0.00000000000E+00 0. -1.
         11    1    4    4    0    0  0.17855356792E+01  0.32410883681E-01 -0.15359742767E+02  0.15463210736E+02  0.51100000000E-03 0. -1.
        -11    1    4    4    0    0  0.32299552923E+02 -0.10486757806E+02  0.16012004362E+02  0.37544873049E+02  0.51100000000E-03 0.  1.
         12    1    4    4    0    0  0.10064500237E+01 -0.61860971394E+00  0.67176979514E+00  0.13590048881E+01  0.00000000000E+00 0. -1.
</event>
<event>
 8    1  0.1244838E-006  0.9118800E+02  0.7816164E-02  0.1184000E+00
        -11   -1    0    0    0    0  0.00000000000E+00  0.00000000000E+00  0.45593999997E+02  0.45594000000E+02  0.51100000000E-03 0. -1.
         11   -1    0    0    0    0 -0.00000000000E+00 -0.00000000000E+00 -0.45593999997E+02  0.45594000000E+02  0.51100000000E-03 0.  1.
         23    2    1    2    0    0  0.00000000000E+00 -0.29143354396E-14  0.00000000000E+00  0.91188000000E+02  0.91188000000E+02 0.  0.
    9900012    2    3    3    0    0  0.39792591966E+01  0.76248058597E-01 -0.36605188817E+02  0.54367079780E+02  0.39999989974E+02 0.  0.
         12    1    3    3    0    0 -0.39792591966E+01 -0.76248058597E-01  0.36605188817E+02  0.36820920220E+02  0.00000000000E+00 0. -1.
         11    1    4    4    0    0  0.31212045514E+01  0.12553616289E+02 -0.11797815376E+02  0.17507816760E+02  0.51100000000E-03 0.  1.
        -11    1    4    4    0    0  0.11124646715E+02 -0.11142413588E+02 -0.95309894026E+01  0.18405186887E+02  0.51100000000E-03 0. -1.
         12    1    4    4    0    0 -0.10266592070E+02 -0.13349546425E+01 -0.15276384039E+02  0.18454076133E+02  0.00000000000E+00 0. -1.
</event>
<event>
 8    1  0.1244838E-006  0.9118800E+02  0.7816164E-02  0.1184000E+00
        -11   -1    0    0    0    0  0.00000000000E+00  0.00000000000E+00  0.45593999997E+02  0.45594000000E+02  0.51100000000E-03 0.  1.
         11   -1    0    0    0    0 -0.00000000000E+00 -0.00000000000E+00 -0.45593999997E+02  0.45594000000E+02  0.51100000000E-03 0. -1.
         23    2    1    2    0    0  0.00000000000E+00 -0.35527136788E-14  0.00000000000E+00  0.91188000000E+02  0.91188000000E+02 0.  0.
    9900012    2    3    3    0    0  0.24120011961E+02 -0.19735793850E+02 -0.19608766650E+02  0.54367078428E+02  0.39999986893E+02 0.  0.
         12    1    3    3    0    0 -0.24120011961E+02  0.19735793850E+02  0.19608766650E+02  0.36820921572E+02  0.00000000000E+00 0. -1.
         11    1    4    4    0    0  0.50012079501E+01  0.50627677633E+01  0.35518847597E+01  0.79535893779E+01  0.51100000000E-03 0.  1.
        -11    1    4    4    0    0  0.91206666640E+01  0.33308067132E+01 -0.22555679134E+01  0.99683710118E+01  0.51100000000E-03 0. -1.
        -12    1    4    4    0    0  0.99981373464E+01 -0.28129368326E+02 -0.20905083497E+02  0.36445118038E+02  0.00000000000E+00 0.  1.
</event>
<event>
 8    1  0.1244838E-006  0.9118800E+02  0.7816164E-02  0.1184000E+00
        -11   -1    0    0    0    0  0.00000000000E+00  0.00000000000E+00  0.45593999997E+02  0.45594000000E+02  0.51100000000E-03 0. -1.
         11   -1    0    0    0    0 -0.00000000000E+00 -0.00000000000E+00 -0.45593999997E+02  0.45594000000E+02  0.51100000000E-03 0.  1.
         23    2    1    2    0    0  0.88817841970E-15 -0.35527136788E-14  0.35527136788E-14  0.91188000000E+02  0.91188000000E+02 0.  0.
    9900012    2    3    3    0    0 -0.72312048372E+01  0.30005403349E+02 -0.20078983773E+02  0.54367080092E+02  0.39999990686E+02 0.  0.
         12    1    3    3    0    0  0.72312048372E+01 -0.30005403349E+02  0.20078983773E+02  0.36820919908E+02  0.00000000000E+00 0. -1.
         11    1    4    4    0    0 -0.68331955001E+01  0.12046774563E+02 -0.33760468886E+01  0.14255350959E+02  0.51100000000E-03 0. -1.
        -11    1    4    4    0    0 -0.30475453023E+01  0.25860801766E+02 -0.18029552698E+02  0.31672280800E+02  0.51100000000E-03 0.  1.
         12    1    4    4    0    0  0.26495359652E+01 -0.79021729804E+01  0.13266158137E+01  0.84394483327E+01  0.00000000000E+00 0. -1.
</event>
<event>
 8    1  0.1244838E-006  0.9118800E+02  0.7816164E-02  0.1184000E+00
        -11   -1    0    0    0    0  0.00000000000E+00  0.00000000000E+00  0.45593999997E+02  0.45594000000E+02  0.51100000000E-03 0. -1.
         11   -1    0    0    0    0 -0.00000000000E+00 -0.00000000000E+00 -0.45593999997E+02  0.45594000000E+02  0.51100000000E-03 0.  1.
         23    2    1    2    0    0  0.00000000000E+00  0.00000000000E+00 -0.13322676296E-14  0.91188000000E+02  0.91188000000E+02 0.  0.
    9900012    2    3    3    0    0  0.30139192918E+02  0.20963817308E+02  0.28159841828E+01  0.54367050083E+02  0.39999922274E+02 0.  0.
        -12    1    3    3    0    0 -0.30139192918E+02 -0.20963817308E+02 -0.28159841828E+01  0.36820949917E+02  0.00000000000E+00 0.  1.
         11    1    4    4    0    0  0.72752978908E+01 -0.20551065503E+01  0.16282025093E+02  0.17951539313E+02  0.51100000000E-03 0. -1.
        -11    1    4    4    0    0  0.13881041659E+02  0.81252759757E+01 -0.91117212035E+01  0.18485856506E+02  0.51100000000E-03 0.  1.
         12    1    4    4    0    0  0.89828533684E+01  0.14893647883E+02 -0.43543197067E+01  0.17929654263E+02  0.00000000000E+00 0. -1.
</event>
<event>
 8    1  0.1244838E-006  0.9118800E+02  0.7816164E-02  0.1184000E+00
        -11   -1    0    0    0    0  0.00000000000E+00  0.00000000000E+00  0.45593999997E+02  0.45594000000E+02  0.51100000000E-03 0.  1.
         11   -1    0    0    0    0 -0.00000000000E+00 -0.00000000000E+00 -0.45593999997E+02  0.45594000000E+02  0.51100000000E-03 0. -1.
         23    2    1    2    0    0  0.35527136788E-14 -0.35527136788E-14 -0.35527136788E-14  0.91188000000E+02  0.91188000000E+02 0.  0.
    9900012    2    3    3    0    0 -0.96437667105E+01 -0.23219093118E+02  0.26900757424E+02  0.54367091924E+02  0.40000017659E+02 0.  0.
         12    1    3    3    0    0  0.96437667105E+01  0.23219093118E+02 -0.26900757424E+02  0.36820908076E+02  0.00000000000E+00 0. -1.
         11    1    4    4    0    0  0.10805971891E+02  0.25965980106E+01  0.81280568629E+01  0.13768683974E+02  0.51100000000E-03 0. -1.
        -11    1    4    4    0    0 -0.72137293711E+01 -0.14785015931E+02  0.16359117335E+02  0.23200329906E+02  0.51100000000E-03 0.  1.
         12    1    4    4    0    0 -0.13236009230E+02 -0.11030675197E+02  0.24135832264E+01  0.17398078044E+02  0.00000000000E+00 0. -1.
</event>
<event>
 8    1  0.1244838E-006  0.9118800E+02  0.7816164E-02  0.1184000E+00
        -11   -1    0    0    0    0  0.00000000000E+00  0.00000000000E+00  0.45593999997E+02  0.45594000000E+02  0.51100000000E-03 0.  1.
         11   -1    0    0    0    0 -0.00000000000E+00 -0.00000000000E+00 -0.45593999997E+02  0.45594000000E+02  0.51100000000E-03 0. -1.
         23    2    1    2    0    0  0.00000000000E+00  0.88817841970E-15  0.00000000000E+00  0.91188000000E+02  0.91188000000E+02 0.  0.
    9900012    2    3    3    0    0  0.21034205089E+01 -0.61764673269E+01 -0.36238217110E+02  0.54367061585E+02  0.39999948495E+02 0.  0.
        -12    1    3    3    0    0 -0.21034205089E+01  0.61764673269E+01  0.36238217110E+02  0.36820938415E+02  0.00000000000E+00 0.  1.
         11    1    4    4    0    0 -0.27981109245E+00 -0.13113854652E+02 -0.29126840790E+02  0.31944081341E+02  0.51100000000E-03 0. -1.
        -11    1    4    4    0    0  0.65371869994E+01  0.11817345642E+02 -0.95861316107E+00  0.13538959020E+02  0.51100000000E-03 0.  1.
         12    1    4    4    0    0 -0.41539553980E+01 -0.48799583171E+01 -0.61527631588E+01  0.88840212243E+01  0.00000000000E+00 0. -1.
</event>
<event>
 8    1  0.1244838E-006  0.9118800E+02  0.7816164E-02  0.1184000E+00
        -11   -1    0    0    0    0  0.00000000000E+00  0.00000000000E+00  0.45593999997E+02  0.45594000000E+02  0.51100000000E-03 0.  1.
         11   -1    0    0    0    0 -0.00000000000E+00 -0.00000000000E+00 -0.45593999997E+02  0.45594000000E+02  0.51100000000E-03 0. -1.
         23    2    1    2    0    0  0.35527136788E-14  0.00000000000E+00 -0.35527136788E-14  0.91188000000E+02  0.91188000000E+02 0.  0.
    9900012    2    3    3    0    0  0.27814298244E+02 -0.17625861518E+02  0.16476413567E+02  0.54367103961E+02  0.40000045100E+02 0.  0.
         12    1    3    3    0    0 -0.27814298244E+02  0.17625861518E+02 -0.16476413567E+02  0.36820896039E+02  0.00000000000E+00 0. -1.
         11    1    4    4    0    0  0.12724166382E+01 -0.85567413115E+01  0.12836927253E+02  0.15479779312E+02  0.51100000000E-03 0.  1.
        -11    1    4    4    0    0  0.51170297306E+01  0.87688222591E+01  0.42395294397E+01  0.11002265549E+02  0.51100000000E-03 0. -1.
         12    1    4    4    0    0  0.21424851875E+02 -0.17837942466E+02 -0.60004312599E+00  0.27885059101E+02  0.00000000000E+00 0. -1.
</event>
<event>
 8    1  0.1244838E-006  0.9118800E+02  0.7816164E-02  0.1184000E+00
        -11   -1    0    0    0    0  0.00000000000E+00  0.00000000000E+00  0.45593999997E+02  0.45594000000E+02  0.51100000000E-03 0.  1.
         11   -1    0    0    0    0 -0.00000000000E+00 -0.00000000000E+00 -0.45593999997E+02  0.45594000000E+02  0.51100000000E-03 0. -1.
         23    2    1    2    0    0  0.00000000000E+00 -0.17763568394E-14  0.00000000000E+00  0.91188000000E+02  0.91188000000E+02 0.  0.
    9900012    2    3    3    0    0 -0.35168675690E+02  0.67613296378E+01  0.85573792136E+01  0.54367081119E+02  0.39999993026E+02 0.  0.
        -12    1    3    3    0    0  0.35168675690E+02 -0.67613296378E+01 -0.85573792136E+01  0.36820918881E+02  0.00000000000E+00 0.  1.
         11    1    4    4    0    0 -0.20405481746E+02  0.16707048768E+02 -0.14403667797E+01  0.26411812140E+02  0.51100000000E-03 0. -1.
        -11    1    4    4    0    0 -0.17817251894E+02 -0.25486785463E+01  0.57481138709E+01  0.18894206539E+02  0.51100000000E-03 0.  1.
        -12    1    4    4    0    0  0.30540579495E+01 -0.73970405840E+01  0.42496321224E+01  0.90610624397E+01  0.00000000000E+00 0.  1.
</event>
<event>
 8    1  0.1244838E-006  0.9118800E+02  0.7816164E-02  0.1184000E+00
        -11   -1    0    0    0    0  0.00000000000E+00  0.00000000000E+00  0.45593999997E+02  0.45594000000E+02  0.51100000000E-03 0. -1.
         11   -1    0    0    0    0 -0.00000000000E+00 -0.00000000000E+00 -0.45593999997E+02  0.45594000000E+02  0.51100000000E-03 0.  1.
         23    2    1    2    0    0 -0.35527136788E-14  0.00000000000E+00 -0.35527136788E-14  0.91188000000E+02  0.91188000000E+02 0.  0.
    9900012    2    3    3    0    0  0.17955239639E+02  0.43256853891E+01  0.31854005019E+02  0.54367084472E+02  0.40000000670E+02 0.  0.
        -12    1    3    3    0    0 -0.17955239639E+02 -0.43256853891E+01 -0.31854005019E+02  0.36820915528E+02  0.00000000000E+00 0.  1.
         11    1    4    4    0    0  0.19986037475E+02 -0.11766574812E+02  0.18273869511E+02  0.29526738458E+02  0.51100000000E-03 0.  1.
        -11    1    4    4    0    0  0.50443992921E+00  0.15544081858E+02  0.15228966687E+02  0.21766818027E+02  0.51100000000E-03 0. -1.
        -12    1    4    4    0    0 -0.25352377662E+01  0.54817834362E+00 -0.16488311786E+01  0.30735279864E+01  0.00000000000E+00 0.  1.
</event>
<event>
 8    1  0.1244838E-006  0.9118800E+02  0.7816164E-02  0.1184000E+00
        -11   -1    0    0    0    0  0.00000000000E+00  0.00000000000E+00  0.45593999997E+02  0.45594000000E+02  0.51100000000E-03 0.  1.
         11   -1    0    0    0    0 -0.00000000000E+00 -0.00000000000E+00 -0.45593999997E+02  0.45594000000E+02  0.51100000000E-03 0. -1.
         23    2    1    2    0    0  0.00000000000E+00  0.00000000000E+00  0.00000000000E+00  0.91188000000E+02  0.91188000000E+02 0.  0.
    9900012    2    3    3    0    0 -0.21973318320E+02 -0.68581882286E+01 -0.28738794906E+02  0.54367084797E+02  0.40000001411E+02 0.  0.
        -12    1    3    3    0    0  0.21973318320E+02  0.68581882286E+01  0.28738794906E+02  0.36820915203E+02  0.00000000000E+00 0.  1.
         11    1    4    4    0    0  0.14993632260E+01 -0.12989322866E+01 -0.23875852066E+02  0.23958122366E+02  0.51100000000E-03 0. -1.
        -11    1    4    4    0    0  0.21700043013E+01  0.23188323023E+01 -0.20925534836E+00  0.31827173886E+01  0.51100000000E-03 0.  1.
        -12    1    4    4    0    0 -0.25642685847E+02 -0.78780882443E+01 -0.46536874920E+01  0.27226245042E+02  0.00000000000E+00 0.  1.
</event>
<event>
 8    1  0.1244838E-006  0.9118800E+02  0.7816164E-02  0.1184000E+00
        -11   -1    0    0    0    0  0.00000000000E+00  0.00000000000E+00  0.45593999997E+02  0.45594000000E+02  0.51100000000E-03 0.  1.
         11   -1    0    0    0    0 -0.00000000000E+00 -0.00000000000E+00 -0.45593999997E+02  0.45594000000E+02  0.51100000000E-03 0. -1.
         23    2    1    2    0    0  0.00000000000E+00  0.00000000000E+00  0.00000000000E+00  0.91188000000E+02  0.91188000000E+02 0.  0.
    9900012    2    3    3    0    0  0.24285525205E+02 -0.26998249636E+02 -0.60900477028E+01  0.54367069825E+02  0.39999967281E+02 0.  0.
        -12    1    3    3    0    0 -0.24285525205E+02  0.26998249636E+02  0.60900477028E+01  0.36820930175E+02  0.00000000000E+00 0.  1.
         11    1    4    4    0    0  0.19110741882E+02 -0.23344124108E+02 -0.28800390477E+00  0.30170375075E+02  0.51100000000E-03 0. -1.
        -11    1    4    4    0    0  0.32969306560E+01 -0.12967810978E+02 -0.60677207762E+01  0.14691872209E+02  0.51100000000E-03 0.  1.
         12    1    4    4    0    0  0.18778526676E+01  0.93136854499E+01  0.26567697818E+00  0.95048225421E+01  0.00000000000E+00 0. -1.
</event>
<event>
 8    1  0.1244838E-006  0.9118800E+02  0.7816164E-02  0.1184000E+00
        -11   -1    0    0    0    0  0.00000000000E+00  0.00000000000E+00  0.45593999997E+02  0.45594000000E+02  0.51100000000E-03 0. -1.
         11   -1    0    0    0    0 -0.00000000000E+00 -0.00000000000E+00 -0.45593999997E+02  0.45594000000E+02  0.51100000000E-03 0.  1.
         23    2    1    2    0    0 -0.22204460493E-15  0.00000000000E+00 -0.35527136788E-14  0.91188000000E+02  0.91188000000E+02 0.  0.
    9900012    2    3    3    0    0  0.14695465964E+01  0.25439241102E+02  0.26579446225E+02  0.54367061437E+02  0.39999948157E+02 0.  0.
        -12    1    3    3    0    0 -0.14695465964E+01 -0.25439241102E+02 -0.26579446225E+02  0.36820938563E+02  0.00000000000E+00 0.  1.
         11    1    4    4    0    0  0.41108329515E+01  0.26615623761E+02  0.17192861712E+02  0.31951289017E+02  0.51100000000E-03 0. -1.
        -11    1    4    4    0    0 -0.49611032941E+00  0.75208014594E+01 -0.21236060788E+01  0.78305991527E+01  0.51100000000E-03 0.  1.
         12    1    4    4    0    0 -0.21451760257E+01 -0.86971841181E+01  0.11510190592E+02  0.14585173267E+02  0.00000000000E+00 0. -1.
</event>
<event>
 8    1  0.1244838E-006  0.9118800E+02  0.7816164E-02  0.1184000E+00
        -11   -1    0    0    0    0  0.00000000000E+00  0.00000000000E+00  0.45593999997E+02  0.45594000000E+02  0.51100000000E-03 0. -1.
         11   -1    0    0    0    0 -0.00000000000E+00 -0.00000000000E+00 -0.45593999997E+02  0.45594000000E+02  0.51100000000E-03 0.  1.
         23    2    1    2    0    0  0.00000000000E+00  0.35527136788E-14  0.00000000000E+00  0.91188000000E+02  0.91188000000E+02 0.  0.
    9900012    2    3    3    0    0  0.27094004721E+02  0.22223429060E+02 -0.11305319424E+02  0.54367134472E+02  0.40000114655E+02 0.  0.
         12    1    3    3    0    0 -0.27094004721E+02 -0.22223429060E+02  0.11305319424E+02  0.36820865528E+02  0.00000000000E+00 0. -1.
         11    1    4    4    0    0  0.18820971612E+01 -0.37241262400E+01 -0.48334781309E+01  0.63854457228E+01  0.51100000000E-03 0.  1.
        -11    1    4    4    0    0  0.10196758186E+02 -0.62872586131E+01 -0.13753106805E+01  0.12057983998E+02  0.51100000000E-03 0. -1.
        -12    1    4    4    0    0  0.15015149373E+02  0.32234813913E+02 -0.50965306123E+01  0.35923704750E+02  0.00000000000E+00 0.  1.
</event>
<event>
 8    1  0.1244838E-006  0.9118800E+02  0.7816164E-02  0.1184000E+00
        -11   -1    0    0    0    0  0.00000000000E+00  0.00000000000E+00  0.45593999997E+02  0.45594000000E+02  0.51100000000E-03 0. -1.
         11   -1    0    0    0    0 -0.00000000000E+00 -0.00000000000E+00 -0.45593999997E+02  0.45594000000E+02  0.51100000000E-03 0.  1.
         23    2    1    2    0    0  0.00000000000E+00 -0.35527136788E-14  0.00000000000E+00  0.91188000000E+02  0.91188000000E+02 0.  0.
    9900012    2    3    3    0    0 -0.16550496551E+02  0.27692208044E+01  0.32774839661E+02  0.54367114150E+02  0.40000068327E+02 0.  0.
        -12    1    3    3    0    0  0.16550496551E+02 -0.27692208044E+01 -0.32774839661E+02  0.36820885850E+02  0.00000000000E+00 0.  1.
         11    1    4    4    0    0 -0.42712459177E+01  0.17586772509E+02  0.24700111573E+02  0.30620803728E+02  0.51100000000E-03 0. -1.
        -11    1    4    4    0    0 -0.50728726619E+01 -0.91705623576E+01  0.98932153068E+01  0.14412111586E+02  0.51100000000E-03 0.  1.
         12    1    4    4    0    0 -0.72063779717E+01 -0.56469893466E+01 -0.18184872182E+01  0.93341988362E+01  0.00000000000E+00 0. -1.
</event>
<event>
 8    1  0.1244838E-006  0.9118800E+02  0.7816164E-02  0.1184000E+00
        -11   -1    0    0    0    0  0.00000000000E+00  0.00000000000E+00  0.45593999997E+02  0.45594000000E+02  0.51100000000E-03 0. -1.
         11   -1    0    0    0    0 -0.00000000000E+00 -0.00000000000E+00 -0.45593999997E+02  0.45594000000E+02  0.51100000000E-03 0.  1.
         23    2    1    2    0    0  0.35527136788E-14  0.00000000000E+00 -0.66613381478E-15  0.91188000000E+02  0.91188000000E+02 0.  0.
    9900012    2    3    3    0    0 -0.31967008157E+02 -0.18261760753E+02  0.62967725946E+00  0.54367109058E+02  0.40000056719E+02 0.  0.
         12    1    3    3    0    0  0.31967008157E+02  0.18261760753E+02 -0.62967725946E+00  0.36820890942E+02  0.00000000000E+00 0. -1.
         11    1    4    4    0    0 -0.19723374429E+02 -0.81446645980E+01  0.11287766253E+02  0.24140437600E+02  0.51100000000E-03 0. -1.
        -11    1    4    4    0    0 -0.62732176165E+01 -0.17600462587E+02 -0.64186097869E+01  0.19756722764E+02  0.51100000000E-03 0.  1.
         12    1    4    4    0    0 -0.59704161113E+01  0.74833664313E+01 -0.42394792065E+01  0.10469948693E+02  0.00000000000E+00 0. -1.
</event>
<event>
 8    1  0.1244838E-006  0.9118800E+02  0.7816164E-02  0.1184000E+00
        -11   -1    0    0    0    0  0.00000000000E+00  0.00000000000E+00  0.45593999997E+02  0.45594000000E+02  0.51100000000E-03 0.  1.
         11   -1    0    0    0    0 -0.00000000000E+00 -0.00000000000E+00 -0.45593999997E+02  0.45594000000E+02  0.51100000000E-03 0. -1.
         23    2    1    2    0    0 -0.17763568394E-14  0.00000000000E+00  0.00000000000E+00  0.91188000000E+02  0.91188000000E+02 0.  0.
    9900012    2    3    3    0    0  0.99129065540E+01  0.16104255268E+02  0.31593788706E+02  0.54367078788E+02  0.39999987714E+02 0.  0.
         12    1    3    3    0    0 -0.99129065540E+01 -0.16104255268E+02 -0.31593788706E+02  0.36820921212E+02  0.00000000000E+00 0. -1.
         11    1    4    4    0    0 -0.84528402148E+01  0.19097946988E+01 -0.34163426976E+01  0.93149997948E+01  0.51100000000E-03 0. -1.
        -11    1    4    4    0    0  0.19412421664E+00  0.60635573581E+01  0.17928675762E+01  0.63260403456E+01  0.51100000000E-03 0.  1.
        -12    1    4    4    0    0  0.18171622552E+02  0.81309032108E+01  0.33217263827E+02  0.38726038648E+02  0.00000000000E+00 0.  1.
</event>
<event>
 8    1  0.1244838E-006  0.9118800E+02  0.7816164E-02  0.1184000E+00
        -11   -1    0    0    0    0  0.00000000000E+00  0.00000000000E+00  0.45593999997E+02  0.45594000000E+02  0.51100000000E-03 0. -1.
         11   -1    0    0    0    0 -0.00000000000E+00 -0.00000000000E+00 -0.45593999997E+02  0.45594000000E+02  0.51100000000E-03 0.  1.
         23    2    1    2    0    0  0.17763568394E-14  0.00000000000E+00 -0.35527136788E-14  0.91188000000E+02  0.91188000000E+02 0.  0.
    9900012    2    3    3    0    0 -0.13652501069E+02  0.29259681493E+02  0.17699014234E+02  0.54367151946E+02  0.40000154492E+02 0.  0.
        -12    1    3    3    0    0  0.13652501069E+02 -0.29259681493E+02 -0.17699014234E+02  0.36820848054E+02  0.00000000000E+00 0.  1.
         11    1    4    4    0    0 -0.18624590599E+02  0.30979856419E+02  0.19058651861E+02  0.40863909379E+02  0.51100000000E-03 0. -1.
        -11    1    4    4    0    0 -0.39896691222E+01 -0.34210661871E+00  0.10138058003E+01  0.41306535929E+01  0.51100000000E-03 0.  1.
        -12    1    4    4    0    0  0.89617586516E+01 -0.13780683068E+01 -0.23734434270E+01  0.93725889747E+01  0.00000000000E+00 0.  1.
</event>
<event>
 8    1  0.1244838E-006  0.9118800E+02  0.7816164E-02  0.1184000E+00
        -11   -1    0    0    0    0  0.00000000000E+00  0.00000000000E+00  0.45593999997E+02  0.45594000000E+02  0.51100000000E-03 0. -1.
         11   -1    0    0    0    0 -0.00000000000E+00 -0.00000000000E+00 -0.45593999997E+02  0.45594000000E+02  0.51100000000E-03 0.  1.
         23    2    1    2    0    0 -0.88817841970E-15 -0.17763568394E-14  0.71054273576E-14  0.91188000000E+02  0.91188000000E+02 0.  0.
    9900012    2    3    3    0    0 -0.66827208290E+01  0.85073332481E+01  0.35195644950E+02  0.54367259919E+02  0.40000400635E+02 0.  0.
        -12    1    3    3    0    0  0.66827208290E+01 -0.85073332481E+01 -0.35195644950E+02  0.36820740081E+02  0.00000000000E+00 0.  1.
         11    1    4    4    0    0 -0.71122855985E+01 -0.86036375403E+01  0.22871645500E+02  0.25450331108E+02  0.51100000000E-03 0. -1.
        -11    1    4    4    0    0  0.85930334028E+01  0.75025580949E+01  0.17605813683E+00  0.11408750929E+02  0.51100000000E-03 0.  1.
         12    1    4    4    0    0 -0.81634686333E+01  0.96084126935E+01  0.12147941313E+02  0.17508177882E+02  0.00000000000E+00 0. -1.
</event>
<event>
 8    1  0.1244838E-006  0.9118800E+02  0.7816164E-02  0.1184000E+00
        -11   -1    0    0    0    0  0.00000000000E+00  0.00000000000E+00  0.45593999997E+02  0.45594000000E+02  0.51100000000E-03 0.  1.
         11   -1    0    0    0    0 -0.00000000000E+00 -0.00000000000E+00 -0.45593999997E+02  0.45594000000E+02  0.51100000000E-03 0. -1.
         23    2    1    2    0    0  0.35527136788E-14  0.35527136788E-14  0.00000000000E+00  0.91188000000E+02  0.91188000000E+02 0.  0.
    9900012    2    3    3    0    0  0.24025542042E+02  0.18311281177E+02  0.21053464105E+02  0.54367108653E+02  0.40000055797E+02 0.  0.
         12    1    3    3    0    0 -0.24025542042E+02 -0.18311281177E+02 -0.21053464105E+02  0.36820891347E+02  0.00000000000E+00 0. -1.
         11    1    4    4    0    0  0.19740514839E+01  0.13306369492E+02  0.11305911947E+01  0.13499429063E+02  0.51100000000E-03 0. -1.
        -11    1    4    4    0    0 -0.51853480952E+01  0.48590615538E+01 -0.26223915921E-01  0.71062649829E+01  0.51100000000E-03 0.  1.
        -12    1    4    4    0    0  0.27236838653E+02  0.14585013118E+00  0.19949096826E+02  0.33761414607E+02  0.00000000000E+00 0.  1.
</event>
<event>
 8    1  0.1244838E-006  0.9118800E+02  0.7816164E-02  0.1184000E+00
        -11   -1    0    0    0    0  0.00000000000E+00  0.00000000000E+00  0.45593999997E+02  0.45594000000E+02  0.51100000000E-03 0. -1.
         11   -1    0    0    0    0 -0.00000000000E+00 -0.00000000000E+00 -0.45593999997E+02  0.45594000000E+02  0.51100000000E-03 0.  1.
         23    2    1    2    0    0 -0.44408920985E-15 -0.17763568394E-14  0.00000000000E+00  0.91188000000E+02  0.91188000000E+02 0.  0.
    9900012    2    3    3    0    0 -0.17192089736E+01 -0.10528575782E+02  0.35241650717E+02  0.54367074798E+02  0.39999978617E+02 0.  0.
        -12    1    3    3    0    0  0.17192089736E+01  0.10528575782E+02 -0.35241650717E+02  0.36820925202E+02  0.00000000000E+00 0.  1.
         11    1    4    4    0    0  0.24670300014E+01 -0.17819814480E+02  0.14540473748E+02  0.23131307836E+02  0.51100000000E-03 0. -1.
        -11    1    4    4    0    0 -0.48338241351E+01  0.10893299933E+02  0.23684629779E+02  0.26513987388E+02  0.51100000000E-03 0.  1.
        -12    1    4    4    0    0  0.64758516014E+00 -0.36020612349E+01 -0.29834528099E+01  0.47217795743E+01  0.00000000000E+00 0.  1.
</event>
<event>
 8    1  0.1244838E-006  0.9118800E+02  0.7816164E-02  0.1184000E+00
        -11   -1    0    0    0    0  0.00000000000E+00  0.00000000000E+00  0.45593999997E+02  0.45594000000E+02  0.51100000000E-03 0.  1.
         11   -1    0    0    0    0 -0.00000000000E+00 -0.00000000000E+00 -0.45593999997E+02  0.45594000000E+02  0.51100000000E-03 0. -1.
         23    2    1    2    0    0  0.00000000000E+00  0.00000000000E+00  0.00000000000E+00  0.91188000000E+02  0.91188000000E+02 0.  0.
    9900012    2    3    3    0    0 -0.32816129576E+02 -0.11433464107E+02  0.12172039796E+02  0.54367068255E+02  0.39999963700E+02 0.  0.
         12    1    3    3    0    0  0.32816129576E+02  0.11433464107E+02 -0.12172039796E+02  0.36820931745E+02  0.00000000000E+00 0. -1.
         11    1    4    4    0    0 -0.12296457861E+00 -0.30114533508E+01  0.71784223777E+00  0.30982687603E+01  0.51100000000E-03 0. -1.
        -11    1    4    4    0    0 -0.59692002826E+01 -0.19636420116E+02  0.13185855206E+01  0.20565967398E+02  0.51100000000E-03 0.  1.
        -12    1    4    4    0    0 -0.26723964714E+02  0.11214409360E+02  0.10135612037E+02  0.30702832096E+02  0.00000000000E+00 0.  1.
</event>
<event>
 8    1  0.1244838E-006  0.9118800E+02  0.7816164E-02  0.1184000E+00
        -11   -1    0    0    0    0  0.00000000000E+00  0.00000000000E+00  0.45593999997E+02  0.45594000000E+02  0.51100000000E-03 0. -1.
         11   -1    0    0    0    0 -0.00000000000E+00 -0.00000000000E+00 -0.45593999997E+02  0.45594000000E+02  0.51100000000E-03 0.  1.
         23    2    1    2    0    0  0.00000000000E+00  0.00000000000E+00  0.00000000000E+00  0.91188000000E+02  0.91188000000E+02 0.  0.
    9900012    2    3    3    0    0  0.28170489303E+02 -0.23491558806E+02 -0.32173625628E+01  0.54367065403E+02  0.39999957200E+02 0.  0.
         12    1    3    3    0    0 -0.28170489303E+02  0.23491558806E+02  0.32173625628E+01  0.36820934597E+02  0.00000000000E+00 0. -1.
         11    1    4    4    0    0  0.23188786702E+01 -0.10138989691E+02  0.31325678318E+01  0.10862287592E+02  0.51100000000E-03 0. -1.
        -11    1    4    4    0    0  0.15990169767E+02 -0.23383997207E+02 -0.67530157779E+00  0.28336423328E+02  0.51100000000E-03 0.  1.
        -12    1    4    4    0    0  0.98614408662E+01  0.10031428092E+02 -0.56746288169E+01  0.15168354483E+02  0.00000000000E+00 0.  1.
</event>
<event>
 8    1  0.1244838E-006  0.9118800E+02  0.7816164E-02  0.1184000E+00
        -11   -1    0    0    0    0  0.00000000000E+00  0.00000000000E+00  0.45593999997E+02  0.45594000000E+02  0.51100000000E-03 0.  1.
         11   -1    0    0    0    0 -0.00000000000E+00 -0.00000000000E+00 -0.45593999997E+02  0.45594000000E+02  0.51100000000E-03 0. -1.
         23    2    1    2    0    0  0.00000000000E+00  0.00000000000E+00  0.00000000000E+00  0.91188000000E+02  0.91188000000E+02 0.  0.
    9900012    2    3    3    0    0  0.30395025754E+02 -0.89898603709E+01  0.18737696902E+02  0.54367130031E+02  0.40000104532E+02 0.  0.
         12    1    3    3    0    0 -0.30395025754E+02  0.89898603709E+01 -0.18737696902E+02  0.36820869969E+02  0.00000000000E+00 0. -1.
         11    1    4    4    0    0 -0.34553098215E+00  0.10728780095E+02  0.99497440668E+01  0.14636376643E+02  0.51100000000E-03 0. -1.
        -11    1    4    4    0    0  0.39137608643E+01 -0.78563033434E+01 -0.93974805994E+00  0.88273525479E+01  0.51100000000E-03 0.  1.
        -12    1    4    4    0    0  0.26826795872E+02 -0.11862337123E+02  0.97277008954E+01  0.30903400840E+02  0.00000000000E+00 0.  1.
</event>
<event>
 8    1  0.1244838E-006  0.9118800E+02  0.7816164E-02  0.1184000E+00
        -11   -1    0    0    0    0  0.00000000000E+00  0.00000000000E+00  0.45593999997E+02  0.45594000000E+02  0.51100000000E-03 0.  1.
         11   -1    0    0    0    0 -0.00000000000E+00 -0.00000000000E+00 -0.45593999997E+02  0.45594000000E+02  0.51100000000E-03 0. -1.
         23    2    1    2    0    0  0.00000000000E+00  0.17763568394E-14  0.00000000000E+00  0.91188000000E+02  0.91188000000E+02 0.  0.
    9900012    2    3    3    0    0 -0.30292608712E+02  0.11425122967E+02  0.17538673562E+02  0.54367073236E+02  0.39999975057E+02 0.  0.
         12    1    3    3    0    0  0.30292608712E+02 -0.11425122967E+02 -0.17538673562E+02  0.36820926764E+02  0.00000000000E+00 0. -1.
         11    1    4    4    0    0  0.57399669451E+01  0.10836148891E+02  0.13822100732E+01  0.12340172133E+02  0.51100000000E-03 0. -1.
        -11    1    4    4    0    0 -0.16789533364E+02 -0.67592552532E+01  0.60553557047E+01  0.19085159028E+02  0.51100000000E-03 0.  1.
         12    1    4    4    0    0 -0.19243042293E+02  0.73482293291E+01  0.10101107784E+02  0.22941742075E+02  0.00000000000E+00 0. -1.
</event>
<event>
 8    1  0.1244838E-006  0.9118800E+02  0.7816164E-02  0.1184000E+00
        -11   -1    0    0    0    0  0.00000000000E+00  0.00000000000E+00  0.45593999997E+02  0.45594000000E+02  0.51100000000E-03 0. -1.
         11   -1    0    0    0    0 -0.00000000000E+00 -0.00000000000E+00 -0.45593999997E+02  0.45594000000E+02  0.51100000000E-03 0.  1.
         23    2    1    2    0    0  0.00000000000E+00 -0.35527136788E-14 -0.17763568394E-14  0.91188000000E+02  0.91188000000E+02 0.  0.
    9900012    2    3    3    0    0  0.25067482849E+02 -0.23786989152E+02 -0.12711294494E+02  0.54367128785E+02  0.40000101691E+02 0.  0.
         12    1    3    3    0    0 -0.25067482849E+02  0.23786989152E+02  0.12711294494E+02  0.36820871215E+02  0.00000000000E+00 0. -1.
         11    1    4    4    0    0 -0.37713964573E+01 -0.64421956979E+01  0.88809510675E+01  0.11601577857E+02  0.51100000000E-03 0. -1.
        -11    1    4    4    0    0  0.23270946246E+02 -0.15964705675E+02 -0.10194430448E+02  0.30005585795E+02  0.51100000000E-03 0.  1.
         12    1    4    4    0    0  0.55679330595E+01 -0.13800877796E+01 -0.11397815113E+02  0.12759965133E+02  0.00000000000E+00 0. -1.
</event>
<event>
 8    1  0.1244838E-006  0.9118800E+02  0.7816164E-02  0.1184000E+00
        -11   -1    0    0    0    0  0.00000000000E+00  0.00000000000E+00  0.45593999997E+02  0.45594000000E+02  0.51100000000E-03 0.  1.
         11   -1    0    0    0    0 -0.00000000000E+00 -0.00000000000E+00 -0.45593999997E+02  0.45594000000E+02  0.51100000000E-03 0. -1.
         23    2    1    2    0    0 -0.35527136788E-14  0.00000000000E+00 -0.35527136788E-14  0.91188000000E+02  0.91188000000E+02 0.  0.
    9900012    2    3    3    0    0  0.16244074338E+02  0.17135157602E+02  0.28254145840E+02  0.54367077493E+02  0.39999984760E+02 0.  0.
         12    1    3    3    0    0 -0.16244074338E+02 -0.17135157602E+02 -0.28254145840E+02  0.36820922507E+02  0.00000000000E+00 0. -1.
         11    1    4    4    0    0 -0.44828596596E+01  0.78319198426E+01  0.65263823384E+01  0.11136815785E+02  0.51100000000E-03 0. -1.
        -11    1    4    4    0    0  0.10006259722E+02  0.18908914405E+02  0.66932598794E+01  0.22415887349E+02  0.51100000000E-03 0.  1.
         12    1    4    4    0    0  0.10720674276E+02 -0.96056766452E+01  0.15034503622E+02  0.20814374358E+02  0.00000000000E+00 0. -1.
</event>
<event>
 8    1  0.1244838E-006  0.9118800E+02  0.7816164E-02  0.1184000E+00
        -11   -1    0    0    0    0  0.00000000000E+00  0.00000000000E+00  0.45593999997E+02  0.45594000000E+02  0.51100000000E-03 0. -1.
         11   -1    0    0    0    0 -0.00000000000E+00 -0.00000000000E+00 -0.45593999997E+02  0.45594000000E+02  0.51100000000E-03 0.  1.
         23    2    1    2    0    0  0.00000000000E+00  0.00000000000E+00 -0.17763568394E-14  0.91188000000E+02  0.91188000000E+02 0.  0.
    9900012    2    3    3    0    0  0.25367099281E+02 -0.24750624140E+02 -0.99848254529E+01  0.54367083926E+02  0.39999999425E+02 0.  0.
        -12    1    3    3    0    0 -0.25367099281E+02  0.24750624140E+02  0.99848254529E+01  0.36820916074E+02  0.00000000000E+00 0.  1.
         11    1    4    4    0    0  0.70895050429E+01 -0.80920805766E+00 -0.23551400364E+01  0.75141589208E+01  0.51100000000E-03 0. -1.
        -11    1    4    4    0    0 -0.41169804690E+01  0.58752915980E+01  0.34374724636E+01  0.79551742119E+01  0.51100000000E-03 0.  1.
         12    1    4    4    0    0  0.22394574707E+02 -0.29816707681E+02 -0.11067157880E+02  0.38897750793E+02  0.00000000000E+00 0. -1.
</event>
<event>
 8    1  0.1244838E-006  0.9118800E+02  0.7816164E-02  0.1184000E+00
        -11   -1    0    0    0    0  0.00000000000E+00  0.00000000000E+00  0.45593999997E+02  0.45594000000E+02  0.51100000000E-03 0.  1.
         11   -1    0    0    0    0 -0.00000000000E+00 -0.00000000000E+00 -0.45593999997E+02  0.45594000000E+02  0.51100000000E-03 0. -1.
         23    2    1    2    0    0  0.88817841970E-15  0.35527136788E-14  0.71054273576E-14  0.91188000000E+02  0.91188000000E+02 0.  0.
    9900012    2    3    3    0    0 -0.49593809413E+01 -0.23129591653E+02 -0.28217131234E+02  0.54367082515E+02  0.39999996210E+02 0.  0.
        -12    1    3    3    0    0  0.49593809413E+01  0.23129591653E+02  0.28217131234E+02  0.36820917485E+02  0.00000000000E+00 0.  1.
         11    1    4    4    0    0  0.29582039740E+01 -0.29440467384E+02 -0.26983563114E+02  0.40045034263E+02  0.51100000000E-03 0. -1.
        -11    1    4    4    0    0 -0.35705347343E+01 -0.27674492581E+00  0.35910759467E+01  0.50716006111E+01  0.51100000000E-03 0.  1.
         12    1    4    4    0    0 -0.43470501811E+01  0.65876206567E+01 -0.48246440664E+01  0.92504476411E+01  0.00000000000E+00 0. -1.
</event>
<event>
 8    1  0.1244838E-006  0.9118800E+02  0.7816164E-02  0.1184000E+00
        -11   -1    0    0    0    0  0.00000000000E+00  0.00000000000E+00  0.45593999997E+02  0.45594000000E+02  0.51100000000E-03 0.  1.
         11   -1    0    0    0    0 -0.00000000000E+00 -0.00000000000E+00 -0.45593999997E+02  0.45594000000E+02  0.51100000000E-03 0. -1.
         23    2    1    2    0    0 -0.35527136788E-14  0.00000000000E+00 -0.13322676296E-14  0.91188000000E+02  0.91188000000E+02 0.  0.
    9900012    2    3    3    0    0  0.29881708943E+02 -0.21184578400E+02  0.37518579751E+01  0.54367091136E+02  0.40000015862E+02 0.  0.
        -12    1    3    3    0    0 -0.29881708943E+02  0.21184578400E+02 -0.37518579751E+01  0.36820908864E+02  0.00000000000E+00 0.  1.
         11    1    4    4    0    0  0.22027922932E+02 -0.17734843397E+02  0.76848119453E+01  0.29305466963E+02  0.51100000000E-03 0. -1.
        -11    1    4    4    0    0  0.66894517964E+01  0.26269967637E+01 -0.12544781001E+02  0.14457572686E+02  0.51100000000E-03 0.  1.
        -12    1    4    4    0    0  0.11643342142E+01 -0.60767317666E+01  0.86118270312E+01  0.10604051487E+02  0.00000000000E+00 0.  1.
</event>
<event>
 8    1  0.1244838E-006  0.9118800E+02  0.7816164E-02  0.1184000E+00
        -11   -1    0    0    0    0  0.00000000000E+00  0.00000000000E+00  0.45593999997E+02  0.45594000000E+02  0.51100000000E-03 0. -1.
         11   -1    0    0    0    0 -0.00000000000E+00 -0.00000000000E+00 -0.45593999997E+02  0.45594000000E+02  0.51100000000E-03 0.  1.
         23    2    1    2    0    0  0.35527136788E-14  0.00000000000E+00  0.00000000000E+00  0.91188000000E+02  0.91188000000E+02 0.  0.
    9900012    2    3    3    0    0 -0.31357415000E+02 -0.11433462051E+02  0.15548955505E+02  0.54367061021E+02  0.39999947210E+02 0.  0.
        -12    1    3    3    0    0  0.31357415000E+02  0.11433462051E+02 -0.15548955505E+02  0.36820938979E+02  0.00000000000E+00 0.  1.
         11    1    4    4    0    0 -0.22941964970E+02 -0.20400211896E+02  0.11153429141E+02  0.32663456399E+02  0.51100000000E-03 0.  1.
        -11    1    4    4    0    0 -0.11647640459E+01  0.13025116740E+01  0.97268880888E+01  0.98825889370E+01  0.51100000000E-03 0. -1.
        -12    1    4    4    0    0 -0.72506859848E+01  0.76642381711E+01 -0.53313617244E+01  0.11821015685E+02  0.00000000000E+00 0.  1.
</event>
<event>
 8    1  0.1244838E-006  0.9118800E+02  0.7816164E-02  0.1184000E+00
        -11   -1    0    0    0    0  0.00000000000E+00  0.00000000000E+00  0.45593999997E+02  0.45594000000E+02  0.51100000000E-03 0. -1.
         11   -1    0    0    0    0 -0.00000000000E+00 -0.00000000000E+00 -0.45593999997E+02  0.45594000000E+02  0.51100000000E-03 0.  1.
         23    2    1    2    0    0  0.00000000000E+00  0.00000000000E+00  0.00000000000E+00  0.91188000000E+02  0.91188000000E+02 0.  0.
    9900012    2    3    3    0    0  0.64025264606E+01  0.20281521182E+02  0.30057408594E+02  0.54367078530E+02  0.39999987124E+02 0.  0.
        -12    1    3    3    0    0 -0.64025264606E+01 -0.20281521182E+02 -0.30057408594E+02  0.36820921470E+02  0.00000000000E+00 0.  1.
         11    1    4    4    0    0 -0.11858454532E+01  0.50144487414E+01  0.62587120031E+01  0.81069354147E+01  0.51100000000E-03 0. -1.
        -11    1    4    4    0    0  0.81691114216E+01  0.26821852854E+02  0.18000762164E+02  0.33319267859E+02  0.51100000000E-03 0.  1.
         12    1    4    4    0    0 -0.58073950780E+00 -0.11554780413E+02  0.57979344270E+01  0.12940875256E+02  0.00000000000E+00 0. -1.
</event>
<event>
 8    1  0.1244838E-006  0.9118800E+02  0.7816164E-02  0.1184000E+00
        -11   -1    0    0    0    0  0.00000000000E+00  0.00000000000E+00  0.45593999997E+02  0.45594000000E+02  0.51100000000E-03 0.  1.
         11   -1    0    0    0    0 -0.00000000000E+00 -0.00000000000E+00 -0.45593999997E+02  0.45594000000E+02  0.51100000000E-03 0. -1.
         23    2    1    2    0    0 -0.35527136788E-14  0.00000000000E+00  0.00000000000E+00  0.91188000000E+02  0.91188000000E+02 0.  0.
    9900012    2    3    3    0    0  0.30610334815E+02 -0.41143410999E+01 -0.20046421633E+02  0.54367089902E+02  0.40000013050E+02 0.  0.
        -12    1    3    3    0    0 -0.30610334815E+02  0.41143410999E+01  0.20046421633E+02  0.36820910098E+02  0.00000000000E+00 0.  1.
         11    1    4    4    0    0  0.18432338202E+02 -0.11603040911E+01 -0.22266226930E+02  0.28928917352E+02  0.51100000000E-03 0. -1.
        -11    1    4    4    0    0  0.17499888392E+02 -0.17883726323E+01 -0.30557352603E+01  0.17854464109E+02  0.51100000000E-03 0.  1.
         12    1    4    4    0    0 -0.53218917787E+01 -0.11656643765E+01  0.52755405580E+01  0.75837084413E+01  0.00000000000E+00 0. -1.
</event>
<event>
 8    1  0.1244838E-006  0.9118800E+02  0.7816164E-02  0.1184000E+00
        -11   -1    0    0    0    0  0.00000000000E+00  0.00000000000E+00  0.45593999997E+02  0.45594000000E+02  0.51100000000E-03 0. -1.
         11   -1    0    0    0    0 -0.00000000000E+00 -0.00000000000E+00 -0.45593999997E+02  0.45594000000E+02  0.51100000000E-03 0.  1.
         23    2    1    2    0    0  0.00000000000E+00 -0.88817841970E-15  0.53290705182E-14  0.91188000000E+02  0.91188000000E+02 0.  0.
    9900012    2    3    3    0    0  0.36212207518E+02  0.61126370962E+00 -0.66395281309E+01  0.54367069125E+02  0.39999965685E+02 0.  0.
         12    1    3    3    0    0 -0.36212207518E+02 -0.61126370962E+00  0.66395281309E+01  0.36820930875E+02  0.00000000000E+00 0. -1.
         11    1    4    4    0    0  0.19055097649E+01 -0.73023431470E+01  0.99299412263E+01  0.12472326003E+02  0.51100000000E-03 0. -1.
        -11    1    4    4    0    0  0.18452411876E+02 -0.17981908161E+01 -0.13766991261E+02  0.23092315667E+02  0.51100000000E-03 0.  1.
         12    1    4    4    0    0  0.15854285878E+02  0.97117976728E+01 -0.28024780961E+01  0.18802427455E+02  0.00000000000E+00 0. -1.
</event>
<event>
 8    1  0.1244838E-006  0.9118800E+02  0.7816164E-02  0.1184000E+00
        -11   -1    0    0    0    0  0.00000000000E+00  0.00000000000E+00  0.45593999997E+02  0.45594000000E+02  0.51100000000E-03 0.  1.
         11   -1    0    0    0    0 -0.00000000000E+00 -0.00000000000E+00 -0.45593999997E+02  0.45594000000E+02  0.51100000000E-03 0. -1.
         23    2    1    2    0    0 -0.35527136788E-14 -0.17763568394E-14 -0.35527136788E-14  0.91188000000E+02  0.91188000000E+02 0.  0.
    9900012    2    3    3    0    0 -0.21890870591E+02 -0.11632007034E+02  0.27226290013E+02  0.54367018607E+02  0.39999850517E+02 0.  0.
         12    1    3    3    0    0  0.21890870591E+02  0.11632007034E+02 -0.27226290013E+02  0.36820981393E+02  0.00000000000E+00 0. -1.
         11    1    4    4    0    0 -0.15985462389E+02 -0.96070015242E+00  0.54390923630E+01  0.16912766733E+02  0.51100000000E-03 0. -1.
        -11    1    4    4    0    0  0.24145220206E+01 -0.44500381963E+01 -0.59634673890E+01  0.78227680585E+01  0.51100000000E-03 0.  1.
        -12    1    4    4    0    0 -0.83199302231E+01 -0.62212686857E+01  0.27750665039E+02  0.29631483815E+02  0.00000000000E+00 0.  1.
</event>
<event>
 8    1  0.1244838E-006  0.9118800E+02  0.7816164E-02  0.1184000E+00
        -11   -1    0    0    0    0  0.00000000000E+00  0.00000000000E+00  0.45593999997E+02  0.45594000000E+02  0.51100000000E-03 0.  1.
         11   -1    0    0    0    0 -0.00000000000E+00 -0.00000000000E+00 -0.45593999997E+02  0.45594000000E+02  0.51100000000E-03 0. -1.
         23    2    1    2    0    0  0.17763568394E-14  0.00000000000E+00  0.35527136788E-14  0.91188000000E+02  0.91188000000E+02 0.  0.
    9900012    2    3    3    0    0  0.12888647180E+02  0.22668739269E+02 -0.25995973618E+02  0.54367087321E+02  0.40000007166E+02 0.  0.
        -12    1    3    3    0    0 -0.12888647180E+02 -0.22668739269E+02  0.25995973618E+02  0.36820912679E+02  0.00000000000E+00 0.  1.
         11    1    4    4    0    0 -0.70683230428E+01  0.43021814695E+01 -0.16019076548E+02  0.18029996388E+02  0.51100000000E-03 0. -1.
        -11    1    4    4    0    0  0.13839868022E+02  0.46809535226E+01  0.47104260529E+01  0.15350615187E+02  0.51100000000E-03 0.  1.
        -12    1    4    4    0    0  0.61171022002E+01  0.13685604277E+02 -0.14687323122E+02  0.20986475746E+02  0.00000000000E+00 0.  1.
</event>
<event>
 8    1  0.1244838E-006  0.9118800E+02  0.7816164E-02  0.1184000E+00
        -11   -1    0    0    0    0  0.00000000000E+00  0.00000000000E+00  0.45593999997E+02  0.45594000000E+02  0.51100000000E-03 0.  1.
         11   -1    0    0    0    0 -0.00000000000E+00 -0.00000000000E+00 -0.45593999997E+02  0.45594000000E+02  0.51100000000E-03 0. -1.
         23    2    1    2    0    0 -0.17763568394E-14  0.00000000000E+00  0.00000000000E+00  0.91188000000E+02  0.91188000000E+02 0.  0.
    9900012    2    3    3    0    0  0.87153291387E+01 -0.25068939827E+02 -0.25521960360E+02  0.54367093348E+02  0.40000020905E+02 0.  0.
        -12    1    3    3    0    0 -0.87153291387E+01  0.25068939827E+02  0.25521960360E+02  0.36820906652E+02  0.00000000000E+00 0.  1.
         11    1    4    4    0    0  0.17353692195E+02 -0.18717995571E+02 -0.13274182890E+02  0.28770087289E+02  0.51100000000E-03 0. -1.
        -11    1    4    4    0    0 -0.82748994048E+01 -0.25260663615E+01  0.35402719188E+01  0.93481814778E+01  0.51100000000E-03 0.  1.
         12    1    4    4    0    0 -0.36346365154E+00 -0.38248778947E+01 -0.15788049389E+02  0.16248824581E+02  0.00000000000E+00 0. -1.
</event>
<event>
 8    1  0.1244838E-006  0.9118800E+02  0.7816164E-02  0.1184000E+00
        -11   -1    0    0    0    0  0.00000000000E+00  0.00000000000E+00  0.45593999997E+02  0.45594000000E+02  0.51100000000E-03 0. -1.
         11   -1    0    0    0    0 -0.00000000000E+00 -0.00000000000E+00 -0.45593999997E+02  0.45594000000E+02  0.51100000000E-03 0.  1.
         23    2    1    2    0    0  0.00000000000E+00  0.00000000000E+00  0.00000000000E+00  0.91188000000E+02  0.91188000000E+02 0.  0.
    9900012    2    3    3    0    0  0.70238208700E+01 -0.14521612081E+02 -0.33099351913E+02  0.54367104110E+02  0.40000045440E+02 0.  0.
         12    1    3    3    0    0 -0.70238208700E+01  0.14521612081E+02  0.33099351913E+02  0.36820895890E+02  0.00000000000E+00 0. -1.
         11    1    4    4    0    0 -0.72319824634E+01  0.11090979560E+02 -0.82924089927E+01  0.15622914104E+02  0.51100000000E-03 0. -1.
        -11    1    4    4    0    0  0.54321518432E+00 -0.29793543055E+01 -0.43286588793E+01  0.52828896230E+01  0.51100000000E-03 0.  1.
         12    1    4    4    0    0  0.13712588149E+02 -0.22633237336E+02 -0.20478284041E+02  0.33461300383E+02  0.00000000000E+00 0. -1.
</event>
<event>
 8    1  0.1244838E-006  0.9118800E+02  0.7816164E-02  0.1184000E+00
        -11   -1    0    0    0    0  0.00000000000E+00  0.00000000000E+00  0.45593999997E+02  0.45594000000E+02  0.51100000000E-03 0.  1.
         11   -1    0    0    0    0 -0.00000000000E+00 -0.00000000000E+00 -0.45593999997E+02  0.45594000000E+02  0.51100000000E-03 0. -1.
         23    2    1    2    0    0  0.00000000000E+00  0.35527136788E-14  0.00000000000E+00  0.91188000000E+02  0.91188000000E+02 0.  0.
    9900012    2    3    3    0    0 -0.30337304425E+02 -0.19200771191E+02  0.81705440297E+01  0.54367089584E+02  0.40000012325E+02 0.  0.
         12    1    3    3    0    0  0.30337304425E+02  0.19200771191E+02 -0.81705440297E+01  0.36820910416E+02  0.00000000000E+00 0. -1.
         11    1    4    4    0    0 -0.43967993214E+01  0.16201692257E+01 -0.32574125340E+01  0.57067967609E+01  0.51100000000E-03 0. -1.
        -11    1    4    4    0    0  0.39310478674E+01 -0.16132620731E+02  0.73153425398E+01  0.18144663836E+02  0.51100000000E-03 0.  1.
         12    1    4    4    0    0 -0.29871552971E+02 -0.46883196853E+01  0.41126140238E+01  0.30515628987E+02  0.00000000000E+00 0. -1.
</event>
<event>
 8    1  0.1244838E-006  0.9118800E+02  0.7816164E-02  0.1184000E+00
        -11   -1    0    0    0    0  0.00000000000E+00  0.00000000000E+00  0.45593999997E+02  0.45594000000E+02  0.51100000000E-03 0. -1.
         11   -1    0    0    0    0 -0.00000000000E+00 -0.00000000000E+00 -0.45593999997E+02  0.45594000000E+02  0.51100000000E-03 0.  1.
         23    2    1    2    0    0  0.00000000000E+00  0.00000000000E+00  0.00000000000E+00  0.91188000000E+02  0.91188000000E+02 0.  0.
    9900012    2    3    3    0    0 -0.11853467298E+02  0.33338495365E+02  0.10189115611E+02  0.54367108686E+02  0.40000055873E+02 0.  0.
        -12    1    3    3    0    0  0.11853467298E+02 -0.33338495365E+02 -0.10189115611E+02  0.36820891314E+02  0.00000000000E+00 0.  1.
         11    1    4    4    0    0 -0.19616836306E+02  0.35649679736E+02  0.94206493727E+01  0.41766835729E+02  0.51100000000E-03 0. -1.
        -11    1    4    4    0    0  0.10022155244E+02 -0.23858723174E+01  0.39660016252E+00  0.10309862967E+02  0.51100000000E-03 0.  1.
        -12    1    4    4    0    0 -0.22587862353E+01  0.74687946195E-01  0.37186607553E+00  0.22904099904E+01  0.00000000000E+00 0.  1.
</event>
<event>
 8    1  0.1244838E-006  0.9118800E+02  0.7816164E-02  0.1184000E+00
        -11   -1    0    0    0    0  0.00000000000E+00  0.00000000000E+00  0.45593999997E+02  0.45594000000E+02  0.51100000000E-03 0.  1.
         11   -1    0    0    0    0 -0.00000000000E+00 -0.00000000000E+00 -0.45593999997E+02  0.45594000000E+02  0.51100000000E-03 0. -1.
         23    2    1    2    0    0  0.00000000000E+00  0.00000000000E+00  0.35527136788E-14  0.91188000000E+02  0.91188000000E+02 0.  0.
    9900012    2    3    3    0    0 -0.30921809324E+02 -0.33229106806E+01  0.19712438498E+02  0.54367078518E+02  0.39999987096E+02 0.  0.
         12    1    3    3    0    0  0.30921809324E+02  0.33229106806E+01 -0.19712438498E+02  0.36820921482E+02  0.00000000000E+00 0. -1.
         11    1    4    4    0    0 -0.17649095921E+02  0.22178460585E+01 -0.30490085316E+01  0.18047323382E+02  0.51100000000E-03 0. -1.
        -11    1    4    4    0    0 -0.11067928971E+02  0.70068848822E+00 -0.14821812390E+01  0.11188694185E+02  0.51100000000E-03 0.  1.
        -12    1    4    4    0    0 -0.22047844324E+01 -0.62414452273E+01  0.24243628268E+02  0.25131060951E+02  0.00000000000E+00 0.  1.
</event>
<event>
 8    1  0.1244838E-006  0.9118800E+02  0.7816164E-02  0.1184000E+00
        -11   -1    0    0    0    0  0.00000000000E+00  0.00000000000E+00  0.45593999997E+02  0.45594000000E+02  0.51100000000E-03 0.  1.
         11   -1    0    0    0    0 -0.00000000000E+00 -0.00000000000E+00 -0.45593999997E+02  0.45594000000E+02  0.51100000000E-03 0. -1.
         23    2    1    2    0    0  0.00000000000E+00  0.00000000000E+00  0.00000000000E+00  0.91188000000E+02  0.91188000000E+02 0.  0.
    9900012    2    3    3    0    0 -0.37087366983E+01 -0.69853844012E+01 -0.35961596600E+02  0.54366990329E+02  0.39999786053E+02 0.  0.
        -12    1    3    3    0    0  0.37087366983E+01  0.69853844012E+01  0.35961596600E+02  0.36821009671E+02  0.00000000000E+00 0.  1.
         11    1    4    4    0    0 -0.13409518109E+02 -0.13276699039E+02 -0.99023070997E+01  0.21310598289E+02  0.51100000000E-03 0. -1.
        -11    1    4    4    0    0 -0.14549523450E+01  0.83020646840E+01 -0.15078923923E+02  0.17274695693E+02  0.51100000000E-03 0.  1.
         12    1    4    4    0    0  0.11155733756E+02 -0.20107500462E+01 -0.10980365578E+02  0.15781696347E+02  0.00000000000E+00 0. -1.
</event>
<event>
 8    1  0.1244838E-006  0.9118800E+02  0.7816164E-02  0.1184000E+00
        -11   -1    0    0    0    0  0.00000000000E+00  0.00000000000E+00  0.45593999997E+02  0.45594000000E+02  0.51100000000E-03 0.  1.
         11   -1    0    0    0    0 -0.00000000000E+00 -0.00000000000E+00 -0.45593999997E+02  0.45594000000E+02  0.51100000000E-03 0. -1.
         23    2    1    2    0    0  0.71054273576E-14  0.35527136788E-14 -0.88817841970E-15  0.91188000000E+02  0.91188000000E+02 0.  0.
    9900012    2    3    3    0    0 -0.32217427446E+02 -0.16040197531E+02 -0.77799640815E+01  0.54367103634E+02  0.40000044354E+02 0.  0.
         12    1    3    3    0    0  0.32217427446E+02  0.16040197531E+02  0.77799640815E+01  0.36820896366E+02  0.00000000000E+00 0. -1.
         11    1    4    4    0    0 -0.13246252712E+02 -0.95259593808E+00 -0.18822114891E+02  0.23035682303E+02  0.51100000000E-03 0. -1.
        -11    1    4    4    0    0 -0.14224955424E+02 -0.18152135714E+02  0.11288527075E+02  0.25676452862E+02  0.51100000000E-03 0.  1.
        -12    1    4    4    0    0 -0.47462193097E+01  0.30645341215E+01 -0.24637626543E+00  0.56549684687E+01  0.00000000000E+00 0.  1.
</event>
<event>
 8    1  0.1244838E-006  0.9118800E+02  0.7816164E-02  0.1184000E+00
        -11   -1    0    0    0    0  0.00000000000E+00  0.00000000000E+00  0.45593999997E+02  0.45594000000E+02  0.51100000000E-03 0.  1.
         11   -1    0    0    0    0 -0.00000000000E+00 -0.00000000000E+00 -0.45593999997E+02  0.45594000000E+02  0.51100000000E-03 0. -1.
         23    2    1    2    0    0  0.00000000000E+00  0.17763568394E-14  0.00000000000E+00  0.91188000000E+02  0.91188000000E+02 0.  0.
    9900012    2    3    3    0    0  0.80930233946E+01 -0.94686879383E+01 -0.34650057734E+02  0.54367087737E+02  0.40000008113E+02 0.  0.
        -12    1    3    3    0    0 -0.80930233946E+01  0.94686879383E+01  0.34650057734E+02  0.36820912263E+02  0.00000000000E+00 0.  1.
         11    1    4    4    0    0  0.15526031362E+02 -0.46397958992E+01 -0.90035637124E+01  0.18537786157E+02  0.51100000000E-03 0. -1.
        -11    1    4    4    0    0 -0.57293326132E+00 -0.10980187312E+02 -0.24095536958E+02  0.26485612462E+02  0.51100000000E-03 0.  1.
        -12    1    4    4    0    0 -0.68600747058E+01  0.61512952730E+01 -0.15509570632E+01  0.93436891171E+01  0.00000000000E+00 0.  1.
</event>
<event>
 8    1  0.1244838E-006  0.9118800E+02  0.7816164E-02  0.1184000E+00
        -11   -1    0    0    0    0  0.00000000000E+00  0.00000000000E+00  0.45593999997E+02  0.45594000000E+02  0.51100000000E-03 0. -1.
         11   -1    0    0    0    0 -0.00000000000E+00 -0.00000000000E+00 -0.45593999997E+02  0.45594000000E+02  0.51100000000E-03 0.  1.
         23    2    1    2    0    0 -0.35527136788E-14  0.00000000000E+00 -0.17763568394E-14  0.91188000000E+02  0.91188000000E+02 0.  0.
    9900012    2    3    3    0    0  0.31917630471E+02 -0.94227403436E+01 -0.15756168671E+02  0.54367081738E+02  0.39999994438E+02 0.  0.
         12    1    3    3    0    0 -0.31917630471E+02  0.94227403436E+01  0.15756168671E+02  0.36820918262E+02  0.00000000000E+00 0. -1.
         11    1    4    4    0    0 -0.33495471099E+01  0.39236731522E+01 -0.19943454692E+01  0.55310117482E+01  0.51100000000E-03 0. -1.
        -11    1    4    4    0    0  0.81411448147E+01 -0.14062499410E+02 -0.14373053320E+02  0.21693703938E+02  0.51100000000E-03 0.  1.
        -12    1    4    4    0    0  0.27126032766E+02  0.71608591370E+00  0.61123011789E+00  0.27142366052E+02  0.00000000000E+00 0.  1.
</event>
<event>
 8    1  0.1244838E-006  0.9118800E+02  0.7816164E-02  0.1184000E+00
        -11   -1    0    0    0    0  0.00000000000E+00  0.00000000000E+00  0.45593999997E+02  0.45594000000E+02  0.51100000000E-03 0.  1.
         11   -1    0    0    0    0 -0.00000000000E+00 -0.00000000000E+00 -0.45593999997E+02  0.45594000000E+02  0.51100000000E-03 0. -1.
         23    2    1    2    0    0  0.17763568394E-14  0.00000000000E+00  0.00000000000E+00  0.91188000000E+02  0.91188000000E+02 0.  0.
    9900012    2    3    3    0    0 -0.10454032583E+02  0.12526783677E+02  0.33008688209E+02  0.54367073832E+02  0.39999976415E+02 0.  0.
         12    1    3    3    0    0  0.10454032583E+02 -0.12526783677E+02 -0.33008688209E+02  0.36820926168E+02  0.00000000000E+00 0. -1.
         11    1    4    4    0    0  0.52177368551E+01  0.65552862898E+01  0.77284900023E+01  0.11398513684E+02  0.51100000000E-03 0. -1.
        -11    1    4    4    0    0 -0.54409132033E+01  0.12895257684E+02  0.27081523503E+02  0.30484424264E+02  0.51100000000E-03 0.  1.
        -12    1    4    4    0    0 -0.10230856235E+02 -0.69237602967E+01 -0.18013252958E+01  0.12484135884E+02  0.00000000000E+00 0.  1.
</event>
<event>
 8    1  0.1244838E-006  0.9118800E+02  0.7816164E-02  0.1184000E+00
        -11   -1    0    0    0    0  0.00000000000E+00  0.00000000000E+00  0.45593999997E+02  0.45594000000E+02  0.51100000000E-03 0. -1.
         11   -1    0    0    0    0 -0.00000000000E+00 -0.00000000000E+00 -0.45593999997E+02  0.45594000000E+02  0.51100000000E-03 0.  1.
         23    2    1    2    0    0 -0.44408920985E-15 -0.35527136788E-14  0.00000000000E+00  0.91188000000E+02  0.91188000000E+02 0.  0.
    9900012    2    3    3    0    0  0.27906140698E+01 -0.24465742536E+02  0.27375528397E+02  0.54367086924E+02  0.40000006261E+02 0.  0.
        -12    1    3    3    0    0 -0.27906140698E+01  0.24465742536E+02 -0.27375528397E+02  0.36820913076E+02  0.00000000000E+00 0.  1.
         11    1    4    4    0    0  0.23471721269E+01 -0.16245064182E+02  0.26489066610E+02  0.31162188264E+02  0.51100000000E-03 0. -1.
        -11    1    4    4    0    0 -0.10385193320E+02 -0.17158284563E+01  0.98843276289E+00  0.10572289590E+02  0.51100000000E-03 0.  1.
         12    1    4    4    0    0  0.10828635263E+02 -0.65048498971E+01 -0.10197097572E+00  0.12632609070E+02  0.00000000000E+00 0. -1.
</event>
<event>
 8    1  0.1244838E-006  0.9118800E+02  0.7816164E-02  0.1184000E+00
        -11   -1    0    0    0    0  0.00000000000E+00  0.00000000000E+00  0.45593999997E+02  0.45594000000E+02  0.51100000000E-03 0.  1.
         11   -1    0    0    0    0 -0.00000000000E+00 -0.00000000000E+00 -0.45593999997E+02  0.45594000000E+02  0.51100000000E-03 0. -1.
         23    2    1    2    0    0  0.00000000000E+00  0.35527136788E-14  0.71054273576E-14  0.91188000000E+02  0.91188000000E+02 0.  0.
    9900012    2    3    3    0    0  0.18739046156E+01 -0.10973908939E+02 -0.35097602136E+02  0.54367083775E+02  0.39999999082E+02 0.  0.
        -12    1    3    3    0    0 -0.18739046156E+01  0.10973908939E+02  0.35097602136E+02  0.36820916225E+02  0.00000000000E+00 0.  1.
         11    1    4    4    0    0  0.18115344798E+01  0.14510588977E+02 -0.11909213234E+02  0.18859167791E+02  0.51100000000E-03 0. -1.
        -11    1    4    4    0    0  0.29107797529E+01 -0.14209702091E+02 -0.86404974733E+01  0.16883319257E+02  0.51100000000E-03 0.  1.
         12    1    4    4    0    0 -0.28484096171E+01 -0.11274795826E+02 -0.14547891429E+02  0.18624596728E+02  0.00000000000E+00 0. -1.
</event>
<event>
 8    1  0.1244838E-006  0.9118800E+02  0.7816164E-02  0.1184000E+00
        -11   -1    0    0    0    0  0.00000000000E+00  0.00000000000E+00  0.45593999997E+02  0.45594000000E+02  0.51100000000E-03 0. -1.
         11   -1    0    0    0    0 -0.00000000000E+00 -0.00000000000E+00 -0.45593999997E+02  0.45594000000E+02  0.51100000000E-03 0.  1.
         23    2    1    2    0    0 -0.17763568394E-14  0.00000000000E+00  0.00000000000E+00  0.91188000000E+02  0.91188000000E+02 0.  0.
    9900012    2    3    3    0    0  0.13192445087E+02  0.71395629755E+01  0.33626860181E+02  0.54367086208E+02  0.40000004628E+02 0.  0.
        -12    1    3    3    0    0 -0.13192445087E+02 -0.71395629755E+01 -0.33626860181E+02  0.36820913792E+02  0.00000000000E+00 0.  1.
         11    1    4    4    0    0 -0.16439870918E+00  0.94827322011E+00  0.42087276912E+01  0.43173647142E+01  0.51100000000E-03 0. -1.
        -11    1    4    4    0    0 -0.55031827079E+01  0.17182143605E+02  0.90092586322E+01  0.20166254489E+02  0.51100000000E-03 0.  1.
         12    1    4    4    0    0  0.18860026504E+02 -0.10990853849E+02  0.20408873857E+02  0.29883467004E+02  0.00000000000E+00 0. -1.
</event>
<event>
 8    1  0.1244838E-006  0.9118800E+02  0.7816164E-02  0.1184000E+00
        -11   -1    0    0    0    0  0.00000000000E+00  0.00000000000E+00  0.45593999997E+02  0.45594000000E+02  0.51100000000E-03 0. -1.
         11   -1    0    0    0    0 -0.00000000000E+00 -0.00000000000E+00 -0.45593999997E+02  0.45594000000E+02  0.51100000000E-03 0.  1.
         23    2    1    2    0    0 -0.71054273576E-14 -0.88817841970E-15 -0.88817841970E-15  0.91188000000E+02  0.91188000000E+02 0.  0.
    9900012    2    3    3    0    0 -0.36334843933E+02 -0.42577958263E+01  0.41749737394E+01  0.54367080476E+02  0.39999991560E+02 0.  0.
         12    1    3    3    0    0  0.36334843933E+02  0.42577958263E+01 -0.41749737394E+01  0.36820919524E+02  0.00000000000E+00 0. -1.
         11    1    4    4    0    0 -0.90739737906E+00  0.39946938016E+01  0.25512351737E+01  0.48259454768E+01  0.51100000000E-03 0. -1.
        -11    1    4    4    0    0 -0.22413588130E+02  0.11171695730E+02  0.60051572375E+01  0.25753400398E+02  0.51100000000E-03 0.  1.
         12    1    4    4    0    0 -0.13013858423E+02 -0.19424185358E+02 -0.43814186718E+01  0.23787734601E+02  0.00000000000E+00 0. -1.
</event>
<event>
 8    1  0.1244838E-006  0.9118800E+02  0.7816164E-02  0.1184000E+00
        -11   -1    0    0    0    0  0.00000000000E+00  0.00000000000E+00  0.45593999997E+02  0.45594000000E+02  0.51100000000E-03 0. -1.
         11   -1    0    0    0    0 -0.00000000000E+00 -0.00000000000E+00 -0.45593999997E+02  0.45594000000E+02  0.51100000000E-03 0.  1.
         23    2    1    2    0    0  0.35527136788E-14  0.35527136788E-14 -0.35527136788E-14  0.91188000000E+02  0.91188000000E+02 0.  0.
    9900012    2    3    3    0    0 -0.17361475173E+02 -0.22131856740E+02  0.23760005606E+02  0.54367112323E+02  0.40000064162E+02 0.  0.
        -12    1    3    3    0    0  0.17361475173E+02  0.22131856740E+02 -0.23760005606E+02  0.36820887677E+02  0.00000000000E+00 0.  1.
         11    1    4    4    0    0 -0.96145321339E+01  0.46458811838E+01  0.21416073763E+02  0.23930559037E+02  0.51100000000E-03 0. -1.
        -11    1    4    4    0    0 -0.47960745740E+01 -0.19546456142E+01  0.16261401489E+01  0.54283793936E+01  0.51100000000E-03 0.  1.
        -12    1    4    4    0    0 -0.29508684648E+01 -0.24823092310E+02  0.71779169457E+00  0.25008173892E+02  0.00000000000E+00 0.  1.
</event>
<event>
 8    1  0.1244838E-006  0.9118800E+02  0.7816164E-02  0.1184000E+00
        -11   -1    0    0    0    0  0.00000000000E+00  0.00000000000E+00  0.45593999997E+02  0.45594000000E+02  0.51100000000E-03 0. -1.
         11   -1    0    0    0    0 -0.00000000000E+00 -0.00000000000E+00 -0.45593999997E+02  0.45594000000E+02  0.51100000000E-03 0.  1.
         23    2    1    2    0    0  0.00000000000E+00  0.00000000000E+00  0.35527136788E-14  0.91188000000E+02  0.91188000000E+02 0.  0.
    9900012    2    3    3    0    0 -0.20846042138E+02 -0.66387659598E+01  0.29616704409E+02  0.54367083847E+02  0.39999999246E+02 0.  0.
        -12    1    3    3    0    0  0.20846042138E+02  0.66387659598E+01 -0.29616704409E+02  0.36820916153E+02  0.00000000000E+00 0.  1.
         11    1    4    4    0    0 -0.51296338816E+00  0.51059325843E+01  0.32912034392E+01  0.60963677163E+01  0.51100000000E-03 0. -1.
        -11    1    4    4    0    0 -0.29474110213E+02 -0.96937944870E+01  0.19045689731E+02  0.36406470881E+02  0.51100000000E-03 0.  1.
        -12    1    4    4    0    0  0.91410314634E+01 -0.20509040571E+01  0.72798112394E+01  0.11864245250E+02  0.00000000000E+00 0.  1.
</event>
<event>
 8    1  0.1244838E-006  0.9118800E+02  0.7816164E-02  0.1184000E+00
        -11   -1    0    0    0    0  0.00000000000E+00  0.00000000000E+00  0.45593999997E+02  0.45594000000E+02  0.51100000000E-03 0.  1.
         11   -1    0    0    0    0 -0.00000000000E+00 -0.00000000000E+00 -0.45593999997E+02  0.45594000000E+02  0.51100000000E-03 0. -1.
         23    2    1    2    0    0  0.00000000000E+00  0.00000000000E+00  0.17763568394E-14  0.91188000000E+02  0.91188000000E+02 0.  0.
    9900012    2    3    3    0    0  0.22949220452E+02 -0.24182213561E+02  0.15631790189E+02  0.54366823531E+02  0.39999405798E+02 0.  0.
         12    1    3    3    0    0 -0.22949220452E+02  0.24182213561E+02 -0.15631790189E+02  0.36821176469E+02  0.00000000000E+00 0. -1.
         11    1    4    4    0    0  0.14865805803E+01 -0.66830798138E+01  0.29228405949E+01  0.74442242728E+01  0.51100000000E-03 0. -1.
        -11    1    4    4    0    0  0.21483095986E+01 -0.53344280287E+01  0.21655438014E+02  0.22406011523E+02  0.51100000000E-03 0.  1.
        -12    1    4    4    0    0  0.19314330273E+02 -0.12164705719E+02 -0.89464884197E+01  0.24516587735E+02  0.00000000000E+00 0.  1.
</event>
<event>
 8    1  0.1244838E-006  0.9118800E+02  0.7816164E-02  0.1184000E+00
        -11   -1    0    0    0    0  0.00000000000E+00  0.00000000000E+00  0.45593999997E+02  0.45594000000E+02  0.51100000000E-03 0.  1.
         11   -1    0    0    0    0 -0.00000000000E+00 -0.00000000000E+00 -0.45593999997E+02  0.45594000000E+02  0.51100000000E-03 0. -1.
         23    2    1    2    0    0  0.00000000000E+00  0.00000000000E+00 -0.35527136788E-14  0.91188000000E+02  0.91188000000E+02 0.  0.
    9900012    2    3    3    0    0  0.23821432619E+02 -0.23854987926E+01 -0.27975491464E+02  0.54367090463E+02  0.40000014328E+02 0.  0.
        -12    1    3    3    0    0 -0.23821432619E+02  0.23854987926E+01  0.27975491464E+02  0.36820909537E+02  0.00000000000E+00 0.  1.
         11    1    4    4    0    0  0.17223087444E+02  0.23779210055E+01 -0.50246396922E+01  0.18097962695E+02  0.51100000000E-03 0. -1.
        -11    1    4    4    0    0  0.13522133276E+01 -0.96403776989E+00  0.61941994638E+01  0.64129522814E+01  0.51100000000E-03 0.  1.
         12    1    4    4    0    0  0.52461318476E+01 -0.37993820282E+01 -0.29145051236E+02  0.29856175487E+02  0.00000000000E+00 0. -1.
</event>
<event>
 8    1  0.1244838E-006  0.9118800E+02  0.7816164E-02  0.1184000E+00
        -11   -1    0    0    0    0  0.00000000000E+00  0.00000000000E+00  0.45593999997E+02  0.45594000000E+02  0.51100000000E-03 0.  1.
         11   -1    0    0    0    0 -0.00000000000E+00 -0.00000000000E+00 -0.45593999997E+02  0.45594000000E+02  0.51100000000E-03 0. -1.
         23    2    1    2    0    0  0.17763568394E-14 -0.35527136788E-14  0.00000000000E+00  0.91188000000E+02  0.91188000000E+02 0.  0.
    9900012    2    3    3    0    0 -0.15996351134E+02  0.26936832788E+02  0.19346927682E+02  0.54367084463E+02  0.40000000650E+02 0.  0.
         12    1    3    3    0    0  0.15996351134E+02 -0.26936832788E+02 -0.19346927682E+02  0.36820915537E+02  0.00000000000E+00 0. -1.
         11    1    4    4    0    0 -0.26053986958E+02  0.15204950368E+02  0.64206858114E+01  0.30841951278E+02  0.51100000000E-03 0. -1.
        -11    1    4    4    0    0  0.63538835180E+01 -0.85617518320E+00  0.55038821491E+01  0.84497095026E+01  0.51100000000E-03 0.  1.
        -12    1    4    4    0    0  0.37037523055E+01  0.12588057603E+02  0.74223597219E+01  0.15075423682E+02  0.00000000000E+00 0.  1.
</event>
<event>
 8    1  0.1244838E-006  0.9118800E+02  0.7816164E-02  0.1184000E+00
        -11   -1    0    0    0    0  0.00000000000E+00  0.00000000000E+00  0.45593999997E+02  0.45594000000E+02  0.51100000000E-03 0.  1.
         11   -1    0    0    0    0 -0.00000000000E+00 -0.00000000000E+00 -0.45593999997E+02  0.45594000000E+02  0.51100000000E-03 0. -1.
         23    2    1    2    0    0  0.00000000000E+00  0.00000000000E+00  0.00000000000E+00  0.91188000000E+02  0.91188000000E+02 0.  0.
    9900012    2    3    3    0    0  0.16437814427E+02  0.24202104260E+02 -0.22357025400E+02  0.54367079609E+02  0.39999989584E+02 0.  0.
        -12    1    3    3    0    0 -0.16437814427E+02 -0.24202104260E+02  0.22357025400E+02  0.36820920391E+02  0.00000000000E+00 0.  1.
         11    1    4    4    0    0  0.14015734188E+02 -0.47977562619E+01 -0.79191540828E+01  0.16797984154E+02  0.51100000000E-03 0.  1.
        -11    1    4    4    0    0  0.95797845771E+01  0.23496439004E+02 -0.84890714829E+01  0.26756667456E+02  0.51100000000E-03 0. -1.
        -12    1    4    4    0    0 -0.71577043380E+01  0.55034215171E+01 -0.59487998341E+01  0.10812428000E+02  0.00000000000E+00 0.  1.
</event>
<event>
 8    1  0.1244838E-006  0.9118800E+02  0.7816164E-02  0.1184000E+00
        -11   -1    0    0    0    0  0.00000000000E+00  0.00000000000E+00  0.45593999997E+02  0.45594000000E+02  0.51100000000E-03 0. -1.
         11   -1    0    0    0    0 -0.00000000000E+00 -0.00000000000E+00 -0.45593999997E+02  0.45594000000E+02  0.51100000000E-03 0.  1.
         23    2    1    2    0    0  0.00000000000E+00  0.17763568394E-14  0.00000000000E+00  0.91188000000E+02  0.91188000000E+02 0.  0.
    9900012    2    3    3    0    0  0.10576009936E+02  0.12545962772E+02  0.32962548241E+02  0.54367044627E+02  0.39999909835E+02 0.  0.
        -12    1    3    3    0    0 -0.10576009936E+02 -0.12545962772E+02 -0.32962548241E+02  0.36820955373E+02  0.00000000000E+00 0.  1.
         11    1    4    4    0    0 -0.77377432414E+01  0.15074860802E+02  0.24714652506E+02  0.29965616086E+02  0.51100000000E-03 0. -1.
        -11    1    4    4    0    0  0.80142784864E+01 -0.73912467716E+01  0.69713093041E+01  0.12940569623E+02  0.51100000000E-03 0.  1.
        -12    1    4    4    0    0  0.10299474691E+02  0.48623487419E+01  0.12765864307E+01  0.11460858917E+02  0.00000000000E+00 0.  1.
</event>
<event>
 8    1  0.1244838E-006  0.9118800E+02  0.7816164E-02  0.1184000E+00
        -11   -1    0    0    0    0  0.00000000000E+00  0.00000000000E+00  0.45593999997E+02  0.45594000000E+02  0.51100000000E-03 0.  1.
         11   -1    0    0    0    0 -0.00000000000E+00 -0.00000000000E+00 -0.45593999997E+02  0.45594000000E+02  0.51100000000E-03 0. -1.
         23    2    1    2    0    0 -0.35527136788E-14  0.00000000000E+00  0.35527136788E-14  0.91188000000E+02  0.91188000000E+02 0.  0.
    9900012    2    3    3    0    0 -0.25856590247E+02 -0.61885958361E+01  0.25473678006E+02  0.54367214446E+02  0.40000296972E+02 0.  0.
         12    1    3    3    0    0  0.25856590247E+02  0.61885958361E+01 -0.25473678006E+02  0.36820785554E+02  0.00000000000E+00 0. -1.
         11    1    4    4    0    0 -0.11892404082E+02 -0.60914027941E-01 -0.10131608280E+01  0.11935639091E+02  0.51100000000E-03 0. -1.
        -11    1    4    4    0    0 -0.22545387654E+02 -0.41983428268E+01  0.24207692851E+02  0.33345659093E+02  0.51100000000E-03 0.  1.
         12    1    4    4    0    0  0.85812014894E+01 -0.19293389813E+01  0.22791459835E+01  0.90859162620E+01  0.00000000000E+00 0. -1.
</event>
<event>
 8    1  0.1244838E-006  0.9118800E+02  0.7816164E-02  0.1184000E+00
        -11   -1    0    0    0    0  0.00000000000E+00  0.00000000000E+00  0.45593999997E+02  0.45594000000E+02  0.51100000000E-03 0. -1.
         11   -1    0    0    0    0 -0.00000000000E+00 -0.00000000000E+00 -0.45593999997E+02  0.45594000000E+02  0.51100000000E-03 0.  1.
         23    2    1    2    0    0  0.35527136788E-14  0.35527136788E-14  0.88817841970E-15  0.91188000000E+02  0.91188000000E+02 0.  0.
    9900012    2    3    3    0    0  0.20147285432E+02  0.29845409743E+02  0.76888358938E+01  0.54367084878E+02  0.40000001596E+02 0.  0.
        -12    1    3    3    0    0 -0.20147285432E+02 -0.29845409743E+02 -0.76888358938E+01  0.36820915122E+02  0.00000000000E+00 0.  1.
         11    1    4    4    0    0  0.13868302545E+02  0.14197859038E+02 -0.47089411736E+01  0.20398116187E+02  0.51100000000E-03 0. -1.
        -11    1    4    4    0    0 -0.86364879982E+01  0.18132238708E+01  0.10229845257E+02  0.13510234639E+02  0.51100000000E-03 0.  1.
        -12    1    4    4    0    0  0.14915470885E+02  0.13834326835E+02  0.21679318106E+01  0.20458734052E+02  0.00000000000E+00 0.  1.
</event>
<event>
 8    1  0.1244838E-006  0.9118800E+02  0.7816164E-02  0.1184000E+00
        -11   -1    0    0    0    0  0.00000000000E+00  0.00000000000E+00  0.45593999997E+02  0.45594000000E+02  0.51100000000E-03 0. -1.
         11   -1    0    0    0    0 -0.00000000000E+00 -0.00000000000E+00 -0.45593999997E+02  0.45594000000E+02  0.51100000000E-03 0.  1.
         23    2    1    2    0    0  0.00000000000E+00  0.00000000000E+00  0.00000000000E+00  0.91188000000E+02  0.91188000000E+02 0.  0.
    9900012    2    3    3    0    0  0.12528265377E+02 -0.25077168936E+02 -0.23873519503E+02  0.54367261704E+02  0.40000404705E+02 0.  0.
         12    1    3    3    0    0 -0.12528265377E+02  0.25077168936E+02  0.23873519503E+02  0.36820738296E+02  0.00000000000E+00 0. -1.
         11    1    4    4    0    0  0.33006660791E+01 -0.10906574159E+02 -0.27910001674E+02  0.30146574435E+02  0.51100000000E-03 0. -1.
        -11    1    4    4    0    0 -0.40383202066E+01 -0.48163176110E+01 -0.24424303234E+01  0.67431751843E+01  0.51100000000E-03 0.  1.
        -12    1    4    4    0    0  0.13265919504E+02 -0.93542771652E+01  0.64789124940E+01  0.17477512085E+02  0.00000000000E+00 0.  1.
</event>
<event>
 8    1  0.1244838E-006  0.9118800E+02  0.7816164E-02  0.1184000E+00
        -11   -1    0    0    0    0  0.00000000000E+00  0.00000000000E+00  0.45593999997E+02  0.45594000000E+02  0.51100000000E-03 0. -1.
         11   -1    0    0    0    0 -0.00000000000E+00 -0.00000000000E+00 -0.45593999997E+02  0.45594000000E+02  0.51100000000E-03 0.  1.
         23    2    1    2    0    0  0.00000000000E+00 -0.35527136788E-14  0.44408920985E-15  0.91188000000E+02  0.91188000000E+02 0.  0.
    9900012    2    3    3    0    0  0.20401889250E+02  0.30603687511E+02 -0.17208725154E+01  0.54367025319E+02  0.39999865819E+02 0.  0.
        -12    1    3    3    0    0 -0.20401889250E+02 -0.30603687511E+02  0.17208725154E+01  0.36820974681E+02  0.00000000000E+00 0.  1.
         11    1    4    4    0    0  0.80678461685E+01 -0.17065889988E+01 -0.28565917050E+01  0.87271246261E+01  0.51100000000E-03 0. -1.
        -11    1    4    4    0    0  0.16796317620E+02  0.51167487403E+01  0.37650638153E+01  0.17957536275E+02  0.51100000000E-03 0.  1.
        -12    1    4    4    0    0 -0.44622745382E+01  0.27193527770E+02 -0.26293446257E+01  0.27682364418E+02  0.00000000000E+00 0.  1.
</event>
<event>
 8    1  0.1244838E-006  0.9118800E+02  0.7816164E-02  0.1184000E+00
        -11   -1    0    0    0    0  0.00000000000E+00  0.00000000000E+00  0.45593999997E+02  0.45594000000E+02  0.51100000000E-03 0. -1.
         11   -1    0    0    0    0 -0.00000000000E+00 -0.00000000000E+00 -0.45593999997E+02  0.45594000000E+02  0.51100000000E-03 0.  1.
         23    2    1    2    0    0  0.00000000000E+00  0.00000000000E+00  0.00000000000E+00  0.91188000000E+02  0.91188000000E+02 0.  0.
    9900012    2    3    3    0    0 -0.12717115832E+02 -0.30083271176E+02 -0.17001441072E+02  0.54367119534E+02  0.40000080602E+02 0.  0.
         12    1    3    3    0    0  0.12717115832E+02  0.30083271176E+02  0.17001441072E+02  0.36820880466E+02  0.00000000000E+00 0. -1.
         11    1    4    4    0    0 -0.11688909848E+02 -0.12422000953E+02 -0.31501124574E+01  0.17345314349E+02  0.51100000000E-03 0. -1.
        -11    1    4    4    0    0  0.46921551482E+01 -0.22512735756E+02 -0.17289301868E+02  0.28770810737E+02  0.51100000000E-03 0.  1.
        -12    1    4    4    0    0 -0.57203611315E+01  0.48514655324E+01  0.34379732527E+01  0.82509944476E+01  0.00000000000E+00 0.  1.
</event>
<event>
 8    1  0.1244838E-006  0.9118800E+02  0.7816164E-02  0.1184000E+00
        -11   -1    0    0    0    0  0.00000000000E+00  0.00000000000E+00  0.45593999997E+02  0.45594000000E+02  0.51100000000E-03 0.  1.
         11   -1    0    0    0    0 -0.00000000000E+00 -0.00000000000E+00 -0.45593999997E+02  0.45594000000E+02  0.51100000000E-03 0. -1.
         23    2    1    2    0    0  0.00000000000E+00  0.17763568394E-14 -0.35527136788E-14  0.91188000000E+02  0.91188000000E+02 0.  0.
    9900012    2    3    3    0    0  0.11487999379E+02 -0.14426082085E+02  0.31869949220E+02  0.54367086957E+02  0.40000006336E+02 0.  0.
         12    1    3    3    0    0 -0.11487999379E+02  0.14426082085E+02 -0.31869949220E+02  0.36820913043E+02  0.00000000000E+00 0. -1.
         11    1    4    4    0    0  0.12145211327E+01 -0.52066672325E+01  0.63620097267E+00  0.53841616981E+01  0.51100000000E-03 0. -1.
        -11    1    4    4    0    0  0.61511320425E+01 -0.18976415467E+02  0.48170434006E+01  0.20521809783E+02  0.51100000000E-03 0.  1.
        -12    1    4    4    0    0  0.41223462036E+01  0.97570006145E+01  0.26416704846E+02  0.28461115476E+02  0.00000000000E+00 0.  1.
</event>
<event>
 8    1  0.1244838E-006  0.9118800E+02  0.7816164E-02  0.1184000E+00
        -11   -1    0    0    0    0  0.00000000000E+00  0.00000000000E+00  0.45593999997E+02  0.45594000000E+02  0.51100000000E-03 0. -1.
         11   -1    0    0    0    0 -0.00000000000E+00 -0.00000000000E+00 -0.45593999997E+02  0.45594000000E+02  0.51100000000E-03 0.  1.
         23    2    1    2    0    0 -0.17763568394E-14  0.17763568394E-14  0.00000000000E+00  0.91188000000E+02  0.91188000000E+02 0.  0.
    9900012    2    3    3    0    0 -0.10001238198E+02 -0.98471226305E+01 -0.34040942512E+02  0.54367131506E+02  0.40000107893E+02 0.  0.
         12    1    3    3    0    0  0.10001238198E+02  0.98471226305E+01  0.34040942512E+02  0.36820868494E+02  0.00000000000E+00 0. -1.
         11    1    4    4    0    0 -0.14098433508E+02 -0.17369349222E+02 -0.13179620707E+02  0.25964639840E+02  0.51100000000E-03 0. -1.
        -11    1    4    4    0    0 -0.66211039382E+01  0.20798054287E+01 -0.10186697561E+02  0.12326127350E+02  0.51100000000E-03 0.  1.
         12    1    4    4    0    0  0.10718299247E+02  0.54424211633E+01 -0.10674624243E+02  0.16076364316E+02  0.00000000000E+00 0. -1.
</event>
<event>
 8    1  0.1244838E-006  0.9118800E+02  0.7816164E-02  0.1184000E+00
        -11   -1    0    0    0    0  0.00000000000E+00  0.00000000000E+00  0.45593999997E+02  0.45594000000E+02  0.51100000000E-03 0.  1.
         11   -1    0    0    0    0 -0.00000000000E+00 -0.00000000000E+00 -0.45593999997E+02  0.45594000000E+02  0.51100000000E-03 0. -1.
         23    2    1    2    0    0  0.17763568394E-14  0.71054273576E-14  0.17763568394E-14  0.91188000000E+02  0.91188000000E+02 0.  0.
    9900012    2    3    3    0    0  0.85745075537E+01  0.35701890078E+02 -0.27627217024E+01  0.54367085208E+02  0.40000002349E+02 0.  0.
        -12    1    3    3    0    0 -0.85745075537E+01 -0.35701890078E+02  0.27627217024E+01  0.36820914792E+02  0.00000000000E+00 0.  1.
         11    1    4    4    0    0  0.77810160338E+01  0.19979689018E+02 -0.16338757320E+02  0.26957135879E+02  0.51100000000E-03 0. -1.
        -11    1    4    4    0    0 -0.84430201242E+01  0.77142989180E+01  0.50268320100E+01  0.12492559263E+02  0.51100000000E-03 0.  1.
        -12    1    4    4    0    0  0.92365116441E+01  0.80079021422E+01  0.85492036078E+01  0.14917390067E+02  0.00000000000E+00 0.  1.
</event>
<event>
 8    1  0.1244838E-006  0.9118800E+02  0.7816164E-02  0.1184000E+00
        -11   -1    0    0    0    0  0.00000000000E+00  0.00000000000E+00  0.45593999997E+02  0.45594000000E+02  0.51100000000E-03 0.  1.
         11   -1    0    0    0    0 -0.00000000000E+00 -0.00000000000E+00 -0.45593999997E+02  0.45594000000E+02  0.51100000000E-03 0. -1.
         23    2    1    2    0    0 -0.71054273576E-14 -0.35527136788E-14 -0.17763568394E-14  0.91188000000E+02  0.91188000000E+02 0.  0.
    9900012    2    3    3    0    0  0.29106575337E+02  0.19616444548E+02  0.11125751740E+02  0.54367082353E+02  0.39999995841E+02 0.  0.
         12    1    3    3    0    0 -0.29106575337E+02 -0.19616444548E+02 -0.11125751740E+02  0.36820917647E+02  0.00000000000E+00 0. -1.
         11    1    4    4    0    0  0.11090010209E+02  0.83494161644E+01 -0.11458203846E+02  0.17999764230E+02  0.51100000000E-03 0. -1.
        -11    1    4    4    0    0  0.21696970866E+02  0.10379266588E+02  0.21883086266E+02  0.32517029146E+02  0.51100000000E-03 0.  1.
         12    1    4    4    0    0 -0.36804057383E+01  0.88776179552E+00  0.70086932019E+00  0.38502889772E+01  0.00000000000E+00 0. -1.
</event>
<event>
 8    1  0.1244838E-006  0.9118800E+02  0.7816164E-02  0.1184000E+00
        -11   -1    0    0    0    0  0.00000000000E+00  0.00000000000E+00  0.45593999997E+02  0.45594000000E+02  0.51100000000E-03 0.  1.
         11   -1    0    0    0    0 -0.00000000000E+00 -0.00000000000E+00 -0.45593999997E+02  0.45594000000E+02  0.51100000000E-03 0. -1.
         23    2    1    2    0    0  0.00000000000E+00  0.44408920985E-15  0.00000000000E+00  0.91188000000E+02  0.91188000000E+02 0.  0.
    9900012    2    3    3    0    0 -0.12795333724E+02 -0.20454162656E+01  0.34465569612E+02  0.54367085000E+02  0.40000001874E+02 0.  0.
         12    1    3    3    0    0  0.12795333724E+02  0.20454162656E+01 -0.34465569612E+02  0.36820915000E+02  0.00000000000E+00 0. -1.
         11    1    4    4    0    0 -0.23062103209E+02 -0.31543340448E+01  0.23150209239E+02  0.32828990477E+02  0.51100000000E-03 0. -1.
        -11    1    4    4    0    0  0.85338202676E+01  0.54772492530E+01  0.13051806520E+02  0.16528036830E+02  0.51100000000E-03 0.  1.
         12    1    4    4    0    0  0.17329492178E+01 -0.43683314739E+01 -0.17364461477E+01  0.50100576923E+01  0.00000000000E+00 0. -1.
</event>
<event>
 8    1  0.1244838E-006  0.9118800E+02  0.7816164E-02  0.1184000E+00
        -11   -1    0    0    0    0  0.00000000000E+00  0.00000000000E+00  0.45593999997E+02  0.45594000000E+02  0.51100000000E-03 0.  1.
         11   -1    0    0    0    0 -0.00000000000E+00 -0.00000000000E+00 -0.45593999997E+02  0.45594000000E+02  0.51100000000E-03 0. -1.
         23    2    1    2    0    0  0.17763568394E-14  0.00000000000E+00  0.00000000000E+00  0.91188000000E+02  0.91188000000E+02 0.  0.
    9900012    2    3    3    0    0 -0.13154728202E+02  0.99930235234E+01  0.32907033740E+02  0.54367078464E+02  0.39999986974E+02 0.  0.
         12    1    3    3    0    0  0.13154728202E+02 -0.99930235234E+01 -0.32907033740E+02  0.36820921536E+02  0.00000000000E+00 0. -1.
         11    1    4    4    0    0 -0.11908032636E+02  0.17413547621E+02  0.57679559188E+01  0.21870121118E+02  0.51100000000E-03 0. -1.
        -11    1    4    4    0    0  0.52527004032E+01  0.19991659005E+01  0.13922379080E+02  0.15013998978E+02  0.51100000000E-03 0.  1.
         12    1    4    4    0    0 -0.64993959699E+01 -0.94196899980E+01  0.13216698742E+02  0.17482958367E+02  0.00000000000E+00 0. -1.
</event>
<event>
 8    1  0.1244838E-006  0.9118800E+02  0.7816164E-02  0.1184000E+00
        -11   -1    0    0    0    0  0.00000000000E+00  0.00000000000E+00  0.45593999997E+02  0.45594000000E+02  0.51100000000E-03 0. -1.
         11   -1    0    0    0    0 -0.00000000000E+00 -0.00000000000E+00 -0.45593999997E+02  0.45594000000E+02  0.51100000000E-03 0.  1.
         23    2    1    2    0    0  0.00000000000E+00  0.00000000000E+00 -0.88817841970E-15  0.91188000000E+02  0.91188000000E+02 0.  0.
    9900012    2    3    3    0    0  0.36536444751E+02  0.30865745125E+01  0.33673244063E+01  0.54367114474E+02  0.40000069067E+02 0.  0.
         12    1    3    3    0    0 -0.36536444751E+02 -0.30865745125E+01 -0.33673244063E+01  0.36820885526E+02  0.00000000000E+00 0. -1.
         11    1    4    4    0    0  0.33440946290E+01  0.23207565158E+01  0.87308555725E+01  0.96331053654E+01  0.51100000000E-03 0. -1.
        -11    1    4    4    0    0  0.31164927092E+02  0.11204601854E+02 -0.70738094199E+00  0.33125461074E+02  0.51100000000E-03 0.  1.
        -12    1    4    4    0    0  0.20274230298E+01 -0.10438783857E+02 -0.46561502241E+01  0.11608548035E+02  0.00000000000E+00 0.  1.
</event>
<event>
 8    1  0.1244838E-006  0.9118800E+02  0.7816164E-02  0.1184000E+00
        -11   -1    0    0    0    0  0.00000000000E+00  0.00000000000E+00  0.45593999997E+02  0.45594000000E+02  0.51100000000E-03 0. -1.
         11   -1    0    0    0    0 -0.00000000000E+00 -0.00000000000E+00 -0.45593999997E+02  0.45594000000E+02  0.51100000000E-03 0.  1.
         23    2    1    2    0    0 -0.35527136788E-14  0.35527136788E-14  0.00000000000E+00  0.91188000000E+02  0.91188000000E+02 0.  0.
    9900012    2    3    3    0    0  0.21897627367E+02 -0.27713390821E+02  0.10403916795E+02  0.54367087467E+02  0.40000007498E+02 0.  0.
        -12    1    3    3    0    0 -0.21897627367E+02  0.27713390821E+02 -0.10403916795E+02  0.36820912533E+02  0.00000000000E+00 0.  1.
         11    1    4    4    0    0  0.14462631909E+02 -0.27184531383E+02  0.29090821421E+01  0.30929423328E+02  0.51100000000E-03 0. -1.
        -11    1    4    4    0    0  0.81638537921E+01  0.85903891190E+01  0.79624503974E+01  0.14277391588E+02  0.51100000000E-03 0.  1.
         12    1    4    4    0    0 -0.72885833379E+00 -0.91192485577E+01 -0.46761574474E+00  0.91602725512E+01  0.00000000000E+00 0. -1.
</event>
<event>
 8    1  0.1244838E-006  0.9118800E+02  0.7816164E-02  0.1184000E+00
        -11   -1    0    0    0    0  0.00000000000E+00  0.00000000000E+00  0.45593999997E+02  0.45594000000E+02  0.51100000000E-03 0. -1.
         11   -1    0    0    0    0 -0.00000000000E+00 -0.00000000000E+00 -0.45593999997E+02  0.45594000000E+02  0.51100000000E-03 0.  1.
         23    2    1    2    0    0  0.88817841970E-15  0.00000000000E+00  0.00000000000E+00  0.91188000000E+02  0.91188000000E+02 0.  0.
    9900012    2    3    3    0    0 -0.43205933042E+01  0.15105286297E+02 -0.33300784620E+02  0.54367089407E+02  0.40000011920E+02 0.  0.
         12    1    3    3    0    0  0.43205933042E+01 -0.15105286297E+02  0.33300784620E+02  0.36820910593E+02  0.00000000000E+00 0. -1.
         11    1    4    4    0    0  0.49316986070E+01  0.25388986484E+01 -0.31290003565E+01  0.63685399417E+01  0.51100000000E-03 0. -1.
        -11    1    4    4    0    0 -0.20141058816E+02  0.13136041539E+02 -0.12165969528E+02  0.26948629879E+02  0.51100000000E-03 0.  1.
        -12    1    4    4    0    0  0.10888766905E+02 -0.56965389073E+00 -0.18005814736E+02  0.21049919585E+02  0.00000000000E+00 0.  1.
</event>
<event>
 8    1  0.1244838E-006  0.9118800E+02  0.7816164E-02  0.1184000E+00
        -11   -1    0    0    0    0  0.00000000000E+00  0.00000000000E+00  0.45593999997E+02  0.45594000000E+02  0.51100000000E-03 0. -1.
         11   -1    0    0    0    0 -0.00000000000E+00 -0.00000000000E+00 -0.45593999997E+02  0.45594000000E+02  0.51100000000E-03 0.  1.
         23    2    1    2    0    0  0.35527136788E-14 -0.35527136788E-14 -0.35527136788E-14  0.91188000000E+02  0.91188000000E+02 0.  0.
    9900012    2    3    3    0    0 -0.30559898158E+02  0.13196692696E+02  0.15739136231E+02  0.54367075475E+02  0.39999980161E+02 0.  0.
        -12    1    3    3    0    0  0.30559898158E+02 -0.13196692696E+02 -0.15739136231E+02  0.36820924525E+02  0.00000000000E+00 0.  1.
         11    1    4    4    0    0 -0.14706491481E+02  0.22400490148E+02  0.21130181259E+01  0.26879875305E+02  0.51100000000E-03 0. -1.
        -11    1    4    4    0    0 -0.45330450500E+01 -0.44103310694E+01 -0.28443838630E+01  0.69346980748E+01  0.51100000000E-03 0.  1.
         12    1    4    4    0    0 -0.11320361627E+02 -0.47934663819E+01  0.16470501968E+02  0.20552502095E+02  0.00000000000E+00 0. -1.
</event>
<event>
 8    1  0.1244838E-006  0.9118800E+02  0.7816164E-02  0.1184000E+00
        -11   -1    0    0    0    0  0.00000000000E+00  0.00000000000E+00  0.45593999997E+02  0.45594000000E+02  0.51100000000E-03 0.  1.
         11   -1    0    0    0    0 -0.00000000000E+00 -0.00000000000E+00 -0.45593999997E+02  0.45594000000E+02  0.51100000000E-03 0. -1.
         23    2    1    2    0    0  0.00000000000E+00  0.00000000000E+00  0.35527136788E-14  0.91188000000E+02  0.91188000000E+02 0.  0.
    9900012    2    3    3    0    0  0.96602851592E+01 -0.19603554258E+02 -0.29633751454E+02  0.54367086457E+02  0.40000005197E+02 0.  0.
        -12    1    3    3    0    0 -0.96602851592E+01  0.19603554258E+02  0.29633751454E+02  0.36820913543E+02  0.00000000000E+00 0.  1.
         11    1    4    4    0    0 -0.39278935352E-01 -0.98863385755E+01 -0.25829403260E+02  0.27656813018E+02  0.51100000000E-03 0. -1.
        -11    1    4    4    0    0 -0.18625361306E+01 -0.11430014560E+01 -0.10578258636E+02  0.10801622526E+02  0.51100000000E-03 0.  1.
        -12    1    4    4    0    0  0.11562100225E+02 -0.85742142262E+01  0.67739104424E+01  0.15908650914E+02  0.00000000000E+00 0.  1.
</event>
<event>
 8    1  0.1244838E-006  0.9118800E+02  0.7816164E-02  0.1184000E+00
        -11   -1    0    0    0    0  0.00000000000E+00  0.00000000000E+00  0.45593999997E+02  0.45594000000E+02  0.51100000000E-03 0.  1.
         11   -1    0    0    0    0 -0.00000000000E+00 -0.00000000000E+00 -0.45593999997E+02  0.45594000000E+02  0.51100000000E-03 0. -1.
         23    2    1    2    0    0 -0.33306690739E-15  0.00000000000E+00  0.00000000000E+00  0.91188000000E+02  0.91188000000E+02 0.  0.
    9900012    2    3    3    0    0 -0.75452703498E+00 -0.30295488023E+01 -0.36688303858E+02  0.54367094023E+02  0.40000022445E+02 0.  0.
        -12    1    3    3    0    0  0.75452703498E+00  0.30295488023E+01  0.36688303858E+02  0.36820905977E+02  0.00000000000E+00 0.  1.
         11    1    4    4    0    0 -0.15005938931E+02  0.11566538738E+01 -0.18326848808E+02  0.23714751504E+02  0.51100000000E-03 0. -1.
        -11    1    4    4    0    0  0.85140365622E+01 -0.29354922513E+01 -0.21980955448E+02  0.23754332994E+02  0.51100000000E-03 0.  1.
        -12    1    4    4    0    0  0.57373753336E+01 -0.12507104248E+01  0.36195003983E+01  0.68980095258E+01  0.00000000000E+00 0.  1.
</event>
<event>
 8    1  0.1244838E-006  0.9118800E+02  0.7816164E-02  0.1184000E+00
        -11   -1    0    0    0    0  0.00000000000E+00  0.00000000000E+00  0.45593999997E+02  0.45594000000E+02  0.51100000000E-03 0.  1.
         11   -1    0    0    0    0 -0.00000000000E+00 -0.00000000000E+00 -0.45593999997E+02  0.45594000000E+02  0.51100000000E-03 0. -1.
         23    2    1    2    0    0 -0.11102230246E-15  0.00000000000E+00  0.00000000000E+00  0.91188000000E+02  0.91188000000E+02 0.  0.
    9900012    2    3    3    0    0  0.99694002498E+00 -0.35883061957E+02 -0.81970437153E+01  0.54367088136E+02  0.40000009023E+02 0.  0.
        -12    1    3    3    0    0 -0.99694002498E+00  0.35883061957E+02  0.81970437153E+01  0.36820911864E+02  0.00000000000E+00 0.  1.
         11    1    4    4    0    0 -0.48740382328E+01 -0.29319707481E+01 -0.91533905544E+01  0.10776699869E+02  0.51100000000E-03 0. -1.
        -11    1    4    4    0    0 -0.45002220159E+01 -0.23870387296E+02  0.10868827912E+02  0.26611629193E+02  0.51100000000E-03 0.  1.
         12    1    4    4    0    0  0.10371200274E+02 -0.90807039130E+01 -0.99124810731E+01  0.16978759074E+02  0.00000000000E+00 0. -1.
</event>
<event>
 8    1  0.1244838E-006  0.9118800E+02  0.7816164E-02  0.1184000E+00
        -11   -1    0    0    0    0  0.00000000000E+00  0.00000000000E+00  0.45593999997E+02  0.45594000000E+02  0.51100000000E-03 0. -1.
         11   -1    0    0    0    0 -0.00000000000E+00 -0.00000000000E+00 -0.45593999997E+02  0.45594000000E+02  0.51100000000E-03 0.  1.
         23    2    1    2    0    0  0.00000000000E+00  0.11102230246E-14  0.00000000000E+00  0.91188000000E+02  0.91188000000E+02 0.  0.
    9900012    2    3    3    0    0  0.94263329101E+01 -0.98685556195E+00  0.35580193281E+02  0.54367084885E+02  0.40000001612E+02 0.  0.
        -12    1    3    3    0    0 -0.94263329101E+01  0.98685556195E+00 -0.35580193281E+02  0.36820915115E+02  0.00000000000E+00 0.  1.
         11    1    4    4    0    0  0.16995867494E+02 -0.13340428753E+02  0.29601274597E+02  0.36647810429E+02  0.51100000000E-03 0. -1.
        -11    1    4    4    0    0 -0.71785172250E+01  0.45114776549E+01  0.49029641268E+01  0.97940593050E+01  0.51100000000E-03 0.  1.
         12    1    4    4    0    0 -0.39101735934E+00  0.78420955365E+01  0.10759545567E+01  0.79252151508E+01  0.00000000000E+00 0. -1.
</event>
<event>
 8    1  0.1244838E-006  0.9118800E+02  0.7816164E-02  0.1184000E+00
        -11   -1    0    0    0    0  0.00000000000E+00  0.00000000000E+00  0.45593999997E+02  0.45594000000E+02  0.51100000000E-03 0. -1.
         11   -1    0    0    0    0 -0.00000000000E+00 -0.00000000000E+00 -0.45593999997E+02  0.45594000000E+02  0.51100000000E-03 0.  1.
         23    2    1    2    0    0  0.00000000000E+00  0.17763568394E-14  0.00000000000E+00  0.91188000000E+02  0.91188000000E+02 0.  0.
    9900012    2    3    3    0    0 -0.19588205826E+02  0.15948930772E+02 -0.26790150850E+02  0.54367103993E+02  0.40000045172E+02 0.  0.
         12    1    3    3    0    0  0.19588205826E+02 -0.15948930772E+02  0.26790150850E+02  0.36820896007E+02  0.00000000000E+00 0. -1.
         11    1    4    4    0    0 -0.85081517988E+01  0.18624459365E+02 -0.96702681822E+01  0.22644496475E+02  0.51100000000E-03 0. -1.
        -11    1    4    4    0    0 -0.15961884339E+01  0.62414535683E+01 -0.17552968563E+02  0.18697867948E+02  0.51100000000E-03 0.  1.
         12    1    4    4    0    0 -0.94838655934E+01 -0.89169821612E+01  0.43308589545E+00  0.13024739569E+02  0.00000000000E+00 0. -1.
</event>
<event>
 8    1  0.1244838E-006  0.9118800E+02  0.7816164E-02  0.1184000E+00
        -11   -1    0    0    0    0  0.00000000000E+00  0.00000000000E+00  0.45593999997E+02  0.45594000000E+02  0.51100000000E-03 0. -1.
         11   -1    0    0    0    0 -0.00000000000E+00 -0.00000000000E+00 -0.45593999997E+02  0.45594000000E+02  0.51100000000E-03 0.  1.
         23    2    1    2    0    0  0.35527136788E-14  0.00000000000E+00  0.17763568394E-14  0.91188000000E+02  0.91188000000E+02 0.  0.
    9900012    2    3    3    0    0 -0.24669237320E+02  0.25002550905E+02  0.11049036604E+02  0.54367081604E+02  0.39999994132E+02 0.  0.
        -12    1    3    3    0    0  0.24669237320E+02 -0.25002550905E+02 -0.11049036604E+02  0.36820918396E+02  0.00000000000E+00 0.  1.
         11    1    4    4    0    0 -0.81600408891E+01  0.12290166004E+02  0.17446241483E+01  0.14855240200E+02  0.51100000000E-03 0. -1.
        -11    1    4    4    0    0  0.84250848543E+01  0.15161821763E+01 -0.35993555330E+01  0.92863460902E+01  0.51100000000E-03 0.  1.
         12    1    4    4    0    0 -0.24934281285E+02  0.11196202724E+02  0.12903767988E+02  0.30225495313E+02  0.00000000000E+00 0. -1.
</event>
<event>
 8    1  0.1244838E-006  0.9118800E+02  0.7816164E-02  0.1184000E+00
        -11   -1    0    0    0    0  0.00000000000E+00  0.00000000000E+00  0.45593999997E+02  0.45594000000E+02  0.51100000000E-03 0. -1.
         11   -1    0    0    0    0 -0.00000000000E+00 -0.00000000000E+00 -0.45593999997E+02  0.45594000000E+02  0.51100000000E-03 0.  1.
         23    2    1    2    0    0 -0.35527136788E-14  0.88817841970E-15  0.35527136788E-14  0.91188000000E+02  0.91188000000E+02 0.  0.
    9900012    2    3    3    0    0  0.30141438174E+02  0.20691028931E+01 -0.21047402808E+02  0.54367073247E+02  0.39999975082E+02 0.  0.
         12    1    3    3    0    0 -0.30141438174E+02 -0.20691028931E+01  0.21047402808E+02  0.36820926753E+02  0.00000000000E+00 0. -1.
         11    1    4    4    0    0  0.12312246562E+02  0.12434025140E+02 -0.14106011606E+02  0.22476119778E+02  0.51100000000E-03 0. -1.
        -11    1    4    4    0    0  0.21599462280E+02 -0.72092978573E+01 -0.11209354508E+02  0.25380314717E+02  0.51100000000E-03 0.  1.
         12    1    4    4    0    0 -0.37702706671E+01 -0.31556243897E+01  0.42679633060E+01  0.65106387531E+01  0.00000000000E+00 0. -1.
</event>
<event>
 8    1  0.1244838E-006  0.9118800E+02  0.7816164E-02  0.1184000E+00
        -11   -1    0    0    0    0  0.00000000000E+00  0.00000000000E+00  0.45593999997E+02  0.45594000000E+02  0.51100000000E-03 0.  1.
         11   -1    0    0    0    0 -0.00000000000E+00 -0.00000000000E+00 -0.45593999997E+02  0.45594000000E+02  0.51100000000E-03 0. -1.
         23    2    1    2    0    0  0.00000000000E+00  0.35527136788E-14 -0.35527136788E-14  0.91188000000E+02  0.91188000000E+02 0.  0.
    9900012    2    3    3    0    0 -0.56514707282E+01 -0.29679555911E+02  0.21046713104E+02  0.54367091633E+02  0.40000016997E+02 0.  0.
         12    1    3    3    0    0  0.56514707282E+01  0.29679555911E+02 -0.21046713104E+02  0.36820908367E+02  0.00000000000E+00 0. -1.
         11    1    4    4    0    0 -0.11462737900E+02 -0.23127985717E+01 -0.47430352545E+01  0.12619024570E+02  0.51100000000E-03 0. -1.
        -11    1    4    4    0    0  0.56039606344E+01 -0.27537859629E+02  0.16772830532E+02  0.32727143659E+02  0.51100000000E-03 0.  1.
        -12    1    4    4    0    0  0.20730653780E+00  0.17110228962E+00  0.90169178260E+01  0.90209234048E+01  0.00000000000E+00 0.  1.
</event>
<event>
 8    1  0.1244838E-006  0.9118800E+02  0.7816164E-02  0.1184000E+00
        -11   -1    0    0    0    0  0.00000000000E+00  0.00000000000E+00  0.45593999997E+02  0.45594000000E+02  0.51100000000E-03 0. -1.
         11   -1    0    0    0    0 -0.00000000000E+00 -0.00000000000E+00 -0.45593999997E+02  0.45594000000E+02  0.51100000000E-03 0.  1.
         23    2    1    2    0    0  0.00000000000E+00  0.00000000000E+00  0.00000000000E+00  0.91188000000E+02  0.91188000000E+02 0.  0.
    9900012    2    3    3    0    0  0.11636455396E+02 -0.73071924802E+01 -0.34161053990E+02  0.54367085212E+02  0.40000002357E+02 0.  0.
         12    1    3    3    0    0 -0.11636455396E+02  0.73071924802E+01  0.34161053990E+02  0.36820914788E+02  0.00000000000E+00 0. -1.
         11    1    4    4    0    0  0.14693081883E+02  0.39965600706E+01 -0.18812131072E+02  0.24202384662E+02  0.51100000000E-03 0. -1.
        -11    1    4    4    0    0 -0.81170755431E+01 -0.11840231417E+01 -0.16860150085E+02  0.18749759660E+02  0.51100000000E-03 0.  1.
         12    1    4    4    0    0  0.50604490562E+01 -0.10119729409E+02  0.15112271660E+01  0.11414940890E+02  0.00000000000E+00 0. -1.
</event>
<event>
 8    1  0.1244838E-006  0.9118800E+02  0.7816164E-02  0.1184000E+00
        -11   -1    0    0    0    0  0.00000000000E+00  0.00000000000E+00  0.45593999997E+02  0.45594000000E+02  0.51100000000E-03 0. -1.
         11   -1    0    0    0    0 -0.00000000000E+00 -0.00000000000E+00 -0.45593999997E+02  0.45594000000E+02  0.51100000000E-03 0.  1.
         23    2    1    2    0    0  0.00000000000E+00  0.00000000000E+00 -0.26645352591E-14  0.91188000000E+02  0.91188000000E+02 0.  0.
    9900012    2    3    3    0    0  0.23256293444E+02  0.27485999561E+02  0.77098182577E+01  0.54367127466E+02  0.40000098684E+02 0.  0.
        -12    1    3    3    0    0 -0.23256293444E+02 -0.27485999561E+02 -0.77098182577E+01  0.36820872534E+02  0.00000000000E+00 0.  1.
         11    1    4    4    0    0  0.14183132430E+02  0.67072406170E+01 -0.10365751215E+02  0.18804178279E+02  0.51100000000E-03 0. -1.
        -11    1    4    4    0    0 -0.22709731411E+01  0.12567004065E+02  0.93477447314E-01  0.12770890668E+02  0.51100000000E-03 0.  1.
         12    1    4    4    0    0  0.11344134154E+02  0.82117548793E+01  0.17982092026E+02  0.22792058519E+02  0.00000000000E+00 0. -1.
</event>
<event>
 8    1  0.1244838E-006  0.9118800E+02  0.7816164E-02  0.1184000E+00
        -11   -1    0    0    0    0  0.00000000000E+00  0.00000000000E+00  0.45593999997E+02  0.45594000000E+02  0.51100000000E-03 0.  1.
         11   -1    0    0    0    0 -0.00000000000E+00 -0.00000000000E+00 -0.45593999997E+02  0.45594000000E+02  0.51100000000E-03 0. -1.
         23    2    1    2    0    0  0.00000000000E+00  0.00000000000E+00 -0.35527136788E-14  0.91188000000E+02  0.91188000000E+02 0.  0.
    9900012    2    3    3    0    0  0.20214795223E+02 -0.18416358568E+02  0.24657203712E+02  0.54367110498E+02  0.40000060003E+02 0.  0.
         12    1    3    3    0    0 -0.20214795223E+02  0.18416358568E+02 -0.24657203712E+02  0.36820889502E+02  0.00000000000E+00 0. -1.
         11    1    4    4    0    0  0.17937786513E+02 -0.50764321892E+01 -0.17274884556E+01  0.18722141047E+02  0.51100000000E-03 0. -1.
        -11    1    4    4    0    0  0.10157018141E+02 -0.12401393344E+02  0.17477660118E+02  0.23715568259E+02  0.51100000000E-03 0.  1.
         12    1    4    4    0    0 -0.78800094306E+01 -0.93853303492E+00  0.89070320492E+01  0.11929401192E+02  0.00000000000E+00 0. -1.
</event>
<event>
 8    1  0.1244838E-006  0.9118800E+02  0.7816164E-02  0.1184000E+00
        -11   -1    0    0    0    0  0.00000000000E+00  0.00000000000E+00  0.45593999997E+02  0.45594000000E+02  0.51100000000E-03 0.  1.
         11   -1    0    0    0    0 -0.00000000000E+00 -0.00000000000E+00 -0.45593999997E+02  0.45594000000E+02  0.51100000000E-03 0. -1.
         23    2    1    2    0    0  0.00000000000E+00 -0.44408920985E-15  0.35527136788E-14  0.91188000000E+02  0.91188000000E+02 0.  0.
    9900012    2    3    3    0    0 -0.30111458690E+02  0.30393095157E+01  0.20972411958E+02  0.54367090042E+02  0.40000013369E+02 0.  0.
         12    1    3    3    0    0  0.30111458690E+02 -0.30393095157E+01 -0.20972411958E+02  0.36820909958E+02  0.00000000000E+00 0. -1.
         11    1    4    4    0    0  0.34856455258E+01 -0.84671247821E+01  0.83417237405E+01  0.12386536321E+02  0.51100000000E-03 0. -1.
        -11    1    4    4    0    0 -0.46961452518E+01  0.18618488019E+01  0.10241033992E+02  0.11419239847E+02  0.51100000000E-03 0.  1.
         12    1    4    4    0    0 -0.28900958964E+02  0.96445854959E+01  0.23896542253E+01  0.30561313875E+02  0.00000000000E+00 0. -1.
</event>
<event>
 8    1  0.1244838E-006  0.9118800E+02  0.7816164E-02  0.1184000E+00
        -11   -1    0    0    0    0  0.00000000000E+00  0.00000000000E+00  0.45593999997E+02  0.45594000000E+02  0.51100000000E-03 0. -1.
         11   -1    0    0    0    0 -0.00000000000E+00 -0.00000000000E+00 -0.45593999997E+02  0.45594000000E+02  0.51100000000E-03 0.  1.
         23    2    1    2    0    0  0.00000000000E+00  0.00000000000E+00  0.00000000000E+00  0.91188000000E+02  0.91188000000E+02 0.  0.
    9900012    2    3    3    0    0 -0.71759306995E+01 -0.34101854345E+02  0.11889016359E+02  0.54367093423E+02  0.40000021077E+02 0.  0.
        -12    1    3    3    0    0  0.71759306995E+01  0.34101854345E+02 -0.11889016359E+02  0.36820906577E+02  0.00000000000E+00 0.  1.
         11    1    4    4    0    0 -0.49628247869E+01 -0.28265322748E+02  0.54393287998E+01  0.29208635675E+02  0.51100000000E-03 0. -1.
        -11    1    4    4    0    0  0.93650738813E+01  0.20847537988E+01 -0.28179618321E+00  0.95984486535E+01  0.51100000000E-03 0.  1.
        -12    1    4    4    0    0 -0.11578179794E+02 -0.79212853951E+01  0.67314837429E+01  0.15560009095E+02  0.00000000000E+00 0.  1.
</event>
<event>
 8    1  0.1244838E-006  0.9118800E+02  0.7816164E-02  0.1184000E+00
        -11   -1    0    0    0    0  0.00000000000E+00  0.00000000000E+00  0.45593999997E+02  0.45594000000E+02  0.51100000000E-03 0.  1.
         11   -1    0    0    0    0 -0.00000000000E+00 -0.00000000000E+00 -0.45593999997E+02  0.45594000000E+02  0.51100000000E-03 0. -1.
         23    2    1    2    0    0  0.00000000000E+00  0.00000000000E+00  0.66613381478E-15  0.91188000000E+02  0.91188000000E+02 0.  0.
    9900012    2    3    3    0    0  0.36174182872E+02 -0.67566330410E+01  0.12474391947E+01  0.54367086091E+02  0.40000004362E+02 0.  0.
         12    1    3    3    0    0 -0.36174182872E+02  0.67566330410E+01 -0.12474391947E+01  0.36820913909E+02  0.00000000000E+00 0. -1.
         11    1    4    4    0    0  0.13299517761E+02 -0.15835012284E+01 -0.10219619631E+02  0.16847114723E+02  0.51100000000E-03 0. -1.
        -11    1    4    4    0    0  0.21697300546E+02  0.24644678228E+00 -0.31128797432E+01  0.21920848696E+02  0.51100000000E-03 0.  1.
         12    1    4    4    0    0  0.11773645656E+01 -0.54195785949E+01  0.14579938569E+02  0.15599122672E+02  0.00000000000E+00 0. -1.
</event>
<event>
 8    1  0.1244838E-006  0.9118800E+02  0.7816164E-02  0.1184000E+00
        -11   -1    0    0    0    0  0.00000000000E+00  0.00000000000E+00  0.45593999997E+02  0.45594000000E+02  0.51100000000E-03 0.  1.
         11   -1    0    0    0    0 -0.00000000000E+00 -0.00000000000E+00 -0.45593999997E+02  0.45594000000E+02  0.51100000000E-03 0. -1.
         23    2    1    2    0    0  0.35527136788E-14 -0.17763568394E-14  0.00000000000E+00  0.91188000000E+02  0.91188000000E+02 0.  0.
    9900012    2    3    3    0    0  0.26974172850E+02 -0.12122772358E+02 -0.21936574095E+02  0.54367069897E+02  0.39999967445E+02 0.  0.
        -12    1    3    3    0    0 -0.26974172850E+02  0.12122772358E+02  0.21936574095E+02  0.36820930103E+02  0.00000000000E+00 0.  1.
         11    1    4    4    0    0  0.10465369441E+02  0.10504756983E+02 -0.13930352462E+02  0.20345235235E+02  0.51100000000E-03 0. -1.
        -11    1    4    4    0    0  0.87895543770E+01 -0.21765648381E+01  0.30117623165E+01  0.95427675835E+01  0.51100000000E-03 0.  1.
         12    1    4    4    0    0  0.77192490328E+01 -0.20450964503E+02 -0.11017983949E+02  0.24479067079E+02  0.00000000000E+00 0. -1.
</event>
<event>
 8    1  0.1244838E-006  0.9118800E+02  0.7816164E-02  0.1184000E+00
        -11   -1    0    0    0    0  0.00000000000E+00  0.00000000000E+00  0.45593999997E+02  0.45594000000E+02  0.51100000000E-03 0. -1.
         11   -1    0    0    0    0 -0.00000000000E+00 -0.00000000000E+00 -0.45593999997E+02  0.45594000000E+02  0.51100000000E-03 0.  1.
         23    2    1    2    0    0 -0.11102230246E-15  0.00000000000E+00  0.00000000000E+00  0.91188000000E+02  0.91188000000E+02 0.  0.
    9900012    2    3    3    0    0  0.67702393428E+00  0.18213516505E+02  0.31993555274E+02  0.54367107507E+02  0.40000053184E+02 0.  0.
        -12    1    3    3    0    0 -0.67702393428E+00 -0.18213516505E+02 -0.31993555274E+02  0.36820892493E+02  0.00000000000E+00 0.  1.
         11    1    4    4    0    0 -0.67457313383E+01  0.10164624511E+02  0.16629556402E+02  0.20624418274E+02  0.51100000000E-03 0. -1.
        -11    1    4    4    0    0  0.13557539718E+02  0.10738931867E+02  0.19345936254E+02  0.25949889992E+02  0.51100000000E-03 0.  1.
        -12    1    4    4    0    0 -0.61347844451E+01 -0.26900398732E+01 -0.39819373808E+01  0.77927992411E+01  0.00000000000E+00 0.  1.
</event>
<event>
 8    1  0.1244838E-006  0.9118800E+02  0.7816164E-02  0.1184000E+00
        -11   -1    0    0    0    0  0.00000000000E+00  0.00000000000E+00  0.45593999997E+02  0.45594000000E+02  0.51100000000E-03 0.  1.
         11   -1    0    0    0    0 -0.00000000000E+00 -0.00000000000E+00 -0.45593999997E+02  0.45594000000E+02  0.51100000000E-03 0. -1.
         23    2    1    2    0    0  0.00000000000E+00  0.00000000000E+00  0.17763568394E-14  0.91188000000E+02  0.91188000000E+02 0.  0.
    9900012    2    3    3    0    0 -0.17543372058E+02 -0.31617466652E+02  0.69528322176E+01  0.54367136668E+02  0.40000119663E+02 0.  0.
         12    1    3    3    0    0  0.17543372058E+02  0.31617466652E+02 -0.69528322176E+01  0.36820863332E+02  0.00000000000E+00 0. -1.
         11    1    4    4    0    0  0.37960422627E+01  0.42324161171E+01 -0.18345236045E+00  0.56883159264E+01  0.51100000000E-03 0. -1.
        -11    1    4    4    0    0 -0.42371824927E+01 -0.21849926284E+02  0.13048622174E+02  0.25799990988E+02  0.51100000000E-03 0.  1.
         12    1    4    4    0    0 -0.17102231828E+02 -0.13999956485E+02 -0.59123375957E+01  0.22878829754E+02  0.00000000000E+00 0. -1.
</event>
<event>
 8    1  0.1244838E-006  0.9118800E+02  0.7816164E-02  0.1184000E+00
        -11   -1    0    0    0    0  0.00000000000E+00  0.00000000000E+00  0.45593999997E+02  0.45594000000E+02  0.51100000000E-03 0.  1.
         11   -1    0    0    0    0 -0.00000000000E+00 -0.00000000000E+00 -0.45593999997E+02  0.45594000000E+02  0.51100000000E-03 0. -1.
         23    2    1    2    0    0  0.00000000000E+00 -0.35527136788E-14  0.35527136788E-14  0.91188000000E+02  0.91188000000E+02 0.  0.
    9900012    2    3    3    0    0 -0.52720658937E+01  0.17548862439E+02 -0.31937817852E+02  0.54367062195E+02  0.39999949886E+02 0.  0.
        -12    1    3    3    0    0  0.52720658937E+01 -0.17548862439E+02  0.31937817852E+02  0.36820937805E+02  0.00000000000E+00 0.  1.
         11    1    4    4    0    0 -0.24401102077E+00  0.16751989887E+02 -0.19734972482E+02  0.25887407087E+02  0.51100000000E-03 0.  1.
        -11    1    4    4    0    0 -0.12016536015E+02  0.86591821827E+01 -0.46305718193E+01  0.15518400997E+02  0.51100000000E-03 0. -1.
        -12    1    4    4    0    0  0.69884811423E+01 -0.78623096306E+01 -0.75722735508E+01  0.12961254111E+02  0.00000000000E+00 0.  1.
</event>
<event>
 8    1  0.1244838E-006  0.9118800E+02  0.7816164E-02  0.1184000E+00
        -11   -1    0    0    0    0  0.00000000000E+00  0.00000000000E+00  0.45593999997E+02  0.45594000000E+02  0.51100000000E-03 0.  1.
         11   -1    0    0    0    0 -0.00000000000E+00 -0.00000000000E+00 -0.45593999997E+02  0.45594000000E+02  0.51100000000E-03 0. -1.
         23    2    1    2    0    0  0.22204460493E-15  0.35527136788E-14  0.00000000000E+00  0.91188000000E+02  0.91188000000E+02 0.  0.
    9900012    2    3    3    0    0 -0.16810586465E+01  0.25057622748E+02  0.26927093417E+02  0.54367098656E+02  0.40000033005E+02 0.  0.
         12    1    3    3    0    0  0.16810586465E+01 -0.25057622748E+02 -0.26927093417E+02  0.36820901344E+02  0.00000000000E+00 0. -1.
         11    1    4    4    0    0  0.26832476019E+01  0.18566674254E+02  0.18565132531E+02  0.26392903529E+02  0.51100000000E-03 0. -1.
        -11    1    4    4    0    0 -0.47292699415E+01  0.12430009713E+02 -0.43054780353E+01  0.13978851062E+02  0.51100000000E-03 0.  1.
         12    1    4    4    0    0  0.36496369312E+00 -0.59390612189E+01  0.12667438922E+02  0.13995344065E+02  0.00000000000E+00 0. -1.
</event>
<event>
 8    1  0.1244838E-006  0.9118800E+02  0.7816164E-02  0.1184000E+00
        -11   -1    0    0    0    0  0.00000000000E+00  0.00000000000E+00  0.45593999997E+02  0.45594000000E+02  0.51100000000E-03 0. -1.
         11   -1    0    0    0    0 -0.00000000000E+00 -0.00000000000E+00 -0.45593999997E+02  0.45594000000E+02  0.51100000000E-03 0.  1.
         23    2    1    2    0    0  0.00000000000E+00  0.00000000000E+00 -0.35527136788E-14  0.91188000000E+02  0.91188000000E+02 0.  0.
    9900012    2    3    3    0    0  0.20092165292E+02  0.17343664424E+02 -0.25520215525E+02  0.54367092865E+02  0.40000019804E+02 0.  0.
         12    1    3    3    0    0 -0.20092165292E+02 -0.17343664424E+02  0.25520215525E+02  0.36820907135E+02  0.00000000000E+00 0. -1.
         11    1    4    4    0    0  0.68938548086E+00  0.12389938930E+02 -0.76658436776E+01  0.14585986377E+02  0.51100000000E-03 0. -1.
        -11    1    4    4    0    0  0.25873340410E+02  0.59016000708E+01 -0.75749605577E+01  0.27597801635E+02  0.51100000000E-03 0.  1.
         12    1    4    4    0    0 -0.64705605987E+01 -0.94787457711E+00 -0.10279411290E+02  0.12183304853E+02  0.00000000000E+00 0. -1.
</event>
<event>
 8    1  0.1244838E-006  0.9118800E+02  0.7816164E-02  0.1184000E+00
        -11   -1    0    0    0    0  0.00000000000E+00  0.00000000000E+00  0.45593999997E+02  0.45594000000E+02  0.51100000000E-03 0.  1.
         11   -1    0    0    0    0 -0.00000000000E+00 -0.00000000000E+00 -0.45593999997E+02  0.45594000000E+02  0.51100000000E-03 0. -1.
         23    2    1    2    0    0 -0.17763568394E-14  0.00000000000E+00 -0.14210854715E-13  0.91188000000E+02  0.91188000000E+02 0.  0.
    9900012    2    3    3    0    0 -0.91461102835E+01 -0.11631493646E+02 -0.33717015205E+02  0.54367080782E+02  0.39999992258E+02 0.  0.
        -12    1    3    3    0    0  0.91461102835E+01  0.11631493646E+02  0.33717015205E+02  0.36820919218E+02  0.00000000000E+00 0.  1.
         11    1    4    4    0    0  0.28085715903E+01 -0.59433372045E+00 -0.82955987600E+01  0.87782837728E+01  0.51100000000E-03 0. -1.
        -11    1    4    4    0    0 -0.10063361986E+02  0.11017877233E+02 -0.58038409856E+01  0.16010916390E+02  0.51100000000E-03 0.  1.
        -12    1    4    4    0    0 -0.18913198880E+01 -0.22055037159E+02 -0.19617575459E+02  0.29577880619E+02  0.00000000000E+00 0.  1.
</event>
<event>
 8    1  0.1244838E-006  0.9118800E+02  0.7816164E-02  0.1184000E+00
        -11   -1    0    0    0    0  0.00000000000E+00  0.00000000000E+00  0.45593999997E+02  0.45594000000E+02  0.51100000000E-03 0.  1.
         11   -1    0    0    0    0 -0.00000000000E+00 -0.00000000000E+00 -0.45593999997E+02  0.45594000000E+02  0.51100000000E-03 0. -1.
         23    2    1    2    0    0 -0.35527136788E-14 -0.44408920985E-15  0.35527136788E-14  0.91188000000E+02  0.91188000000E+02 0.  0.
    9900012    2    3    3    0    0  0.27104917603E+02  0.33663490363E+01 -0.24693531095E+02  0.54367090966E+02  0.40000015476E+02 0.  0.
        -12    1    3    3    0    0 -0.27104917603E+02 -0.33663490363E+01  0.24693531095E+02  0.36820909034E+02  0.00000000000E+00 0.  1.
         11    1    4    4    0    0  0.26451635376E+01 -0.18498689513E+01 -0.15107961172E+02  0.15448928646E+02  0.51100000000E-03 0. -1.
        -11    1    4    4    0    0 -0.46623262969E+01  0.67876988691E+01 -0.42604381238E+01  0.92715411720E+01  0.51100000000E-03 0.  1.
         12    1    4    4    0    0  0.29122080363E+02 -0.15714808815E+01 -0.53251317993E+01  0.29646621148E+02  0.00000000000E+00 0. -1.
</event>
<event>
 8    1  0.1244838E-006  0.9118800E+02  0.7816164E-02  0.1184000E+00
        -11   -1    0    0    0    0  0.00000000000E+00  0.00000000000E+00  0.45593999997E+02  0.45594000000E+02  0.51100000000E-03 0. -1.
         11   -1    0    0    0    0 -0.00000000000E+00 -0.00000000000E+00 -0.45593999997E+02  0.45594000000E+02  0.51100000000E-03 0.  1.
         23    2    1    2    0    0  0.00000000000E+00  0.17763568394E-14  0.00000000000E+00  0.91188000000E+02  0.91188000000E+02 0.  0.
    9900012    2    3    3    0    0  0.24273699685E+01  0.51874902625E+01  0.36372769584E+02  0.54367074599E+02  0.39999978164E+02 0.  0.
        -12    1    3    3    0    0 -0.24273699685E+01 -0.51874902625E+01 -0.36372769584E+02  0.36820925401E+02  0.00000000000E+00 0.  1.
         11    1    4    4    0    0 -0.25770151944E+01  0.67107857561E+01  0.20593196205E+02  0.21811817507E+02  0.51100000000E-03 0. -1.
        -11    1    4    4    0    0 -0.40158785217E+01 -0.12343174545E+02  0.12650908473E+02  0.18125306166E+02  0.51100000000E-03 0.  1.
        -12    1    4    4    0    0  0.90202636846E+01  0.10819879052E+02  0.31286649063E+01  0.14429950926E+02  0.00000000000E+00 0.  1.
</event>
<event>
 8    1  0.1244838E-006  0.9118800E+02  0.7816164E-02  0.1184000E+00
        -11   -1    0    0    0    0  0.00000000000E+00  0.00000000000E+00  0.45593999997E+02  0.45594000000E+02  0.51100000000E-03 0.  1.
         11   -1    0    0    0    0 -0.00000000000E+00 -0.00000000000E+00 -0.45593999997E+02  0.45594000000E+02  0.51100000000E-03 0. -1.
         23    2    1    2    0    0  0.35527136788E-14 -0.44408920985E-15  0.00000000000E+00  0.91188000000E+02  0.91188000000E+02 0.  0.
    9900012    2    3    3    0    0  0.17712351472E+02  0.13445261425E+01  0.32252833195E+02  0.54367076677E+02  0.39999982901E+02 0.  0.
         12    1    3    3    0    0 -0.17712351472E+02 -0.13445261425E+01 -0.32252833195E+02  0.36820923323E+02  0.00000000000E+00 0. -1.
         11    1    4    4    0    0  0.39595965727E+01  0.10380735045E+02  0.12969646394E+02  0.17077757257E+02  0.51100000000E-03 0. -1.
        -11    1    4    4    0    0  0.35275223629E+01 -0.13810805932E+02  0.21492826911E+02  0.25789986107E+02  0.51100000000E-03 0.  1.
        -12    1    4    4    0    0  0.10225232537E+02  0.47745970295E+01 -0.22096401096E+01  0.11499333313E+02  0.00000000000E+00 0.  1.
</event>
<event>
 8    1  0.1244838E-006  0.9118800E+02  0.7816164E-02  0.1184000E+00
        -11   -1    0    0    0    0  0.00000000000E+00  0.00000000000E+00  0.45593999997E+02  0.45594000000E+02  0.51100000000E-03 0.  1.
         11   -1    0    0    0    0 -0.00000000000E+00 -0.00000000000E+00 -0.45593999997E+02  0.45594000000E+02  0.51100000000E-03 0. -1.
         23    2    1    2    0    0  0.00000000000E+00  0.00000000000E+00  0.35527136788E-14  0.91188000000E+02  0.91188000000E+02 0.  0.
    9900012    2    3    3    0    0  0.10893115923E+02 -0.33894470241E+02  0.93959125546E+01  0.54367105658E+02  0.40000048969E+02 0.  0.
         12    1    3    3    0    0 -0.10893115923E+02  0.33894470241E+02 -0.93959125546E+01  0.36820894342E+02  0.00000000000E+00 0. -1.
         11    1    4    4    0    0  0.89721856561E+01 -0.34072496082E+01 -0.36916193065E+01  0.10282875021E+02  0.51100000000E-03 0. -1.
        -11    1    4    4    0    0 -0.73838044387E+01 -0.21028514044E+02 -0.37990020909E+01  0.22608657369E+02  0.51100000000E-03 0.  1.
         12    1    4    4    0    0  0.93047347052E+01 -0.94587065887E+01  0.16886533952E+02  0.21475573268E+02  0.00000000000E+00 0. -1.
</event>
<event>
 8    1  0.1244838E-006  0.9118800E+02  0.7816164E-02  0.1184000E+00
        -11   -1    0    0    0    0  0.00000000000E+00  0.00000000000E+00  0.45593999997E+02  0.45594000000E+02  0.51100000000E-03 0. -1.
         11   -1    0    0    0    0 -0.00000000000E+00 -0.00000000000E+00 -0.45593999997E+02  0.45594000000E+02  0.51100000000E-03 0.  1.
         23    2    1    2    0    0 -0.17763568394E-14 -0.88817841970E-15  0.00000000000E+00  0.91188000000E+02  0.91188000000E+02 0.  0.
    9900012    2    3    3    0    0 -0.14426339354E+02  0.69442645364E+01  0.33157765003E+02  0.54367089405E+02  0.40000011916E+02 0.  0.
        -12    1    3    3    0    0  0.14426339354E+02 -0.69442645364E+01 -0.33157765003E+02  0.36820910595E+02  0.00000000000E+00 0.  1.
         11    1    4    4    0    0  0.38862240414E+01  0.46960623847E+01 -0.43932795749E+01  0.75137636977E+01  0.51100000000E-03 0.  1.
        -11    1    4    4    0    0 -0.42550240575E+01  0.61726193284E+01  0.28966162183E+02  0.29920645230E+02  0.51100000000E-03 0. -1.
         12    1    4    4    0    0 -0.14057539338E+02 -0.39244171766E+01  0.85848823947E+01  0.16932680477E+02  0.00000000000E+00 0. -1.
</event>
<event>
 8    1  0.1244838E-006  0.9118800E+02  0.7816164E-02  0.1184000E+00
        -11   -1    0    0    0    0  0.00000000000E+00  0.00000000000E+00  0.45593999997E+02  0.45594000000E+02  0.51100000000E-03 0.  1.
         11   -1    0    0    0    0 -0.00000000000E+00 -0.00000000000E+00 -0.45593999997E+02  0.45594000000E+02  0.51100000000E-03 0. -1.
         23    2    1    2    0    0  0.00000000000E+00 -0.71054273576E-14  0.00000000000E+00  0.91188000000E+02  0.91188000000E+02 0.  0.
    9900012    2    3    3    0    0 -0.26711436433E+02  0.17195890795E+02  0.18616687845E+02  0.54367074389E+02  0.39999977684E+02 0.  0.
         12    1    3    3    0    0  0.26711436433E+02 -0.17195890795E+02 -0.18616687845E+02  0.36820925611E+02  0.00000000000E+00 0. -1.
         11    1    4    4    0    0 -0.11900719966E+02  0.24918062904E+02  0.83814741772E+00  0.27626789281E+02  0.51100000000E-03 0. -1.
        -11    1    4    4    0    0 -0.12545639627E+02 -0.83050805263E+01  0.87310360110E+01  0.17395356458E+02  0.51100000000E-03 0.  1.
        -12    1    4    4    0    0 -0.22650768398E+01  0.58290841702E+00  0.90475044161E+01  0.93449286499E+01  0.00000000000E+00 0.  1.
</event>
<event>
 8    1  0.1244838E-006  0.9118800E+02  0.7816164E-02  0.1184000E+00
        -11   -1    0    0    0    0  0.00000000000E+00  0.00000000000E+00  0.45593999997E+02  0.45594000000E+02  0.51100000000E-03 0.  1.
         11   -1    0    0    0    0 -0.00000000000E+00 -0.00000000000E+00 -0.45593999997E+02  0.45594000000E+02  0.51100000000E-03 0. -1.
         23    2    1    2    0    0 -0.35527136788E-14  0.17763568394E-14  0.35527136788E-14  0.91188000000E+02  0.91188000000E+02 0.  0.
    9900012    2    3    3    0    0  0.16701056697E+02 -0.15220283051E+02 -0.29072255979E+02  0.54367104049E+02  0.40000045300E+02 0.  0.
        -12    1    3    3    0    0 -0.16701056697E+02  0.15220283051E+02  0.29072255979E+02  0.36820895951E+02  0.00000000000E+00 0.  1.
         11    1    4    4    0    0  0.35204963888E+01 -0.87100226703E+01 -0.11443599646E+02  0.14805889466E+02  0.51100000000E-03 0. -1.
        -11    1    4    4    0    0  0.34878249900E+01 -0.18530762946E+02 -0.14546624833E+02  0.23815087503E+02  0.51100000000E-03 0.  1.
         12    1    4    4    0    0  0.96927353179E+01  0.12020502565E+02 -0.30820314998E+01  0.15746127080E+02  0.00000000000E+00 0. -1.
</event>
<event>
 8    1  0.1244838E-006  0.9118800E+02  0.7816164E-02  0.1184000E+00
        -11   -1    0    0    0    0  0.00000000000E+00  0.00000000000E+00  0.45593999997E+02  0.45594000000E+02  0.51100000000E-03 0. -1.
         11   -1    0    0    0    0 -0.00000000000E+00 -0.00000000000E+00 -0.45593999997E+02  0.45594000000E+02  0.51100000000E-03 0.  1.
         23    2    1    2    0    0  0.35527136788E-14  0.00000000000E+00  0.00000000000E+00  0.91188000000E+02  0.91188000000E+02 0.  0.
    9900012    2    3    3    0    0  0.25859929324E+02 -0.19197949641E+02  0.17846077322E+02  0.54367086231E+02  0.40000004680E+02 0.  0.
        -12    1    3    3    0    0 -0.25859929324E+02  0.19197949641E+02 -0.17846077322E+02  0.36820913769E+02  0.00000000000E+00 0.  1.
         11    1    4    4    0    0  0.13720311530E+02 -0.88286892444E+01  0.16889687850E+02  0.23483063220E+02  0.51100000000E-03 0. -1.
        -11    1    4    4    0    0  0.10143073870E+02  0.45747774869E+01  0.85219217423E+01  0.14015480264E+02  0.51100000000E-03 0.  1.
        -12    1    4    4    0    0  0.19965439239E+01 -0.14944037883E+02 -0.75655322702E+01  0.16868542748E+02  0.00000000000E+00 0.  1.
</event>
<event>
 8    1  0.1244838E-006  0.9118800E+02  0.7816164E-02  0.1184000E+00
        -11   -1    0    0    0    0  0.00000000000E+00  0.00000000000E+00  0.45593999997E+02  0.45594000000E+02  0.51100000000E-03 0. -1.
         11   -1    0    0    0    0 -0.00000000000E+00 -0.00000000000E+00 -0.45593999997E+02  0.45594000000E+02  0.51100000000E-03 0.  1.
         23    2    1    2    0    0  0.00000000000E+00  0.00000000000E+00  0.00000000000E+00  0.91188000000E+02  0.91188000000E+02 0.  0.
    9900012    2    3    3    0    0  0.35747954879E+02 -0.87228811747E+01 -0.13312673131E+01  0.54367119964E+02  0.40000081581E+02 0.  0.
        -12    1    3    3    0    0 -0.35747954879E+02  0.87228811747E+01  0.13312673131E+01  0.36820880036E+02  0.00000000000E+00 0.  1.
         11    1    4    4    0    0  0.34081977890E+02 -0.33926631165E+01  0.43465957586E+01  0.34525125269E+02  0.51100000000E-03 0. -1.
        -11    1    4    4    0    0 -0.44336264590E+01 -0.97025222403E+01 -0.41468877334E+00  0.10675577195E+02  0.51100000000E-03 0.  1.
        -12    1    4    4    0    0  0.60996034482E+01  0.43723041821E+01 -0.52631742984E+01  0.91664174998E+01  0.00000000000E+00 0.  1.
</event>
<event>
 8    1  0.1244838E-006  0.9118800E+02  0.7816164E-02  0.1184000E+00
        -11   -1    0    0    0    0  0.00000000000E+00  0.00000000000E+00  0.45593999997E+02  0.45594000000E+02  0.51100000000E-03 0.  1.
         11   -1    0    0    0    0 -0.00000000000E+00 -0.00000000000E+00 -0.45593999997E+02  0.45594000000E+02  0.51100000000E-03 0. -1.
         23    2    1    2    0    0 -0.17763568394E-14  0.00000000000E+00  0.00000000000E+00  0.91188000000E+02  0.91188000000E+02 0.  0.
    9900012    2    3    3    0    0  0.14331725457E+02 -0.30466204313E+02 -0.14906105394E+02  0.54367082876E+02  0.39999997033E+02 0.  0.
        -12    1    3    3    0    0 -0.14331725457E+02  0.30466204313E+02  0.14906105394E+02  0.36820917124E+02  0.00000000000E+00 0.  1.
         11    1    4    4    0    0  0.22987221847E+02 -0.12688425618E+02 -0.10558443093E+02  0.28299986462E+02  0.51100000000E-03 0. -1.
        -11    1    4    4    0    0 -0.53079725048E+01  0.19257095342E+01 -0.16857530162E+00  0.56490129416E+01  0.51100000000E-03 0.  1.
         12    1    4    4    0    0 -0.33475238857E+01 -0.19703488229E+02 -0.41790869991E+01  0.20418083473E+02  0.00000000000E+00 0. -1.
</event>
<event>
 8    1  0.1244838E-006  0.9118800E+02  0.7816164E-02  0.1184000E+00
        -11   -1    0    0    0    0  0.00000000000E+00  0.00000000000E+00  0.45593999997E+02  0.45594000000E+02  0.51100000000E-03 0.  1.
         11   -1    0    0    0    0 -0.00000000000E+00 -0.00000000000E+00 -0.45593999997E+02  0.45594000000E+02  0.51100000000E-03 0. -1.
         23    2    1    2    0    0  0.22204460493E-15 -0.35527136788E-14 -0.35527136788E-14  0.91188000000E+02  0.91188000000E+02 0.  0.
    9900012    2    3    3    0    0 -0.18286635763E+01  0.18964435573E+02  0.31508546125E+02  0.54367050719E+02  0.39999923723E+02 0.  0.
         12    1    3    3    0    0  0.18286635763E+01 -0.18964435573E+02 -0.31508546125E+02  0.36820949281E+02  0.00000000000E+00 0. -1.
         11    1    4    4    0    0 -0.68527507241E+01 -0.18212169888E+01  0.33669381250E+01  0.78494137619E+01  0.51100000000E-03 0. -1.
        -11    1    4    4    0    0  0.91601104558E+01  0.27294443656E+02  0.25208290850E+02  0.38266855187E+02  0.51100000000E-03 0.  1.
        -12    1    4    4    0    0 -0.41360233079E+01 -0.65087910941E+01  0.29333171497E+01  0.82507817697E+01  0.00000000000E+00 0.  1.
</event>
<event>
 8    1  0.1244838E-006  0.9118800E+02  0.7816164E-02  0.1184000E+00
        -11   -1    0    0    0    0  0.00000000000E+00  0.00000000000E+00  0.45593999997E+02  0.45594000000E+02  0.51100000000E-03 0. -1.
         11   -1    0    0    0    0 -0.00000000000E+00 -0.00000000000E+00 -0.45593999997E+02  0.45594000000E+02  0.51100000000E-03 0.  1.
         23    2    1    2    0    0  0.71054273576E-14  0.13600232052E-14  0.35527136788E-14  0.91188000000E+02  0.91188000000E+02 0.  0.
    9900012    2    3    3    0    0 -0.32578088391E+02 -0.17453146430E+00 -0.17158665890E+02  0.54367053250E+02  0.39999929494E+02 0.  0.
         12    1    3    3    0    0  0.32578088391E+02  0.17453146430E+00  0.17158665890E+02  0.36820946750E+02  0.00000000000E+00 0. -1.
         11    1    4    4    0    0 -0.18630603196E+02 -0.39669524034E+01  0.10748856218E+02  0.21871762551E+02  0.51100000000E-03 0. -1.
        -11    1    4    4    0    0 -0.29451714215E+01  0.45890910154E+01 -0.71882262046E+01  0.90224379897E+01  0.51100000000E-03 0.  1.
        -12    1    4    4    0    0 -0.11002313773E+02 -0.79667007627E+00 -0.20719295904E+02  0.23472852710E+02  0.00000000000E+00 0.  1.
</event>
<event>
 8    1  0.1244838E-006  0.9118800E+02  0.7816164E-02  0.1184000E+00
        -11   -1    0    0    0    0  0.00000000000E+00  0.00000000000E+00  0.45593999997E+02  0.45594000000E+02  0.51100000000E-03 0. -1.
         11   -1    0    0    0    0 -0.00000000000E+00 -0.00000000000E+00 -0.45593999997E+02  0.45594000000E+02  0.51100000000E-03 0.  1.
         23    2    1    2    0    0  0.35527136788E-14  0.00000000000E+00  0.00000000000E+00  0.91188000000E+02  0.91188000000E+02 0.  0.
    9900012    2    3    3    0    0  0.28040671988E+02  0.21131785970E+02 -0.11088233967E+02  0.54367073935E+02  0.39999976649E+02 0.  0.
         12    1    3    3    0    0 -0.28040671988E+02 -0.21131785970E+02  0.11088233967E+02  0.36820926065E+02  0.00000000000E+00 0. -1.
         11    1    4    4    0    0  0.11485862223E+02  0.16114649905E+02 -0.11113786048E+02  0.22696325983E+02  0.51100000000E-03 0.  1.
        -11    1    4    4    0    0  0.19836304991E+02  0.10367163106E+02  0.58224911654E+01  0.23127007377E+02  0.51100000000E-03 0. -1.
        -12    1    4    4    0    0 -0.32814952255E+01 -0.53500270417E+01 -0.57969390842E+01  0.85437405747E+01  0.00000000000E+00 0.  1.
</event>
<event>
 8    1  0.1244838E-006  0.9118800E+02  0.7816164E-02  0.1184000E+00
        -11   -1    0    0    0    0  0.00000000000E+00  0.00000000000E+00  0.45593999997E+02  0.45594000000E+02  0.51100000000E-03 0. -1.
         11   -1    0    0    0    0 -0.00000000000E+00 -0.00000000000E+00 -0.45593999997E+02  0.45594000000E+02  0.51100000000E-03 0.  1.
         23    2    1    2    0    0 -0.35527136788E-14 -0.88817841970E-15  0.00000000000E+00  0.91188000000E+02  0.91188000000E+02 0.  0.
    9900012    2    3    3    0    0  0.19749701278E+02 -0.77152929613E+01  0.30103246383E+02  0.54367056383E+02  0.39999936637E+02 0.  0.
        -12    1    3    3    0    0 -0.19749701278E+02  0.77152929613E+01 -0.30103246383E+02  0.36820943617E+02  0.00000000000E+00 0.  1.
         11    1    4    4    0    0  0.24186474132E+02 -0.66025254779E+01  0.99820656052E+01  0.26985561095E+02  0.51100000000E-03 0. -1.
        -11    1    4    4    0    0 -0.95485119747E+01 -0.23236210423E+01  0.43288274130E+01  0.10738344505E+02  0.51100000000E-03 0.  1.
         12    1    4    4    0    0  0.51117391205E+01  0.12108535589E+01  0.15792353365E+02  0.16643150783E+02  0.00000000000E+00 0. -1.
</event>
<event>
 8    1  0.1244838E-006  0.9118800E+02  0.7816164E-02  0.1184000E+00
        -11   -1    0    0    0    0  0.00000000000E+00  0.00000000000E+00  0.45593999997E+02  0.45594000000E+02  0.51100000000E-03 0.  1.
         11   -1    0    0    0    0 -0.00000000000E+00 -0.00000000000E+00 -0.45593999997E+02  0.45594000000E+02  0.51100000000E-03 0. -1.
         23    2    1    2    0    0  0.00000000000E+00 -0.44408920985E-15  0.00000000000E+00  0.91188000000E+02  0.91188000000E+02 0.  0.
    9900012    2    3    3    0    0 -0.29876754374E+02 -0.53233847743E+00  0.21514547243E+02  0.54367087745E+02  0.40000008133E+02 0.  0.
         12    1    3    3    0    0  0.29876754374E+02  0.53233847743E+00 -0.21514547243E+02  0.36820912255E+02  0.00000000000E+00 0. -1.
         11    1    4    4    0    0 -0.10471144569E+02  0.96141136601E+01  0.16858683869E+02  0.22052012881E+02  0.51100000000E-03 0. -1.
        -11    1    4    4    0    0 -0.34612013230E+01 -0.84336291684E+01  0.11672890052E+02  0.14810887143E+02  0.51100000000E-03 0.  1.
         12    1    4    4    0    0 -0.15944408483E+02 -0.17128229691E+01 -0.70170266777E+01  0.17504187721E+02  0.00000000000E+00 0. -1.
</event>
<event>
 8    1  0.1244838E-006  0.9118800E+02  0.7816164E-02  0.1184000E+00
        -11   -1    0    0    0    0  0.00000000000E+00  0.00000000000E+00  0.45593999997E+02  0.45594000000E+02  0.51100000000E-03 0. -1.
         11   -1    0    0    0    0 -0.00000000000E+00 -0.00000000000E+00 -0.45593999997E+02  0.45594000000E+02  0.51100000000E-03 0.  1.
         23    2    1    2    0    0  0.00000000000E+00  0.35527136788E-14  0.00000000000E+00  0.91188000000E+02  0.91188000000E+02 0.  0.
    9900012    2    3    3    0    0  0.16355150193E+02 -0.22478822780E+02  0.24145229510E+02  0.54367074978E+02  0.39999979027E+02 0.  0.
        -12    1    3    3    0    0 -0.16355150193E+02  0.22478822780E+02 -0.24145229510E+02  0.36820925022E+02  0.00000000000E+00 0.  1.
         11    1    4    4    0    0  0.84051957687E+00  0.75140814353E+01  0.30185263067E+01  0.81412157754E+01  0.51100000000E-03 0. -1.
        -11    1    4    4    0    0  0.17122092523E+02 -0.81115761241E+01  0.73690602996E+01  0.20328963809E+02  0.51100000000E-03 0.  1.
         12    1    4    4    0    0 -0.16074619063E+01 -0.21881328091E+02  0.13757642903E+02  0.25896895394E+02  0.00000000000E+00 0. -1.
</event>
<event>
 8    1  0.1244838E-006  0.9118800E+02  0.7816164E-02  0.1184000E+00
        -11   -1    0    0    0    0  0.00000000000E+00  0.00000000000E+00  0.45593999997E+02  0.45594000000E+02  0.51100000000E-03 0. -1.
         11   -1    0    0    0    0 -0.00000000000E+00 -0.00000000000E+00 -0.45593999997E+02  0.45594000000E+02  0.51100000000E-03 0.  1.
         23    2    1    2    0    0 -0.71054273576E-14  0.00000000000E+00  0.00000000000E+00  0.91188000000E+02  0.91188000000E+02 0.  0.
    9900012    2    3    3    0    0 -0.24144400932E+02  0.22309122400E+02  0.16587129404E+02  0.54367056225E+02  0.39999936276E+02 0.  0.
        -12    1    3    3    0    0  0.24144400932E+02 -0.22309122400E+02 -0.16587129404E+02  0.36820943775E+02  0.00000000000E+00 0.  1.
         11    1    4    4    0    0  0.83534779106E+01  0.77440432202E+01  0.95170819679E+01  0.14843370508E+02  0.51100000000E-03 0. -1.
        -11    1    4    4    0    0 -0.26865300133E+02  0.11028411085E+02 -0.10100701908E+01  0.29058397140E+02  0.51100000000E-03 0.  1.
         12    1    4    4    0    0 -0.56325787100E+01  0.35366680944E+01  0.80801176265E+01  0.10465288577E+02  0.00000000000E+00 0. -1.
</event>
<event>
 8    1  0.1244838E-006  0.9118800E+02  0.7816164E-02  0.1184000E+00
        -11   -1    0    0    0    0  0.00000000000E+00  0.00000000000E+00  0.45593999997E+02  0.45594000000E+02  0.51100000000E-03 0. -1.
         11   -1    0    0    0    0 -0.00000000000E+00 -0.00000000000E+00 -0.45593999997E+02  0.45594000000E+02  0.51100000000E-03 0.  1.
         23    2    1    2    0    0  0.00000000000E+00  0.00000000000E+00  0.00000000000E+00  0.91188000000E+02  0.91188000000E+02 0.  0.
    9900012    2    3    3    0    0 -0.68556042334E+01 -0.16769330492E+02  0.32055723566E+02  0.54367093332E+02  0.40000020868E+02 0.  0.
        -12    1    3    3    0    0  0.68556042334E+01  0.16769330492E+02 -0.32055723566E+02  0.36820906668E+02  0.00000000000E+00 0.  1.
         11    1    4    4    0    0 -0.34665060473E+01 -0.17207489701E+02  0.21318683304E+02  0.27615224498E+02  0.51100000000E-03 0. -1.
        -11    1    4    4    0    0  0.54274539396E+01 -0.85399358745E+01 -0.13922752302E+00  0.10119641573E+02  0.51100000000E-03 0.  1.
         12    1    4    4    0    0 -0.88165521256E+01  0.89780950839E+01  0.10876267785E+02  0.16632227261E+02  0.00000000000E+00 0. -1.
</event>
<event>
 8    1  0.1244838E-006  0.9118800E+02  0.7816164E-02  0.1184000E+00
        -11   -1    0    0    0    0  0.00000000000E+00  0.00000000000E+00  0.45593999997E+02  0.45594000000E+02  0.51100000000E-03 0.  1.
         11   -1    0    0    0    0 -0.00000000000E+00 -0.00000000000E+00 -0.45593999997E+02  0.45594000000E+02  0.51100000000E-03 0. -1.
         23    2    1    2    0    0 -0.71054273576E-14  0.00000000000E+00  0.00000000000E+00  0.91188000000E+02  0.91188000000E+02 0.  0.
    9900012    2    3    3    0    0  0.32640776691E+02 -0.12835409602E+02 -0.11207644069E+02  0.54367091155E+02  0.40000015905E+02 0.  0.
         12    1    3    3    0    0 -0.32640776691E+02  0.12835409602E+02  0.11207644069E+02  0.36820908845E+02  0.00000000000E+00 0. -1.
         11    1    4    4    0    0  0.36707954397E+01  0.64224589478E+01 -0.53732548175E+01  0.91430074752E+01  0.51100000000E-03 0. -1.
        -11    1    4    4    0    0  0.12467685453E+02  0.26221007512E+01 -0.11586960451E+02  0.17221389191E+02  0.51100000000E-03 0.  1.
        -12    1    4    4    0    0  0.16502295798E+02 -0.21879969301E+02  0.57525711993E+01  0.28002694489E+02  0.00000000000E+00 0.  1.
</event>
<event>
 8    1  0.1244838E-006  0.9118800E+02  0.7816164E-02  0.1184000E+00
        -11   -1    0    0    0    0  0.00000000000E+00  0.00000000000E+00  0.45593999997E+02  0.45594000000E+02  0.51100000000E-03 0.  1.
         11   -1    0    0    0    0 -0.00000000000E+00 -0.00000000000E+00 -0.45593999997E+02  0.45594000000E+02  0.51100000000E-03 0. -1.
         23    2    1    2    0    0  0.00000000000E+00 -0.44408920985E-15 -0.35527136788E-14  0.91188000000E+02  0.91188000000E+02 0.  0.
    9900012    2    3    3    0    0  0.27261681424E+02  0.30890535167E+01  0.24556814370E+02  0.54367100259E+02  0.40000036661E+02 0.  0.
         12    1    3    3    0    0 -0.27261681424E+02 -0.30890535167E+01 -0.24556814370E+02  0.36820899741E+02  0.00000000000E+00 0. -1.
         11    1    4    4    0    0  0.20561160557E+02 -0.98672668786E+01  0.88195428891E+01  0.24452169968E+02  0.51100000000E-03 0.  1.
        -11    1    4    4    0    0  0.29580805370E+01  0.83164453211E-02 -0.46285995366E+01  0.54931087335E+01  0.51100000000E-03 0. -1.
        -12    1    4    4    0    0  0.37424403307E+01  0.12948003950E+02  0.20365871017E+02  0.24421821558E+02  0.00000000000E+00 0.  1.
</event>
<event>
 8    1  0.1244838E-006  0.9118800E+02  0.7816164E-02  0.1184000E+00
        -11   -1    0    0    0    0  0.00000000000E+00  0.00000000000E+00  0.45593999997E+02  0.45594000000E+02  0.51100000000E-03 0.  1.
         11   -1    0    0    0    0 -0.00000000000E+00 -0.00000000000E+00 -0.45593999997E+02  0.45594000000E+02  0.51100000000E-03 0. -1.
         23    2    1    2    0    0 -0.35527136788E-14  0.00000000000E+00  0.35527136788E-14  0.91188000000E+02  0.91188000000E+02 0.  0.
    9900012    2    3    3    0    0 -0.20315380710E+02 -0.16065841283E+02  0.26171627565E+02  0.54367081504E+02  0.39999993904E+02 0.  0.
         12    1    3    3    0    0  0.20315380710E+02  0.16065841283E+02 -0.26171627565E+02  0.36820918496E+02  0.00000000000E+00 0. -1.
         11    1    4    4    0    0 -0.45339431594E+01 -0.29321734180E+01  0.22827131892E+00  0.54042936247E+01  0.51100000000E-03 0. -1.
        -11    1    4    4    0    0 -0.19255800882E+02 -0.16376853090E+02  0.29111137701E+01  0.25445270059E+02  0.51100000000E-03 0.  1.
        -12    1    4    4    0    0  0.34743633310E+01  0.32431852255E+01  0.23032242476E+02  0.23517517820E+02  0.00000000000E+00 0.  1.
</event>
<event>
 8    1  0.1244838E-006  0.9118800E+02  0.7816164E-02  0.1184000E+00
        -11   -1    0    0    0    0  0.00000000000E+00  0.00000000000E+00  0.45593999997E+02  0.45594000000E+02  0.51100000000E-03 0.  1.
         11   -1    0    0    0    0 -0.00000000000E+00 -0.00000000000E+00 -0.45593999997E+02  0.45594000000E+02  0.51100000000E-03 0. -1.
         23    2    1    2    0    0  0.00000000000E+00  0.00000000000E+00  0.00000000000E+00  0.91188000000E+02  0.91188000000E+02 0.  0.
    9900012    2    3    3    0    0 -0.28768151360E+02 -0.99130324225E+01 -0.20734150647E+02  0.54367085460E+02  0.40000002924E+02 0.  0.
        -12    1    3    3    0    0  0.28768151360E+02  0.99130324225E+01  0.20734150647E+02  0.36820914540E+02  0.00000000000E+00 0.  1.
         11    1    4    4    0    0  0.58308230432E+01 -0.18012889001E+01 -0.86719406202E+01  0.10604041373E+02  0.51100000000E-03 0. -1.
        -11    1    4    4    0    0 -0.14818053511E+01  0.58927691766E+01 -0.23800875875E+01  0.65257407896E+01  0.51100000000E-03 0.  1.
         12    1    4    4    0    0 -0.33117169052E+02 -0.14004512699E+02 -0.96821224394E+01  0.37237303298E+02  0.00000000000E+00 0. -1.
</event>
<event>
 8    1  0.1244838E-006  0.9118800E+02  0.7816164E-02  0.1184000E+00
        -11   -1    0    0    0    0  0.00000000000E+00  0.00000000000E+00  0.45593999997E+02  0.45594000000E+02  0.51100000000E-03 0.  1.
         11   -1    0    0    0    0 -0.00000000000E+00 -0.00000000000E+00 -0.45593999997E+02  0.45594000000E+02  0.51100000000E-03 0. -1.
         23    2    1    2    0    0  0.00000000000E+00  0.35527136788E-14  0.17763568394E-14  0.91188000000E+02  0.91188000000E+02 0.  0.
    9900012    2    3    3    0    0 -0.26590722187E+02 -0.22148118386E+02 -0.12576695664E+02  0.54367096585E+02  0.40000028285E+02 0.  0.
         12    1    3    3    0    0  0.26590722187E+02  0.22148118386E+02  0.12576695664E+02  0.36820903415E+02  0.00000000000E+00 0. -1.
         11    1    4    4    0    0 -0.20752057031E+01 -0.78695434373E+01 -0.36718614387E+01  0.89285362355E+01  0.51100000000E-03 0. -1.
        -11    1    4    4    0    0 -0.27163634847E+02 -0.21414211901E+02 -0.12029120280E+01  0.34610381781E+02  0.51100000000E-03 0.  1.
         12    1    4    4    0    0  0.26481183628E+01  0.71356369527E+01 -0.77019221968E+01  0.10828178568E+02  0.00000000000E+00 0. -1.
</event>
<event>
 8    1  0.1244838E-006  0.9118800E+02  0.7816164E-02  0.1184000E+00
        -11   -1    0    0    0    0  0.00000000000E+00  0.00000000000E+00  0.45593999997E+02  0.45594000000E+02  0.51100000000E-03 0. -1.
         11   -1    0    0    0    0 -0.00000000000E+00 -0.00000000000E+00 -0.45593999997E+02  0.45594000000E+02  0.51100000000E-03 0.  1.
         23    2    1    2    0    0 -0.17763568394E-14  0.00000000000E+00 -0.71054273576E-14  0.91188000000E+02  0.91188000000E+02 0.  0.
    9900012    2    3    3    0    0  0.69304945189E+01 -0.15558551960E+02  0.32644727992E+02  0.54367101599E+02  0.40000039715E+02 0.  0.
        -12    1    3    3    0    0 -0.69304945189E+01  0.15558551960E+02 -0.32644727992E+02  0.36820898401E+02  0.00000000000E+00 0.  1.
         11    1    4    4    0    0 -0.21185404339E+01  0.46556484889E+01  0.24176875540E+02  0.24712033254E+02  0.51100000000E-03 0.  1.
        -11    1    4    4    0    0 -0.22791959598E+01 -0.16225762017E+02  0.42648377445E+01  0.16931004946E+02  0.51100000000E-03 0. -1.
        -12    1    4    4    0    0  0.11328230913E+02 -0.39884384321E+01  0.42030147080E+01  0.12724063399E+02  0.00000000000E+00 0.  1.
</event>
<event>
 8    1  0.1244838E-006  0.9118800E+02  0.7816164E-02  0.1184000E+00
        -11   -1    0    0    0    0  0.00000000000E+00  0.00000000000E+00  0.45593999997E+02  0.45594000000E+02  0.51100000000E-03 0.  1.
         11   -1    0    0    0    0 -0.00000000000E+00 -0.00000000000E+00 -0.45593999997E+02  0.45594000000E+02  0.51100000000E-03 0. -1.
         23    2    1    2    0    0  0.00000000000E+00  0.00000000000E+00 -0.35527136788E-14  0.91188000000E+02  0.91188000000E+02 0.  0.
    9900012    2    3    3    0    0 -0.26196525189E+02  0.14896541216E+02 -0.21156898633E+02  0.54367092462E+02  0.40000018885E+02 0.  0.
        -12    1    3    3    0    0  0.26196525189E+02 -0.14896541216E+02  0.21156898633E+02  0.36820907538E+02  0.00000000000E+00 0.  1.
         11    1    4    4    0    0 -0.32270187477E+00  0.55319273679E+01 -0.30668476489E+01  0.63333965348E+01  0.51100000000E-03 0. -1.
        -11    1    4    4    0    0 -0.60583385664E+01  0.18402930688E+02  0.52698740845E+00  0.19381667629E+02  0.51100000000E-03 0.  1.
         12    1    4    4    0    0 -0.19815484748E+02 -0.90383168399E+01 -0.18617038392E+02  0.28652028298E+02  0.00000000000E+00 0. -1.
</event>
<event>
 8    1  0.1244838E-006  0.9118800E+02  0.7816164E-02  0.1184000E+00
        -11   -1    0    0    0    0  0.00000000000E+00  0.00000000000E+00  0.45593999997E+02  0.45594000000E+02  0.51100000000E-03 0.  1.
         11   -1    0    0    0    0 -0.00000000000E+00 -0.00000000000E+00 -0.45593999997E+02  0.45594000000E+02  0.51100000000E-03 0. -1.
         23    2    1    2    0    0  0.00000000000E+00 -0.44408920985E-15  0.88817841970E-15  0.91188000000E+02  0.91188000000E+02 0.  0.
    9900012    2    3    3    0    0  0.36142794205E+02 -0.28289220310E+01  0.64401605731E+01  0.54367081475E+02  0.39999993839E+02 0.  0.
        -12    1    3    3    0    0 -0.36142794205E+02  0.28289220310E+01 -0.64401605731E+01  0.36820918525E+02  0.00000000000E+00 0.  1.
         11    1    4    4    0    0  0.48568536105E+01  0.98715884834E+00 -0.33268502194E+01  0.59692078393E+01  0.51100000000E-03 0. -1.
        -11    1    4    4    0    0  0.22268341702E+02 -0.10801406364E+02 -0.90842353493E+01  0.26364232470E+02  0.51100000000E-03 0.  1.
        -12    1    4    4    0    0  0.90175988925E+01  0.69853254849E+01  0.18851246142E+02  0.22033641166E+02  0.00000000000E+00 0.  1.
</event>
<event>
 8    1  0.1244838E-006  0.9118800E+02  0.7816164E-02  0.1184000E+00
        -11   -1    0    0    0    0  0.00000000000E+00  0.00000000000E+00  0.45593999997E+02  0.45594000000E+02  0.51100000000E-03 0. -1.
         11   -1    0    0    0    0 -0.00000000000E+00 -0.00000000000E+00 -0.45593999997E+02  0.45594000000E+02  0.51100000000E-03 0.  1.
         23    2    1    2    0    0 -0.11102230246E-14  0.00000000000E+00  0.00000000000E+00  0.91188000000E+02  0.91188000000E+02 0.  0.
    9900012    2    3    3    0    0  0.15928947925E+01 -0.28159040376E+02 -0.23670875995E+02  0.54367092364E+02  0.40000018663E+02 0.  0.
         12    1    3    3    0    0 -0.15928947925E+01  0.28159040376E+02  0.23670875995E+02  0.36820907636E+02  0.00000000000E+00 0. -1.
         11    1    4    4    0    0  0.12245849526E+02 -0.14909034045E+02  0.13675525598E+01  0.19341931833E+02  0.51100000000E-03 0. -1.
        -11    1    4    4    0    0 -0.76576224752E+01 -0.17439428217E+02 -0.21768295287E+02  0.28924583290E+02  0.51100000000E-03 0.  1.
         12    1    4    4    0    0 -0.29953322585E+01  0.41894218865E+01 -0.32701332678E+01  0.61005772408E+01  0.00000000000E+00 0. -1.
</event>
<event>
 8    1  0.1244838E-006  0.9118800E+02  0.7816164E-02  0.1184000E+00
        -11   -1    0    0    0    0  0.00000000000E+00  0.00000000000E+00  0.45593999997E+02  0.45594000000E+02  0.51100000000E-03 0. -1.
         11   -1    0    0    0    0 -0.00000000000E+00 -0.00000000000E+00 -0.45593999997E+02  0.45594000000E+02  0.51100000000E-03 0.  1.
         23    2    1    2    0    0 -0.88817841970E-15  0.00000000000E+00  0.00000000000E+00  0.91188000000E+02  0.91188000000E+02 0.  0.
    9900012    2    3    3    0    0  0.26212630901E+01 -0.83217228456E+01 -0.35772295970E+02  0.54367092212E+02  0.40000018317E+02 0.  0.
         12    1    3    3    0    0 -0.26212630901E+01  0.83217228456E+01  0.35772295970E+02  0.36820907788E+02  0.00000000000E+00 0. -1.
         11    1    4    4    0    0  0.10003609628E+02  0.55187557940E-02 -0.17661757507E+02  0.20298027356E+02  0.51100000000E-03 0. -1.
        -11    1    4    4    0    0 -0.15480631670E+02 -0.56208226033E+01 -0.19384227104E+02  0.25436034761E+02  0.51100000000E-03 0.  1.
        -12    1    4    4    0    0  0.80982851327E+01 -0.27064189981E+01  0.12736886408E+01  0.86330300959E+01  0.00000000000E+00 0.  1.
</event>
<event>
 8    1  0.1244838E-006  0.9118800E+02  0.7816164E-02  0.1184000E+00
        -11   -1    0    0    0    0  0.00000000000E+00  0.00000000000E+00  0.45593999997E+02  0.45594000000E+02  0.51100000000E-03 0.  1.
         11   -1    0    0    0    0 -0.00000000000E+00 -0.00000000000E+00 -0.45593999997E+02  0.45594000000E+02  0.51100000000E-03 0. -1.
         23    2    1    2    0    0  0.00000000000E+00 -0.35527136788E-14 -0.35527136788E-14  0.91188000000E+02  0.91188000000E+02 0.  0.
    9900012    2    3    3    0    0 -0.20402535611E+02 -0.81313948709E+01  0.29553291138E+02  0.54367081231E+02  0.39999993283E+02 0.  0.
         12    1    3    3    0    0  0.20402535611E+02  0.81313948709E+01 -0.29553291138E+02  0.36820918769E+02  0.00000000000E+00 0. -1.
         11    1    4    4    0    0  0.16193443648E+00 -0.12311916026E+02  0.73318850893E+01  0.14330597972E+02  0.51100000000E-03 0. -1.
        -11    1    4    4    0    0 -0.18441271951E+01  0.85316611991E+01 -0.21588183178E+01  0.89916930952E+01  0.51100000000E-03 0.  1.
        -12    1    4    4    0    0 -0.18720342852E+02 -0.43511400435E+01  0.24380224367E+02  0.31044790164E+02  0.00000000000E+00 0.  1.
</event>
<event>
 8    1  0.1244838E-006  0.9118800E+02  0.7816164E-02  0.1184000E+00
        -11   -1    0    0    0    0  0.00000000000E+00  0.00000000000E+00  0.45593999997E+02  0.45594000000E+02  0.51100000000E-03 0.  1.
         11   -1    0    0    0    0 -0.00000000000E+00 -0.00000000000E+00 -0.45593999997E+02  0.45594000000E+02  0.51100000000E-03 0. -1.
         23    2    1    2    0    0 -0.35527136788E-14  0.00000000000E+00 -0.44408920985E-15  0.91188000000E+02  0.91188000000E+02 0.  0.
    9900012    2    3    3    0    0 -0.25457308918E+02  0.26336598366E+02 -0.37535525873E+01  0.54367080024E+02  0.39999990531E+02 0.  0.
         12    1    3    3    0    0  0.25457308918E+02 -0.26336598366E+02  0.37535525873E+01  0.36820919976E+02  0.00000000000E+00 0. -1.
         11    1    4    4    0    0 -0.37395221013E+01 -0.20982253831E+01 -0.37655577869E+01  0.57066628613E+01  0.51100000000E-03 0. -1.
        -11    1    4    4    0    0 -0.29992548517E+02  0.25526794384E+02 -0.27068264374E+01  0.39477805255E+02  0.51100000000E-03 0.  1.
        -12    1    4    4    0    0  0.82747617004E+01  0.29080293649E+01  0.27188316371E+01  0.91826119082E+01  0.00000000000E+00 0.  1.
</event>
<event>
 8    1  0.1244838E-006  0.9118800E+02  0.7816164E-02  0.1184000E+00
        -11   -1    0    0    0    0  0.00000000000E+00  0.00000000000E+00  0.45593999997E+02  0.45594000000E+02  0.51100000000E-03 0.  1.
         11   -1    0    0    0    0 -0.00000000000E+00 -0.00000000000E+00 -0.45593999997E+02  0.45594000000E+02  0.51100000000E-03 0. -1.
         23    2    1    2    0    0  0.88817841970E-15 -0.17763568394E-14  0.00000000000E+00  0.91188000000E+02  0.91188000000E+02 0.  0.
    9900012    2    3    3    0    0  0.38661859722E+01  0.12136847080E+02 -0.34547623001E+02  0.54366963811E+02  0.39999725599E+02 0.  0.
        -12    1    3    3    0    0 -0.38661859722E+01 -0.12136847080E+02  0.34547623001E+02  0.36821036189E+02  0.00000000000E+00 0.  1.
         11    1    4    4    0    0  0.91452338460E+01  0.21818836367E+02 -0.35229558264E+02  0.42436054226E+02  0.51100000000E-03 0. -1.
        -11    1    4    4    0    0 -0.35545127442E+01 -0.44959500718E+01 -0.16868133799E+01  0.59744010191E+01  0.51100000000E-03 0.  1.
         12    1    4    4    0    0 -0.17245351297E+01 -0.51860392160E+01  0.23687486429E+01  0.59565085659E+01  0.00000000000E+00 0. -1.
</event>
<event>
 8    1  0.1244838E-006  0.9118800E+02  0.7816164E-02  0.1184000E+00
        -11   -1    0    0    0    0  0.00000000000E+00  0.00000000000E+00  0.45593999997E+02  0.45594000000E+02  0.51100000000E-03 0. -1.
         11   -1    0    0    0    0 -0.00000000000E+00 -0.00000000000E+00 -0.45593999997E+02  0.45594000000E+02  0.51100000000E-03 0.  1.
         23    2    1    2    0    0  0.35527136788E-14  0.26645352591E-14  0.00000000000E+00  0.91188000000E+02  0.91188000000E+02 0.  0.
    9900012    2    3    3    0    0 -0.29732062884E+02 -0.76473446285E+00 -0.21707088712E+02  0.54367108071E+02  0.40000054469E+02 0.  0.
         12    1    3    3    0    0  0.29732062884E+02  0.76473446285E+00  0.21707088712E+02  0.36820891929E+02  0.00000000000E+00 0. -1.
         11    1    4    4    0    0 -0.13327283006E+02 -0.64381945160E+01  0.97136856015E-01  0.14801224840E+02  0.51100000000E-03 0. -1.
        -11    1    4    4    0    0 -0.41533089110E+01 -0.11298253920E+02 -0.89797908890E+01  0.15017894700E+02  0.51100000000E-03 0.  1.
        -12    1    4    4    0    0 -0.12251470967E+02  0.16971713973E+02 -0.12824434679E+02  0.24547988530E+02  0.00000000000E+00 0.  1.
</event>
<event>
 8    1  0.1244838E-006  0.9118800E+02  0.7816164E-02  0.1184000E+00
        -11   -1    0    0    0    0  0.00000000000E+00  0.00000000000E+00  0.45593999997E+02  0.45594000000E+02  0.51100000000E-03 0. -1.
         11   -1    0    0    0    0 -0.00000000000E+00 -0.00000000000E+00 -0.45593999997E+02  0.45594000000E+02  0.51100000000E-03 0.  1.
         23    2    1    2    0    0 -0.88817841970E-15  0.00000000000E+00  0.00000000000E+00  0.91188000000E+02  0.91188000000E+02 0.  0.
    9900012    2    3    3    0    0  0.50051606302E+01 -0.34956552163E+02 -0.10429188201E+02  0.54367080150E+02  0.39999990818E+02 0.  0.
         12    1    3    3    0    0 -0.50051606302E+01  0.34956552163E+02  0.10429188201E+02  0.36820919850E+02  0.00000000000E+00 0. -1.
         11    1    4    4    0    0  0.51912180531E+01 -0.16736132842E+02  0.27802782660E+01  0.17741951270E+02  0.51100000000E-03 0. -1.
        -11    1    4    4    0    0 -0.40609569467E+01 -0.24923680548E+02 -0.13946235846E+02  0.28847508002E+02  0.51100000000E-03 0.  1.
         12    1    4    4    0    0  0.38748995238E+01  0.67032612271E+01  0.73676937887E+00  0.77776208776E+01  0.00000000000E+00 0. -1.
</event>
<event>
 8    1  0.1244838E-006  0.9118800E+02  0.7816164E-02  0.1184000E+00
        -11   -1    0    0    0    0  0.00000000000E+00  0.00000000000E+00  0.45593999997E+02  0.45594000000E+02  0.51100000000E-03 0.  1.
         11   -1    0    0    0    0 -0.00000000000E+00 -0.00000000000E+00 -0.45593999997E+02  0.45594000000E+02  0.51100000000E-03 0. -1.
         23    2    1    2    0    0  0.00000000000E+00  0.00000000000E+00  0.00000000000E+00  0.91188000000E+02  0.91188000000E+02 0.  0.
    9900012    2    3    3    0    0  0.12714386865E+02  0.19966112964E+02 -0.28204215218E+02  0.54367094847E+02  0.40000024322E+02 0.  0.
        -12    1    3    3    0    0 -0.12714386865E+02 -0.19966112964E+02  0.28204215218E+02  0.36820905153E+02  0.00000000000E+00 0.  1.
         11    1    4    4    0    0  0.62760092484E+01  0.18369474922E+02 -0.14613958979E+02  0.24298018403E+02  0.51100000000E-03 0. -1.
        -11    1    4    4    0    0  0.83206749475E+00 -0.36398008674E+01 -0.19831231478E+02  0.20179648879E+02  0.51100000000E-03 0.  1.
        -12    1    4    4    0    0  0.56063101216E+01  0.52364389094E+01  0.62409752391E+01  0.98894275652E+01  0.00000000000E+00 0.  1.
</event>
<event>
 8    1  0.1244838E-006  0.9118800E+02  0.7816164E-02  0.1184000E+00
        -11   -1    0    0    0    0  0.00000000000E+00  0.00000000000E+00  0.45593999997E+02  0.45594000000E+02  0.51100000000E-03 0. -1.
         11   -1    0    0    0    0 -0.00000000000E+00 -0.00000000000E+00 -0.45593999997E+02  0.45594000000E+02  0.51100000000E-03 0.  1.
         23    2    1    2    0    0  0.17763568394E-14  0.00000000000E+00  0.35527136788E-14  0.91188000000E+02  0.91188000000E+02 0.  0.
    9900012    2    3    3    0    0 -0.81929240609E+01 -0.18042275212E+02 -0.31034360035E+02  0.54367092864E+02  0.40000019802E+02 0.  0.
         12    1    3    3    0    0  0.81929240609E+01  0.18042275212E+02  0.31034360035E+02  0.36820907136E+02  0.00000000000E+00 0. -1.
         11    1    4    4    0    0  0.80163913993E+01 -0.45324245956E+01 -0.25305468868E+01  0.95503440561E+01  0.51100000000E-03 0. -1.
        -11    1    4    4    0    0 -0.11409773628E+02 -0.58069809081E+01 -0.32477054949E+02  0.34909354905E+02  0.51100000000E-03 0.  1.
         12    1    4    4    0    0 -0.47995418319E+01 -0.77028697084E+01  0.39732418000E+01  0.99073939026E+01  0.00000000000E+00 0. -1.
</event>
<event>
 8    1  0.1244838E-006  0.9118800E+02  0.7816164E-02  0.1184000E+00
        -11   -1    0    0    0    0  0.00000000000E+00  0.00000000000E+00  0.45593999997E+02  0.45594000000E+02  0.51100000000E-03 0.  1.
         11   -1    0    0    0    0 -0.00000000000E+00 -0.00000000000E+00 -0.45593999997E+02  0.45594000000E+02  0.51100000000E-03 0. -1.
         23    2    1    2    0    0  0.00000000000E+00 -0.17763568394E-14  0.88817841970E-15  0.91188000000E+02  0.91188000000E+02 0.  0.
    9900012    2    3    3    0    0 -0.33778807084E+02  0.13884830205E+02  0.46884431125E+01  0.54367111680E+02  0.40000062698E+02 0.  0.
         12    1    3    3    0    0  0.33778807084E+02 -0.13884830205E+02 -0.46884431125E+01  0.36820888320E+02  0.00000000000E+00 0. -1.
         11    1    4    4    0    0 -0.91108213530E+01  0.19175305185E+02  0.38393531412E+00  0.21233153352E+02  0.51100000000E-03 0. -1.
        -11    1    4    4    0    0 -0.18022332576E+02  0.44014505201E+01  0.88236348428E+01  0.20543460523E+02  0.51100000000E-03 0.  1.
         12    1    4    4    0    0 -0.66456531553E+01 -0.96919255001E+01 -0.45191270444E+01  0.12590497806E+02  0.00000000000E+00 0. -1.
</event>
<event>
 8    1  0.1244838E-006  0.9118800E+02  0.7816164E-02  0.1184000E+00
        -11   -1    0    0    0    0  0.00000000000E+00  0.00000000000E+00  0.45593999997E+02  0.45594000000E+02  0.51100000000E-03 0.  1.
         11   -1    0    0    0    0 -0.00000000000E+00 -0.00000000000E+00 -0.45593999997E+02  0.45594000000E+02  0.51100000000E-03 0. -1.
         23    2    1    2    0    0  0.00000000000E+00 -0.13322676296E-14  0.00000000000E+00  0.91188000000E+02  0.91188000000E+02 0.  0.
    9900012    2    3    3    0    0 -0.28466435140E+02 -0.86717824970E+00  0.23338600497E+02  0.54367079305E+02  0.39999988891E+02 0.  0.
         12    1    3    3    0    0  0.28466435140E+02  0.86717824970E+00 -0.23338600497E+02  0.36820920695E+02  0.00000000000E+00 0. -1.
         11    1    4    4    0    0 -0.21066552395E+02 -0.50514747467E+01  0.15249687819E+02  0.26492829327E+02  0.51100000000E-03 0. -1.
        -11    1    4    4    0    0 -0.13882465676E+02  0.50262645525E+01 -0.29393810991E+01  0.15054107416E+02  0.51100000000E-03 0.  1.
         12    1    4    4    0    0  0.64825829308E+01 -0.84196805547E+00  0.11028293777E+02  0.12820142561E+02  0.00000000000E+00 0. -1.
</event>
<event>
 8    1  0.1244838E-006  0.9118800E+02  0.7816164E-02  0.1184000E+00
        -11   -1    0    0    0    0  0.00000000000E+00  0.00000000000E+00  0.45593999997E+02  0.45594000000E+02  0.51100000000E-03 0. -1.
         11   -1    0    0    0    0 -0.00000000000E+00 -0.00000000000E+00 -0.45593999997E+02  0.45594000000E+02  0.51100000000E-03 0.  1.
         23    2    1    2    0    0  0.00000000000E+00 -0.35527136788E-14  0.00000000000E+00  0.91188000000E+02  0.91188000000E+02 0.  0.
    9900012    2    3    3    0    0 -0.12701110976E+02  0.25584270485E+02  0.23235922257E+02  0.54367065745E+02  0.39999957978E+02 0.  0.
        -12    1    3    3    0    0  0.12701110976E+02 -0.25584270485E+02 -0.23235922257E+02  0.36820934255E+02  0.00000000000E+00 0.  1.
         11    1    4    4    0    0 -0.32169245396E+01 -0.29403627248E+01  0.58367429731E+01  0.72843603180E+01  0.51100000000E-03 0. -1.
        -11    1    4    4    0    0 -0.13905510156E+01  0.28988982566E+02  0.23165642622E+02  0.37134104818E+02  0.51100000000E-03 0.  1.
        -12    1    4    4    0    0 -0.80936354207E+01 -0.46434935576E+00 -0.57664633374E+01  0.99486006086E+01  0.00000000000E+00 0.  1.
</event>
<event>
 8    1  0.1244838E-006  0.9118800E+02  0.7816164E-02  0.1184000E+00
        -11   -1    0    0    0    0  0.00000000000E+00  0.00000000000E+00  0.45593999997E+02  0.45594000000E+02  0.51100000000E-03 0.  1.
         11   -1    0    0    0    0 -0.00000000000E+00 -0.00000000000E+00 -0.45593999997E+02  0.45594000000E+02  0.51100000000E-03 0. -1.
         23    2    1    2    0    0  0.17763568394E-14  0.00000000000E+00  0.00000000000E+00  0.91188000000E+02  0.91188000000E+02 0.  0.
    9900012    2    3    3    0    0 -0.15184894747E+02  0.77468027224E+01  0.32637174955E+02  0.54367093304E+02  0.40000020805E+02 0.  0.
         12    1    3    3    0    0  0.15184894747E+02 -0.77468027224E+01 -0.32637174955E+02  0.36820906696E+02  0.00000000000E+00 0. -1.
         11    1    4    4    0    0 -0.54381734542E+01 -0.79647153252E+01  0.36447970113E+01  0.10309945016E+02  0.51100000000E-03 0. -1.
        -11    1    4    4    0    0  0.40880747870E+01 -0.47952894834E+00 -0.33674940292E+01  0.53181124259E+01  0.51100000000E-03 0.  1.
        -12    1    4    4    0    0 -0.13834796080E+02  0.16191046996E+02  0.32359871973E+02  0.38739035862E+02  0.00000000000E+00 0.  1.
</event>
<event>
 8    1  0.1244838E-006  0.9118800E+02  0.7816164E-02  0.1184000E+00
        -11   -1    0    0    0    0  0.00000000000E+00  0.00000000000E+00  0.45593999997E+02  0.45594000000E+02  0.51100000000E-03 0.  1.
         11   -1    0    0    0    0 -0.00000000000E+00 -0.00000000000E+00 -0.45593999997E+02  0.45594000000E+02  0.51100000000E-03 0. -1.
         23    2    1    2    0    0 -0.71054273576E-14  0.17763568394E-14  0.53290705182E-14  0.91188000000E+02  0.91188000000E+02 0.  0.
    9900012    2    3    3    0    0  0.33716780000E+02 -0.10256522013E+02  0.10665950819E+02  0.54367081974E+02  0.39999994977E+02 0.  0.
         12    1    3    3    0    0 -0.33716780000E+02  0.10256522013E+02 -0.10665950819E+02  0.36820918026E+02  0.00000000000E+00 0. -1.
         11    1    4    4    0    0  0.79734616725E+01 -0.36736726522E+00 -0.83126982068E+01  0.11524408943E+02  0.51100000000E-03 0. -1.
        -11    1    4    4    0    0  0.28883170008E+02 -0.34704481618E+01  0.20434084549E+02  0.35550433637E+02  0.51100000000E-03 0.  1.
         12    1    4    4    0    0 -0.31398516804E+01 -0.64187065865E+01 -0.14554355235E+01  0.72922393941E+01  0.00000000000E+00 0. -1.
</event>
<event>
 8    1  0.1244838E-006  0.9118800E+02  0.7816164E-02  0.1184000E+00
        -11   -1    0    0    0    0  0.00000000000E+00  0.00000000000E+00  0.45593999997E+02  0.45594000000E+02  0.51100000000E-03 0. -1.
         11   -1    0    0    0    0 -0.00000000000E+00 -0.00000000000E+00 -0.45593999997E+02  0.45594000000E+02  0.51100000000E-03 0.  1.
         23    2    1    2    0    0 -0.88817841970E-15 -0.35527136788E-14  0.35527136788E-14  0.91188000000E+02  0.91188000000E+02 0.  0.
    9900012    2    3    3    0    0  0.79264069218E+01  0.23375974182E+02 -0.27322445306E+02  0.54367080496E+02  0.39999991606E+02 0.  0.
         12    1    3    3    0    0 -0.79264069218E+01 -0.23375974182E+02  0.27322445306E+02  0.36820919504E+02  0.00000000000E+00 0. -1.
         11    1    4    4    0    0  0.76988406679E+01  0.37443786714E+01 -0.40253510838E+01  0.94602310159E+01  0.51100000000E-03 0. -1.
        -11    1    4    4    0    0  0.56725899455E+01  0.27105755417E+02 -0.22396137646E+02  0.35615828435E+02  0.51100000000E-03 0.  1.
        -12    1    4    4    0    0 -0.54450236917E+01 -0.74741599058E+01 -0.90095657610E+00  0.92910210446E+01  0.00000000000E+00 0.  1.
</event>
<event>
 8    1  0.1244838E-006  0.9118800E+02  0.7816164E-02  0.1184000E+00
        -11   -1    0    0    0    0  0.00000000000E+00  0.00000000000E+00  0.45593999997E+02  0.45594000000E+02  0.51100000000E-03 0.  1.
         11   -1    0    0    0    0 -0.00000000000E+00 -0.00000000000E+00 -0.45593999997E+02  0.45594000000E+02  0.51100000000E-03 0. -1.
         23    2    1    2    0    0 -0.44408920985E-15  0.38857805862E-15  0.00000000000E+00  0.91188000000E+02  0.91188000000E+02 0.  0.
    9900012    2    3    3    0    0  0.37251083753E+01  0.19062554152E+00  0.36631503064E+02  0.54367084921E+02  0.40000001694E+02 0.  0.
         12    1    3    3    0    0 -0.37251083753E+01 -0.19062554152E+00 -0.36631503064E+02  0.36820915079E+02  0.00000000000E+00 0. -1.
         11    1    4    4    0    0 -0.28806714184E+01  0.25753281949E+01 -0.20904510531E+01  0.43932412862E+01  0.51100000000E-03 0. -1.
        -11    1    4    4    0    0 -0.95365793379E+01 -0.73015130245E+01  0.66383168614E+01  0.13723180715E+02  0.51100000000E-03 0.  1.
        -12    1    4    4    0    0  0.16142359132E+02  0.49168103712E+01  0.32083637256E+02  0.36250662920E+02  0.00000000000E+00 0.  1.
</event>
<event>
 8    1  0.1244838E-006  0.9118800E+02  0.7816164E-02  0.1184000E+00
        -11   -1    0    0    0    0  0.00000000000E+00  0.00000000000E+00  0.45593999997E+02  0.45594000000E+02  0.51100000000E-03 0.  1.
         11   -1    0    0    0    0 -0.00000000000E+00 -0.00000000000E+00 -0.45593999997E+02  0.45594000000E+02  0.51100000000E-03 0. -1.
         23    2    1    2    0    0 -0.88817841970E-15  0.00000000000E+00  0.00000000000E+00  0.91188000000E+02  0.91188000000E+02 0.  0.
    9900012    2    3    3    0    0 -0.54775329045E+01  0.82231128171E+01  0.35470505242E+02  0.54367086198E+02  0.40000004605E+02 0.  0.
         12    1    3    3    0    0  0.54775329045E+01 -0.82231128171E+01 -0.35470505242E+02  0.36820913802E+02  0.00000000000E+00 0. -1.
         11    1    4    4    0    0  0.53408813895E+01 -0.51119407681E+01 -0.21164362628E+01  0.76900100877E+01  0.51100000000E-03 0. -1.
        -11    1    4    4    0    0 -0.60052967812E+01 -0.10004907081E+01  0.28263865526E+02  0.28912119705E+02  0.51100000000E-03 0.  1.
         12    1    4    4    0    0 -0.48131175127E+01  0.14335544293E+02  0.93230759784E+01  0.17764956405E+02  0.00000000000E+00 0. -1.
</event>
<event>
 8    1  0.1244838E-006  0.9118800E+02  0.7816164E-02  0.1184000E+00
        -11   -1    0    0    0    0  0.00000000000E+00  0.00000000000E+00  0.45593999997E+02  0.45594000000E+02  0.51100000000E-03 0.  1.
         11   -1    0    0    0    0 -0.00000000000E+00 -0.00000000000E+00 -0.45593999997E+02  0.45594000000E+02  0.51100000000E-03 0. -1.
         23    2    1    2    0    0 -0.26645352591E-14  0.00000000000E+00  0.00000000000E+00  0.91188000000E+02  0.91188000000E+02 0.  0.
    9900012    2    3    3    0    0  0.60380221348E+01  0.82825462140E+01  0.35365549817E+02  0.54367076642E+02  0.39999982820E+02 0.  0.
         12    1    3    3    0    0 -0.60380221348E+01 -0.82825462140E+01 -0.35365549817E+02  0.36820923358E+02  0.00000000000E+00 0. -1.
         11    1    4    4    0    0  0.14611797126E+02 -0.56217853521E+01  0.22239072041E+02  0.27197158148E+02  0.51100000000E-03 0. -1.
        -11    1    4    4    0    0 -0.90603842101E+00  0.48703929519E+01  0.14422826729E+02  0.15249903746E+02  0.51100000000E-03 0.  1.
         12    1    4    4    0    0 -0.76677365705E+01  0.90339386142E+01 -0.12963489529E+01  0.11920014749E+02  0.00000000000E+00 0. -1.
</event>
<event>
 8    1  0.1244838E-006  0.9118800E+02  0.7816164E-02  0.1184000E+00
        -11   -1    0    0    0    0  0.00000000000E+00  0.00000000000E+00  0.45593999997E+02  0.45594000000E+02  0.51100000000E-03 0. -1.
         11   -1    0    0    0    0 -0.00000000000E+00 -0.00000000000E+00 -0.45593999997E+02  0.45594000000E+02  0.51100000000E-03 0.  1.
         23    2    1    2    0    0  0.88817841970E-15 -0.88817841970E-15 -0.71054273576E-14  0.91188000000E+02  0.91188000000E+02 0.  0.
    9900012    2    3    3    0    0  0.78713963573E+01 -0.48951824097E+01  0.35635077232E+02  0.54367076318E+02  0.39999982083E+02 0.  0.
        -12    1    3    3    0    0 -0.78713963573E+01  0.48951824097E+01 -0.35635077232E+02  0.36820923682E+02  0.00000000000E+00 0.  1.
         11    1    4    4    0    0 -0.17781385545E+01  0.35276983811E+01 -0.38457007737E+01  0.55132429014E+01  0.51100000000E-03 0. -1.
        -11    1    4    4    0    0  0.11706212152E+02 -0.80854321223E+01  0.62191813880E+01  0.15527003348E+02  0.51100000000E-03 0.  1.
         12    1    4    4    0    0 -0.20566772407E+01 -0.33744866849E+00  0.33261596618E+02  0.33326830069E+02  0.00000000000E+00 0. -1.
</event>
<event>
 8    1  0.1244838E-006  0.9118800E+02  0.7816164E-02  0.1184000E+00
        -11   -1    0    0    0    0  0.00000000000E+00  0.00000000000E+00  0.45593999997E+02  0.45594000000E+02  0.51100000000E-03 0. -1.
         11   -1    0    0    0    0 -0.00000000000E+00 -0.00000000000E+00 -0.45593999997E+02  0.45594000000E+02  0.51100000000E-03 0.  1.
         23    2    1    2    0    0  0.00000000000E+00  0.00000000000E+00 -0.35527136788E-14  0.91188000000E+02  0.91188000000E+02 0.  0.
    9900012    2    3    3    0    0  0.16845816587E+02 -0.17653816104E+02 -0.27574279003E+02  0.54367087164E+02  0.40000006808E+02 0.  0.
         12    1    3    3    0    0 -0.16845816587E+02  0.17653816104E+02  0.27574279003E+02  0.36820912836E+02  0.00000000000E+00 0. -1.
         11    1    4    4    0    0 -0.80307612803E+01 -0.15698148241E+02 -0.11505002766E+02  0.21054454965E+02  0.51100000000E-03 0. -1.
        -11    1    4    4    0    0  0.89723785632E+01  0.59778537812E+01 -0.94827459582E+01  0.14358300181E+02  0.51100000000E-03 0.  1.
         12    1    4    4    0    0  0.15904199304E+02 -0.79335216434E+01 -0.65865302791E+01  0.18954332019E+02  0.00000000000E+00 0. -1.
</event>
<event>
 8    1  0.1244838E-006  0.9118800E+02  0.7816164E-02  0.1184000E+00
        -11   -1    0    0    0    0  0.00000000000E+00  0.00000000000E+00  0.45593999997E+02  0.45594000000E+02  0.51100000000E-03 0.  1.
         11   -1    0    0    0    0 -0.00000000000E+00 -0.00000000000E+00 -0.45593999997E+02  0.45594000000E+02  0.51100000000E-03 0. -1.
         23    2    1    2    0    0  0.00000000000E+00  0.00000000000E+00 -0.35527136788E-14  0.91188000000E+02  0.91188000000E+02 0.  0.
    9900012    2    3    3    0    0 -0.10640448000E+02 -0.32360254430E+02  0.13977544685E+02  0.54367123370E+02  0.40000089346E+02 0.  0.
         12    1    3    3    0    0  0.10640448000E+02  0.32360254430E+02 -0.13977544685E+02  0.36820876630E+02  0.00000000000E+00 0. -1.
         11    1    4    4    0    0 -0.91525468332E+01 -0.13439007973E+02 -0.34565259766E+01  0.16622984718E+02  0.51100000000E-03 0. -1.
        -11    1    4    4    0    0 -0.14089394528E+02 -0.56693953432E+01  0.76882051741E+01  0.17022384697E+02  0.51100000000E-03 0.  1.
        -12    1    4    4    0    0  0.12601493361E+02 -0.13251851114E+02  0.97458654871E+01  0.20721753955E+02  0.00000000000E+00 0.  1.
</event>
<event>
 8    1  0.1244838E-006  0.9118800E+02  0.7816164E-02  0.1184000E+00
        -11   -1    0    0    0    0  0.00000000000E+00  0.00000000000E+00  0.45593999997E+02  0.45594000000E+02  0.51100000000E-03 0. -1.
         11   -1    0    0    0    0 -0.00000000000E+00 -0.00000000000E+00 -0.45593999997E+02  0.45594000000E+02  0.51100000000E-03 0.  1.
         23    2    1    2    0    0  0.00000000000E+00  0.00000000000E+00  0.00000000000E+00  0.91188000000E+02  0.91188000000E+02 0.  0.
    9900012    2    3    3    0    0  0.99371213461E+01  0.13757303208E+02 -0.32676890480E+02  0.54366960585E+02  0.39999718244E+02 0.  0.
         12    1    3    3    0    0 -0.99371213461E+01 -0.13757303208E+02  0.32676890480E+02  0.36821039415E+02  0.00000000000E+00 0. -1.
         11    1    4    4    0    0  0.12301298769E+01  0.78855574546E+01  0.19657196640E+01  0.82194458416E+01  0.51100000000E-03 0. -1.
        -11    1    4    4    0    0  0.19240963246E+02  0.33289739251E+01 -0.24231851689E+02  0.31120401195E+02  0.51100000000E-03 0.  1.
        -12    1    4    4    0    0 -0.10533971777E+02  0.25427718280E+01 -0.10410758455E+02  0.15027113548E+02  0.00000000000E+00 0.  1.
</event>
<event>
 8    1  0.1244838E-006  0.9118800E+02  0.7816164E-02  0.1184000E+00
        -11   -1    0    0    0    0  0.00000000000E+00  0.00000000000E+00  0.45593999997E+02  0.45594000000E+02  0.51100000000E-03 0. -1.
         11   -1    0    0    0    0 -0.00000000000E+00 -0.00000000000E+00 -0.45593999997E+02  0.45594000000E+02  0.51100000000E-03 0.  1.
         23    2    1    2    0    0  0.17763568394E-14  0.00000000000E+00  0.00000000000E+00  0.91188000000E+02  0.91188000000E+02 0.  0.
    9900012    2    3    3    0    0 -0.99877363762E+01  0.31994264253E+02  0.15244416780E+02  0.54367081137E+02  0.39999993067E+02 0.  0.
        -12    1    3    3    0    0  0.99877363762E+01 -0.31994264253E+02 -0.15244416780E+02  0.36820918863E+02  0.00000000000E+00 0.  1.
         11    1    4    4    0    0  0.96813428213E+01  0.36237871457E+01  0.97110152634E+01  0.14183231289E+02  0.51100000000E-03 0. -1.
        -11    1    4    4    0    0 -0.81879480486E+01  0.64212615205E+00  0.59961235590E+01  0.10168988014E+02  0.51100000000E-03 0.  1.
         12    1    4    4    0    0 -0.11481131149E+02  0.27728350955E+02 -0.46272204279E+00  0.30014861833E+02  0.00000000000E+00 0. -1.
</event>
<event>
 8    1  0.1244838E-006  0.9118800E+02  0.7816164E-02  0.1184000E+00
        -11   -1    0    0    0    0  0.00000000000E+00  0.00000000000E+00  0.45593999997E+02  0.45594000000E+02  0.51100000000E-03 0. -1.
         11   -1    0    0    0    0 -0.00000000000E+00 -0.00000000000E+00 -0.45593999997E+02  0.45594000000E+02  0.51100000000E-03 0.  1.
         23    2    1    2    0    0  0.00000000000E+00  0.17763568394E-14  0.00000000000E+00  0.91188000000E+02  0.91188000000E+02 0.  0.
    9900012    2    3    3    0    0 -0.25059262127E+02  0.11010209977E+02  0.24629070751E+02  0.54367048516E+02  0.39999918703E+02 0.  0.
        -12    1    3    3    0    0  0.25059262127E+02 -0.11010209977E+02 -0.24629070751E+02  0.36820951484E+02  0.00000000000E+00 0.  1.
         11    1    4    4    0    0 -0.61791170100E+01  0.88227815045E+00 -0.11319134350E+00  0.62428130118E+01  0.51100000000E-03 0. -1.
        -11    1    4    4    0    0 -0.24905096162E+02 -0.43580559823E+01  0.12389672571E+02  0.28156002086E+02  0.51100000000E-03 0.  1.
        -12    1    4    4    0    0  0.60249510455E+01  0.14485987809E+02  0.12352589524E+02  0.19968233419E+02  0.00000000000E+00 0.  1.
</event>
<event>
 8    1  0.1244838E-006  0.9118800E+02  0.7816164E-02  0.1184000E+00
        -11   -1    0    0    0    0  0.00000000000E+00  0.00000000000E+00  0.45593999997E+02  0.45594000000E+02  0.51100000000E-03 0.  1.
         11   -1    0    0    0    0 -0.00000000000E+00 -0.00000000000E+00 -0.45593999997E+02  0.45594000000E+02  0.51100000000E-03 0. -1.
         23    2    1    2    0    0  0.35527136788E-14  0.00000000000E+00 -0.22204460493E-14  0.91188000000E+02  0.91188000000E+02 0.  0.
    9900012    2    3    3    0    0  0.22784212851E+02 -0.28856702864E+02 -0.19876287925E+01  0.54367077637E+02  0.39999985090E+02 0.  0.
        -12    1    3    3    0    0 -0.22784212851E+02  0.28856702864E+02  0.19876287925E+01  0.36820922363E+02  0.00000000000E+00 0.  1.
         11    1    4    4    0    0  0.21209398483E+01 -0.25867079392E+02  0.10883821383E+02  0.28143591637E+02  0.51100000000E-03 0. -1.
        -11    1    4    4    0    0  0.13635147997E+02 -0.18403853773E+01 -0.30515587845E+01  0.14093129195E+02  0.51100000000E-03 0.  1.
         12    1    4    4    0    0  0.70281250058E+01 -0.11492380953E+01 -0.98198913906E+01  0.12130356805E+02  0.00000000000E+00 0. -1.
</event>
<event>
 8    1  0.1244838E-006  0.9118800E+02  0.7816164E-02  0.1184000E+00
        -11   -1    0    0    0    0  0.00000000000E+00  0.00000000000E+00  0.45593999997E+02  0.45594000000E+02  0.51100000000E-03 0. -1.
         11   -1    0    0    0    0 -0.00000000000E+00 -0.00000000000E+00 -0.45593999997E+02  0.45594000000E+02  0.51100000000E-03 0.  1.
         23    2    1    2    0    0  0.00000000000E+00 -0.35527136788E-14 -0.35527136788E-14  0.91188000000E+02  0.91188000000E+02 0.  0.
    9900012    2    3    3    0    0  0.42517425686E+01  0.31531170725E+02 -0.18533425507E+02  0.54367083347E+02  0.39999998106E+02 0.  0.
        -12    1    3    3    0    0 -0.42517425686E+01 -0.31531170725E+02  0.18533425507E+02  0.36820916653E+02  0.00000000000E+00 0.  1.
         11    1    4    4    0    0  0.44885551275E+01  0.13418744451E+01 -0.42815197807E+01  0.63465869609E+01  0.51100000000E-03 0. -1.
        -11    1    4    4    0    0  0.10155569888E+02 -0.32605196106E+01 -0.50711782556E+01  0.11810310624E+02  0.51100000000E-03 0.  1.
         12    1    4    4    0    0 -0.10392382447E+02  0.33449815890E+02 -0.91807274706E+01  0.36210185762E+02  0.00000000000E+00 0. -1.
</event>
<event>
 8    1  0.1244838E-006  0.9118800E+02  0.7816164E-02  0.1184000E+00
        -11   -1    0    0    0    0  0.00000000000E+00  0.00000000000E+00  0.45593999997E+02  0.45594000000E+02  0.51100000000E-03 0. -1.
         11   -1    0    0    0    0 -0.00000000000E+00 -0.00000000000E+00 -0.45593999997E+02  0.45594000000E+02  0.51100000000E-03 0.  1.
         23    2    1    2    0    0  0.35527136788E-14  0.00000000000E+00 -0.35527136788E-14  0.91188000000E+02  0.91188000000E+02 0.  0.
    9900012    2    3    3    0    0 -0.19331287764E+02 -0.25094661647E+02 -0.18770706654E+02  0.54367079885E+02  0.39999990215E+02 0.  0.
         12    1    3    3    0    0  0.19331287764E+02  0.25094661647E+02  0.18770706654E+02  0.36820920115E+02  0.00000000000E+00 0. -1.
         11    1    4    4    0    0 -0.24852924659E+02 -0.16987850216E+02 -0.19245302158E+02  0.35730051420E+02  0.51100000000E-03 0. -1.
        -11    1    4    4    0    0  0.31718779565E+01  0.14120338343E+01 -0.59684873404E+01  0.69048888994E+01  0.51100000000E-03 0.  1.
         12    1    4    4    0    0  0.23497589383E+01 -0.95188452651E+01  0.64430828447E+01  0.11732139566E+02  0.00000000000E+00 0. -1.
</event>
<event>
 8    1  0.1244838E-006  0.9118800E+02  0.7816164E-02  0.1184000E+00
        -11   -1    0    0    0    0  0.00000000000E+00  0.00000000000E+00  0.45593999997E+02  0.45594000000E+02  0.51100000000E-03 0. -1.
         11   -1    0    0    0    0 -0.00000000000E+00 -0.00000000000E+00 -0.45593999997E+02  0.45594000000E+02  0.51100000000E-03 0.  1.
         23    2    1    2    0    0  0.00000000000E+00 -0.71054273576E-14  0.17763568394E-14  0.91188000000E+02  0.91188000000E+02 0.  0.
    9900012    2    3    3    0    0 -0.21036386604E+02 -0.27251496443E+02  0.13061635077E+02  0.54367082974E+02  0.39999997255E+02 0.  0.
         12    1    3    3    0    0  0.21036386604E+02  0.27251496443E+02 -0.13061635077E+02  0.36820917026E+02  0.00000000000E+00 0. -1.
         11    1    4    4    0    0 -0.16132332753E+02 -0.29744852949E+01 -0.10068939805E+02  0.19247942017E+02  0.51100000000E-03 0.  1.
        -11    1    4    4    0    0  0.63116188472E+00 -0.82947623187E+01  0.30396369202E+01  0.88566833587E+01  0.51100000000E-03 0. -1.
         12    1    4    4    0    0 -0.55352157354E+01 -0.15982248830E+02  0.20090937962E+02  0.26262457598E+02  0.00000000000E+00 0. -1.
</event>
<event>
 8    1  0.1244838E-006  0.9118800E+02  0.7816164E-02  0.1184000E+00
        -11   -1    0    0    0    0  0.00000000000E+00  0.00000000000E+00  0.45593999997E+02  0.45594000000E+02  0.51100000000E-03 0. -1.
         11   -1    0    0    0    0 -0.00000000000E+00 -0.00000000000E+00 -0.45593999997E+02  0.45594000000E+02  0.51100000000E-03 0.  1.
         23    2    1    2    0    0  0.00000000000E+00  0.00000000000E+00  0.17763568394E-14  0.91188000000E+02  0.91188000000E+02 0.  0.
    9900012    2    3    3    0    0 -0.29177688280E+02 -0.17129457593E+02  0.14526691078E+02  0.54367074367E+02  0.39999977635E+02 0.  0.
         12    1    3    3    0    0  0.29177688280E+02  0.17129457593E+02 -0.14526691078E+02  0.36820925633E+02  0.00000000000E+00 0. -1.
         11    1    4    4    0    0 -0.30474531013E+02  0.67787057948E+00  0.32264224510E+01  0.30652346583E+02  0.51100000000E-03 0. -1.
        -11    1    4    4    0    0 -0.45259312274E+01 -0.47963008019E+01  0.35307773077E+01  0.74803037047E+01  0.51100000000E-03 0.  1.
         12    1    4    4    0    0  0.58227739600E+01 -0.13011027370E+02  0.77694913189E+01  0.16234424079E+02  0.00000000000E+00 0. -1.
</event>
<event>
 8    1  0.1244838E-006  0.9118800E+02  0.7816164E-02  0.1184000E+00
        -11   -1    0    0    0    0  0.00000000000E+00  0.00000000000E+00  0.45593999997E+02  0.45594000000E+02  0.51100000000E-03 0.  1.
         11   -1    0    0    0    0 -0.00000000000E+00 -0.00000000000E+00 -0.45593999997E+02  0.45594000000E+02  0.51100000000E-03 0. -1.
         23    2    1    2    0    0 -0.35527136788E-14  0.00000000000E+00  0.00000000000E+00  0.91188000000E+02  0.91188000000E+02 0.  0.
    9900012    2    3    3    0    0  0.29632244412E+02 -0.86990515966E+01 -0.20050442876E+02  0.54367303821E+02  0.40000500717E+02 0.  0.
         12    1    3    3    0    0 -0.29632244412E+02  0.86990515966E+01  0.20050442876E+02  0.36820696179E+02  0.00000000000E+00 0. -1.
         11    1    4    4    0    0  0.16191603080E+02  0.10237104461E+02 -0.17470842175E+02  0.25926755382E+02  0.51100000000E-03 0.  1.
        -11    1    4    4    0    0  0.34819006609E+01  0.22603575347E+01 -0.28224724403E+01  0.50198804104E+01  0.51100000000E-03 0. -1.
        -12    1    4    4    0    0  0.99587406710E+01 -0.21196513593E+02  0.24287173841E+00  0.23420668029E+02  0.00000000000E+00 0.  1.
</event>
<event>
 8    1  0.1244838E-006  0.9118800E+02  0.7816164E-02  0.1184000E+00
        -11   -1    0    0    0    0  0.00000000000E+00  0.00000000000E+00  0.45593999997E+02  0.45594000000E+02  0.51100000000E-03 0. -1.
         11   -1    0    0    0    0 -0.00000000000E+00 -0.00000000000E+00 -0.45593999997E+02  0.45594000000E+02  0.51100000000E-03 0.  1.
         23    2    1    2    0    0  0.17763568394E-14  0.00000000000E+00  0.00000000000E+00  0.91188000000E+02  0.91188000000E+02 0.  0.
    9900012    2    3    3    0    0 -0.14184753574E+02  0.32121377564E+02 -0.11081050913E+02  0.54367084478E+02  0.40000000683E+02 0.  0.
        -12    1    3    3    0    0  0.14184753574E+02 -0.32121377564E+02  0.11081050913E+02  0.36820915522E+02  0.00000000000E+00 0.  1.
         11    1    4    4    0    0  0.77543171515E+01 -0.20806048029E+01  0.35399390316E+00  0.80363961311E+01  0.51100000000E-03 0. -1.
        -11    1    4    4    0    0 -0.14891986135E+02  0.30077981706E+02 -0.15773570924E+02  0.37084522034E+02  0.51100000000E-03 0.  1.
        -12    1    4    4    0    0 -0.70470845911E+01  0.41240006607E+01  0.43385261078E+01  0.92461663121E+01  0.00000000000E+00 0.  1.
</event>
<event>
 8    1  0.1244838E-006  0.9118800E+02  0.7816164E-02  0.1184000E+00
        -11   -1    0    0    0    0  0.00000000000E+00  0.00000000000E+00  0.45593999997E+02  0.45594000000E+02  0.51100000000E-03 0. -1.
         11   -1    0    0    0    0 -0.00000000000E+00 -0.00000000000E+00 -0.45593999997E+02  0.45594000000E+02  0.51100000000E-03 0.  1.
         23    2    1    2    0    0  0.00000000000E+00  0.00000000000E+00  0.00000000000E+00  0.91188000000E+02  0.91188000000E+02 0.  0.
    9900012    2    3    3    0    0 -0.26579604178E+02 -0.23630438314E+02 -0.95345935303E+01  0.54367062383E+02  0.39999950316E+02 0.  0.
         12    1    3    3    0    0  0.26579604178E+02  0.23630438314E+02  0.95345935303E+01  0.36820937617E+02  0.00000000000E+00 0. -1.
         11    1    4    4    0    0 -0.13060915265E+02 -0.43211007847E+01 -0.47837301914E+01  0.14565146561E+02  0.51100000000E-03 0.  1.
        -11    1    4    4    0    0 -0.63658418545E+01  0.83948569170E+01 -0.37121327830E+01  0.11170384740E+02  0.51100000000E-03 0. -1.
        -12    1    4    4    0    0 -0.71528470587E+01 -0.27704194446E+02 -0.10387305558E+01  0.28631531082E+02  0.00000000000E+00 0.  1.
</event>
<event>
 8    1  0.1244838E-006  0.9118800E+02  0.7816164E-02  0.1184000E+00
        -11   -1    0    0    0    0  0.00000000000E+00  0.00000000000E+00  0.45593999997E+02  0.45594000000E+02  0.51100000000E-03 0. -1.
         11   -1    0    0    0    0 -0.00000000000E+00 -0.00000000000E+00 -0.45593999997E+02  0.45594000000E+02  0.51100000000E-03 0.  1.
         23    2    1    2    0    0  0.00000000000E+00  0.00000000000E+00  0.00000000000E+00  0.91188000000E+02  0.91188000000E+02 0.  0.
    9900012    2    3    3    0    0  0.13376420565E+02  0.31335879518E+02 -0.13961139518E+02  0.54367090330E+02  0.40000014026E+02 0.  0.
         12    1    3    3    0    0 -0.13376420565E+02 -0.31335879518E+02  0.13961139518E+02  0.36820909670E+02  0.00000000000E+00 0. -1.
         11    1    4    4    0    0 -0.66962066975E+01  0.79857412652E+01  0.27701304620E+01  0.10783546296E+02  0.51100000000E-03 0. -1.
        -11    1    4    4    0    0 -0.48889645145E+01 -0.51664991436E+00 -0.52429403379E+01  0.71873030273E+01  0.51100000000E-03 0.  1.
        -12    1    4    4    0    0  0.24961591777E+02  0.23866788167E+02 -0.11488329642E+02  0.36396241006E+02  0.00000000000E+00 0.  1.
</event>
<event>
 8    1  0.1244838E-006  0.9118800E+02  0.7816164E-02  0.1184000E+00
        -11   -1    0    0    0    0  0.00000000000E+00  0.00000000000E+00  0.45593999997E+02  0.45594000000E+02  0.51100000000E-03 0. -1.
         11   -1    0    0    0    0 -0.00000000000E+00 -0.00000000000E+00 -0.45593999997E+02  0.45594000000E+02  0.51100000000E-03 0.  1.
         23    2    1    2    0    0  0.17763568394E-14  0.00000000000E+00  0.35527136788E-14  0.91188000000E+02  0.91188000000E+02 0.  0.
    9900012    2    3    3    0    0 -0.15874724373E+02  0.10639538385E+02 -0.31473377498E+02  0.54367080103E+02  0.39999990710E+02 0.  0.
         12    1    3    3    0    0  0.15874724373E+02 -0.10639538385E+02  0.31473377498E+02  0.36820919897E+02  0.00000000000E+00 0. -1.
         11    1    4    4    0    0 -0.19924137875E+02  0.44186471228E+00 -0.54985879278E+01  0.20673678530E+02  0.51100000000E-03 0. -1.
        -11    1    4    4    0    0 -0.66089111016E+01  0.67977612021E+01 -0.74720383916E+01  0.12071396825E+02  0.51100000000E-03 0.  1.
         12    1    4    4    0    0  0.10658324604E+02  0.33999124707E+01 -0.18502751178E+02  0.21622004748E+02  0.00000000000E+00 0. -1.
</event>
<event>
 8    1  0.1244838E-006  0.9118800E+02  0.7816164E-02  0.1184000E+00
        -11   -1    0    0    0    0  0.00000000000E+00  0.00000000000E+00  0.45593999997E+02  0.45594000000E+02  0.51100000000E-03 0.  1.
         11   -1    0    0    0    0 -0.00000000000E+00 -0.00000000000E+00 -0.45593999997E+02  0.45594000000E+02  0.51100000000E-03 0. -1.
         23    2    1    2    0    0 -0.17763568394E-14  0.35527136788E-14  0.00000000000E+00  0.91188000000E+02  0.91188000000E+02 0.  0.
    9900012    2    3    3    0    0 -0.12614722519E+02  0.14846303189E+02  0.31244782487E+02  0.54367076936E+02  0.39999983491E+02 0.  0.
         12    1    3    3    0    0  0.12614722519E+02 -0.14846303189E+02 -0.31244782487E+02  0.36820923064E+02  0.00000000000E+00 0. -1.
         11    1    4    4    0    0 -0.71996502977E+01 -0.41844192032E+01 -0.10365274789E+01  0.83915861405E+01  0.51100000000E-03 0. -1.
        -11    1    4    4    0    0 -0.60345913225E+01 -0.32440622803E+01  0.18613446060E+02  0.19834329003E+02  0.51100000000E-03 0.  1.
        -12    1    4    4    0    0  0.61951910091E+00  0.22274784672E+02  0.13667863906E+02  0.26141161792E+02  0.00000000000E+00 0.  1.
</event>
<event>
 8    1  0.1244838E-006  0.9118800E+02  0.7816164E-02  0.1184000E+00
        -11   -1    0    0    0    0  0.00000000000E+00  0.00000000000E+00  0.45593999997E+02  0.45594000000E+02  0.51100000000E-03 0.  1.
         11   -1    0    0    0    0 -0.00000000000E+00 -0.00000000000E+00 -0.45593999997E+02  0.45594000000E+02  0.51100000000E-03 0. -1.
         23    2    1    2    0    0  0.00000000000E+00  0.35527136788E-14  0.35527136788E-14  0.91188000000E+02  0.91188000000E+02 0.  0.
    9900012    2    3    3    0    0 -0.21227730530E+01 -0.20921942848E+02  0.30224909831E+02  0.54367095173E+02  0.40000025065E+02 0.  0.
         12    1    3    3    0    0  0.21227730530E+01  0.20921942848E+02 -0.30224909831E+02  0.36820904827E+02  0.00000000000E+00 0. -1.
         11    1    4    4    0    0 -0.21081895656E+01 -0.49305157650E+01 -0.64717497929E+01  0.84046412533E+01  0.51100000000E-03 0. -1.
        -11    1    4    4    0    0 -0.10874563981E+02 -0.10281578775E+02  0.16045654098E+02  0.21941513612E+02  0.51100000000E-03 0.  1.
        -12    1    4    4    0    0  0.10859980493E+02 -0.57098483085E+01  0.20651005526E+02  0.24020940308E+02  0.00000000000E+00 0.  1.
</event>
<event>
 8    1  0.1244838E-006  0.9118800E+02  0.7816164E-02  0.1184000E+00
        -11   -1    0    0    0    0  0.00000000000E+00  0.00000000000E+00  0.45593999997E+02  0.45594000000E+02  0.51100000000E-03 0.  1.
         11   -1    0    0    0    0 -0.00000000000E+00 -0.00000000000E+00 -0.45593999997E+02  0.45594000000E+02  0.51100000000E-03 0. -1.
         23    2    1    2    0    0 -0.17763568394E-14 -0.35527136788E-14  0.00000000000E+00  0.91188000000E+02  0.91188000000E+02 0.  0.
    9900012    2    3    3    0    0 -0.13272132948E+02 -0.25506753000E+02  0.23000801584E+02  0.54367070692E+02  0.39999969256E+02 0.  0.
         12    1    3    3    0    0  0.13272132948E+02  0.25506753000E+02 -0.23000801584E+02  0.36820929308E+02  0.00000000000E+00 0. -1.
         11    1    4    4    0    0 -0.83698093860E+00 -0.17856803861E+02 -0.40481530873E+01  0.18329035024E+02  0.51100000000E-03 0. -1.
        -11    1    4    4    0    0  0.30633755499E+01 -0.86151458443E+00  0.14829145695E+02  0.15166741227E+02  0.51100000000E-03 0.  1.
         12    1    4    4    0    0 -0.15498527560E+02 -0.67884345542E+01  0.12219808977E+02  0.20871294441E+02  0.00000000000E+00 0. -1.
</event>
<event>
 8    1  0.1244838E-006  0.9118800E+02  0.7816164E-02  0.1184000E+00
        -11   -1    0    0    0    0  0.00000000000E+00  0.00000000000E+00  0.45593999997E+02  0.45594000000E+02  0.51100000000E-03 0.  1.
         11   -1    0    0    0    0 -0.00000000000E+00 -0.00000000000E+00 -0.45593999997E+02  0.45594000000E+02  0.51100000000E-03 0. -1.
         23    2    1    2    0    0  0.88817841970E-15 -0.17763568394E-14  0.71054273576E-14  0.91188000000E+02  0.91188000000E+02 0.  0.
    9900012    2    3    3    0    0 -0.36697401650E+01  0.15620502019E+02 -0.33140792059E+02  0.54367093242E+02  0.40000020663E+02 0.  0.
        -12    1    3    3    0    0  0.36697401650E+01 -0.15620502019E+02  0.33140792059E+02  0.36820906758E+02  0.00000000000E+00 0.  1.
         11    1    4    4    0    0 -0.85646885953E+01  0.62570117021E+01 -0.14021671810E+01  0.10699072822E+02  0.51100000000E-03 0. -1.
        -11    1    4    4    0    0  0.78624924990E+01 -0.42907806648E+01  0.35545014530E-01  0.89571675612E+01  0.51100000000E-03 0.  1.
         12    1    4    4    0    0 -0.29675440686E+01  0.13654270981E+02 -0.31774169893E+02  0.34710852859E+02  0.00000000000E+00 0. -1.
</event>
<event>
 8    1  0.1244838E-006  0.9118800E+02  0.7816164E-02  0.1184000E+00
        -11   -1    0    0    0    0  0.00000000000E+00  0.00000000000E+00  0.45593999997E+02  0.45594000000E+02  0.51100000000E-03 0.  1.
         11   -1    0    0    0    0 -0.00000000000E+00 -0.00000000000E+00 -0.45593999997E+02  0.45594000000E+02  0.51100000000E-03 0. -1.
         23    2    1    2    0    0  0.00000000000E+00  0.00000000000E+00  0.17763568394E-14  0.91188000000E+02  0.91188000000E+02 0.  0.
    9900012    2    3    3    0    0  0.35629576303E+02 -0.55506526905E+01  0.74501514532E+01  0.54367065608E+02  0.39999957666E+02 0.  0.
         12    1    3    3    0    0 -0.35629576303E+02  0.55506526905E+01 -0.74501514532E+01  0.36820934392E+02  0.00000000000E+00 0. -1.
         11    1    4    4    0    0  0.30070966608E+02  0.20248315043E+01 -0.80327046832E+01  0.31191141694E+02  0.51100000000E-03 0. -1.
        -11    1    4    4    0    0  0.38280592220E+01  0.11934439393E+01 -0.12545660902E+01  0.42014619098E+01  0.51100000000E-03 0.  1.
         12    1    4    4    0    0  0.17305504731E+01 -0.87689281342E+01  0.16737422227E+02  0.18974462004E+02  0.00000000000E+00 0. -1.
</event>
<event>
 8    1  0.1244838E-006  0.9118800E+02  0.7816164E-02  0.1184000E+00
        -11   -1    0    0    0    0  0.00000000000E+00  0.00000000000E+00  0.45593999997E+02  0.45594000000E+02  0.51100000000E-03 0. -1.
         11   -1    0    0    0    0 -0.00000000000E+00 -0.00000000000E+00 -0.45593999997E+02  0.45594000000E+02  0.51100000000E-03 0.  1.
         23    2    1    2    0    0  0.00000000000E+00  0.35527136788E-14 -0.35527136788E-14  0.91188000000E+02  0.91188000000E+02 0.  0.
    9900012    2    3    3    0    0  0.11550873997E+02 -0.25365110573E+02 -0.24061751191E+02  0.54367090249E+02  0.40000013841E+02 0.  0.
        -12    1    3    3    0    0 -0.11550873997E+02  0.25365110573E+02  0.24061751191E+02  0.36820909751E+02  0.00000000000E+00 0.  1.
         11    1    4    4    0    0  0.33393913176E+01  0.24121052396E+01  0.67429302149E+01  0.79017019814E+01  0.51100000000E-03 0. -1.
        -11    1    4    4    0    0  0.10802448665E+01 -0.48866190610E+01 -0.19176254164E+02  0.19818544317E+02  0.51100000000E-03 0.  1.
         12    1    4    4    0    0  0.71312378133E+01 -0.22890596752E+02 -0.11628427242E+02  0.26646843951E+02  0.00000000000E+00 0. -1.
</event>
<event>
 8    1  0.1244838E-006  0.9118800E+02  0.7816164E-02  0.1184000E+00
        -11   -1    0    0    0    0  0.00000000000E+00  0.00000000000E+00  0.45593999997E+02  0.45594000000E+02  0.51100000000E-03 0.  1.
         11   -1    0    0    0    0 -0.00000000000E+00 -0.00000000000E+00 -0.45593999997E+02  0.45594000000E+02  0.51100000000E-03 0. -1.
         23    2    1    2    0    0  0.00000000000E+00  0.00000000000E+00 -0.35527136788E-14  0.91188000000E+02  0.91188000000E+02 0.  0.
    9900012    2    3    3    0    0 -0.87531933563E+01 -0.24697183018E+02 -0.25869033232E+02  0.54367134675E+02  0.40000115118E+02 0.  0.
        -12    1    3    3    0    0  0.87531933563E+01  0.24697183018E+02  0.25869033232E+02  0.36820865325E+02  0.00000000000E+00 0.  1.
         11    1    4    4    0    0 -0.89711540012E+01 -0.35061919452E+01 -0.49115904982E+01  0.10811970568E+02  0.51100000000E-03 0. -1.
        -11    1    4    4    0    0 -0.70141954463E+01 -0.65611244196E+00  0.57534306450E+01  0.90956795097E+01  0.51100000000E-03 0.  1.
         12    1    4    4    0    0  0.72321560912E+01 -0.20534878631E+02 -0.26710873378E+02  0.34459484598E+02  0.00000000000E+00 0. -1.
</event>
<event>
 8    1  0.1244838E-006  0.9118800E+02  0.7816164E-02  0.1184000E+00
        -11   -1    0    0    0    0  0.00000000000E+00  0.00000000000E+00  0.45593999997E+02  0.45594000000E+02  0.51100000000E-03 0.  1.
         11   -1    0    0    0    0 -0.00000000000E+00 -0.00000000000E+00 -0.45593999997E+02  0.45594000000E+02  0.51100000000E-03 0. -1.
         23    2    1    2    0    0  0.00000000000E+00 -0.17763568394E-14  0.00000000000E+00  0.91188000000E+02  0.91188000000E+02 0.  0.
    9900012    2    3    3    0    0 -0.56928056236E+01 -0.12323162290E+02 -0.34227362013E+02  0.54367072865E+02  0.39999974210E+02 0.  0.
        -12    1    3    3    0    0  0.56928056236E+01  0.12323162290E+02  0.34227362013E+02  0.36820927135E+02  0.00000000000E+00 0.  1.
         11    1    4    4    0    0 -0.95700514115E+01 -0.26379379165E+01 -0.11434155780E+02  0.15142143809E+02  0.51100000000E-03 0. -1.
        -11    1    4    4    0    0  0.10383736394E+02  0.19784940853E+01  0.22825572766E+01  0.10814179965E+02  0.51100000000E-03 0.  1.
         12    1    4    4    0    0 -0.65064906057E+01 -0.11663718459E+02 -0.25075763510E+02  0.28410749091E+02  0.00000000000E+00 0. -1.
</event>
<event>
 8    1  0.1244838E-006  0.9118800E+02  0.7816164E-02  0.1184000E+00
        -11   -1    0    0    0    0  0.00000000000E+00  0.00000000000E+00  0.45593999997E+02  0.45594000000E+02  0.51100000000E-03 0. -1.
         11   -1    0    0    0    0 -0.00000000000E+00 -0.00000000000E+00 -0.45593999997E+02  0.45594000000E+02  0.51100000000E-03 0.  1.
         23    2    1    2    0    0  0.00000000000E+00  0.00000000000E+00  0.00000000000E+00  0.91188000000E+02  0.91188000000E+02 0.  0.
    9900012    2    3    3    0    0  0.12073058902E+02  0.15117743598E+02  0.31328651253E+02  0.54366955581E+02  0.39999706837E+02 0.  0.
        -12    1    3    3    0    0 -0.12073058902E+02 -0.15117743598E+02 -0.31328651253E+02  0.36821044419E+02  0.00000000000E+00 0.  1.
         11    1    4    4    0    0  0.10140977356E+02  0.43670152495E+01  0.14186416991E+02  0.17976781449E+02  0.51100000000E-03 0. -1.
        -11    1    4    4    0    0  0.12828801466E+01  0.85954976853E+01 -0.76004277840E+01  0.11545339522E+02  0.51100000000E-03 0.  1.
        -12    1    4    4    0    0  0.64920139897E+00  0.21552306634E+01  0.24742662046E+02  0.24844834610E+02  0.00000000000E+00 0.  1.
</event>
<event>
 8    1  0.1244838E-006  0.9118800E+02  0.7816164E-02  0.1184000E+00
        -11   -1    0    0    0    0  0.00000000000E+00  0.00000000000E+00  0.45593999997E+02  0.45594000000E+02  0.51100000000E-03 0.  1.
         11   -1    0    0    0    0 -0.00000000000E+00 -0.00000000000E+00 -0.45593999997E+02  0.45594000000E+02  0.51100000000E-03 0. -1.
         23    2    1    2    0    0  0.71054273576E-14  0.00000000000E+00 -0.17763568394E-14  0.91188000000E+02  0.91188000000E+02 0.  0.
    9900012    2    3    3    0    0  0.27157230054E+02 -0.21608452921E+02 -0.12301982194E+02  0.54367093605E+02  0.40000021492E+02 0.  0.
        -12    1    3    3    0    0 -0.27157230054E+02  0.21608452921E+02  0.12301982194E+02  0.36820906395E+02  0.00000000000E+00 0.  1.
         11    1    4    4    0    0  0.22467290638E+01 -0.11947639895E+02 -0.38909560836E+01  0.12764537988E+02  0.51100000000E-03 0. -1.
        -11    1    4    4    0    0  0.45791084355E+01  0.96659906668E+01 -0.83201849384E+01  0.13550833454E+02  0.51100000000E-03 0.  1.
         12    1    4    4    0    0  0.20331392555E+02 -0.19326803693E+02 -0.90841172174E-01  0.28051722163E+02  0.00000000000E+00 0. -1.
</event>
<event>
 8    1  0.1244838E-006  0.9118800E+02  0.7816164E-02  0.1184000E+00
        -11   -1    0    0    0    0  0.00000000000E+00  0.00000000000E+00  0.45593999997E+02  0.45594000000E+02  0.51100000000E-03 0. -1.
         11   -1    0    0    0    0 -0.00000000000E+00 -0.00000000000E+00 -0.45593999997E+02  0.45594000000E+02  0.51100000000E-03 0.  1.
         23    2    1    2    0    0  0.17763568394E-14  0.00000000000E+00  0.00000000000E+00  0.91188000000E+02  0.91188000000E+02 0.  0.
    9900012    2    3    3    0    0  0.14567899469E+02  0.13982167649E+02  0.30790500296E+02  0.54367087252E+02  0.40000007009E+02 0.  0.
        -12    1    3    3    0    0 -0.14567899469E+02 -0.13982167649E+02 -0.30790500296E+02  0.36820912748E+02  0.00000000000E+00 0.  1.
         11    1    4    4    0    0  0.15410917884E+01  0.51724037164E+01  0.54979170109E+01  0.77042725696E+01  0.51100000000E-03 0. -1.
        -11    1    4    4    0    0  0.10182272594E+02 -0.32182893332E+01 -0.65349337092E+01  0.12519641379E+02  0.51100000000E-03 0.  1.
        -12    1    4    4    0    0  0.28445350866E+01  0.12028053266E+02  0.31827516994E+02  0.34143173304E+02  0.00000000000E+00 0.  1.
</event>
<event>
 8    1  0.1244838E-006  0.9118800E+02  0.7816164E-02  0.1184000E+00
        -11   -1    0    0    0    0  0.00000000000E+00  0.00000000000E+00  0.45593999997E+02  0.45594000000E+02  0.51100000000E-03 0. -1.
         11   -1    0    0    0    0 -0.00000000000E+00 -0.00000000000E+00 -0.45593999997E+02  0.45594000000E+02  0.51100000000E-03 0.  1.
         23    2    1    2    0    0  0.51347814889E-15  0.00000000000E+00  0.35527136788E-14  0.91188000000E+02  0.91188000000E+02 0.  0.
    9900012    2    3    3    0    0  0.66501381047E-01  0.22676346214E+02 -0.29009614599E+02  0.54367097794E+02  0.40000031042E+02 0.  0.
         12    1    3    3    0    0 -0.66501381047E-01 -0.22676346214E+02  0.29009614599E+02  0.36820902206E+02  0.00000000000E+00 0. -1.
         11    1    4    4    0    0  0.58892069531E+01  0.25716100739E+02 -0.30178754204E+02  0.40084383509E+02  0.51100000000E-03 0. -1.
        -11    1    4    4    0    0  0.64132197983E+00 -0.34648192623E+01 -0.44715624171E+01  0.56930780000E+01  0.51100000000E-03 0.  1.
         12    1    4    4    0    0 -0.64640275519E+01  0.42506473751E+00  0.56407020215E+01  0.85896362856E+01  0.00000000000E+00 0. -1.
</event>
<event>
 8    1  0.1244838E-006  0.9118800E+02  0.7816164E-02  0.1184000E+00
        -11   -1    0    0    0    0  0.00000000000E+00  0.00000000000E+00  0.45593999997E+02  0.45594000000E+02  0.51100000000E-03 0.  1.
         11   -1    0    0    0    0 -0.00000000000E+00 -0.00000000000E+00 -0.45593999997E+02  0.45594000000E+02  0.51100000000E-03 0. -1.
         23    2    1    2    0    0 -0.71054273576E-14  0.26645352591E-14  0.35527136788E-14  0.91188000000E+02  0.91188000000E+02 0.  0.
    9900012    2    3    3    0    0  0.32259335038E+02 -0.69200550797E+01 -0.16347055597E+02  0.54367108022E+02  0.40000054357E+02 0.  0.
        -12    1    3    3    0    0 -0.32259335038E+02  0.69200550797E+01  0.16347055597E+02  0.36820891978E+02  0.00000000000E+00 0.  1.
         11    1    4    4    0    0 -0.45838936553E+01 -0.10277856981E+02 -0.42834879863E+01  0.12041374289E+02  0.51100000000E-03 0. -1.
        -11    1    4    4    0    0  0.25475380442E+02  0.96883296468E+01 -0.10551183416E+02  0.29226464236E+02  0.51100000000E-03 0.  1.
        -12    1    4    4    0    0  0.11367848252E+02 -0.63305277452E+01 -0.15123841940E+01  0.13099269497E+02  0.00000000000E+00 0.  1.
</event>
<event>
 8    1  0.1244838E-006  0.9118800E+02  0.7816164E-02  0.1184000E+00
        -11   -1    0    0    0    0  0.00000000000E+00  0.00000000000E+00  0.45593999997E+02  0.45594000000E+02  0.51100000000E-03 0. -1.
         11   -1    0    0    0    0 -0.00000000000E+00 -0.00000000000E+00 -0.45593999997E+02  0.45594000000E+02  0.51100000000E-03 0.  1.
         23    2    1    2    0    0  0.00000000000E+00  0.00000000000E+00  0.00000000000E+00  0.91188000000E+02  0.91188000000E+02 0.  0.
    9900012    2    3    3    0    0 -0.33330409095E+02 -0.66855751697E+01  0.14148013849E+02  0.54367090429E+02  0.40000014251E+02 0.  0.
        -12    1    3    3    0    0  0.33330409095E+02  0.66855751697E+01 -0.14148013849E+02  0.36820909571E+02  0.00000000000E+00 0.  1.
         11    1    4    4    0    0  0.40893543058E+01 -0.15754673577E-01  0.95061541298E+00  0.41984207474E+01  0.51100000000E-03 0. -1.
        -11    1    4    4    0    0 -0.33599101278E+02 -0.11829600802E+02  0.19969816699E+02  0.40836658055E+02  0.51100000000E-03 0.  1.
        -12    1    4    4    0    0 -0.38206621229E+01  0.51597803062E+01 -0.67724182635E+01  0.93320116267E+01  0.00000000000E+00 0.  1.
</event>
<event>
 8    1  0.1244838E-006  0.9118800E+02  0.7816164E-02  0.1184000E+00
        -11   -1    0    0    0    0  0.00000000000E+00  0.00000000000E+00  0.45593999997E+02  0.45594000000E+02  0.51100000000E-03 0.  1.
         11   -1    0    0    0    0 -0.00000000000E+00 -0.00000000000E+00 -0.45593999997E+02  0.45594000000E+02  0.51100000000E-03 0. -1.
         23    2    1    2    0    0  0.00000000000E+00  0.00000000000E+00  0.35527136788E-14  0.91188000000E+02  0.91188000000E+02 0.  0.
    9900012    2    3    3    0    0 -0.18535935187E+02 -0.15943894987E+02 -0.27531641153E+02  0.54367082776E+02  0.39999996805E+02 0.  0.
        -12    1    3    3    0    0  0.18535935187E+02  0.15943894987E+02  0.27531641153E+02  0.36820917224E+02  0.00000000000E+00 0.  1.
         11    1    4    4    0    0 -0.19539885016E+02 -0.13279135388E+02 -0.11298124766E+02  0.26187595662E+02  0.51100000000E-03 0. -1.
        -11    1    4    4    0    0 -0.80799978661E+01 -0.53271279161E+01 -0.34419664417E+00  0.96841689856E+01  0.51100000000E-03 0.  1.
         12    1    4    4    0    0  0.90839476950E+01  0.26623683165E+01 -0.15889319743E+02  0.18495318128E+02  0.00000000000E+00 0. -1.
</event>
<event>
 8    1  0.1244838E-006  0.9118800E+02  0.7816164E-02  0.1184000E+00
        -11   -1    0    0    0    0  0.00000000000E+00  0.00000000000E+00  0.45593999997E+02  0.45594000000E+02  0.51100000000E-03 0. -1.
         11   -1    0    0    0    0 -0.00000000000E+00 -0.00000000000E+00 -0.45593999997E+02  0.45594000000E+02  0.51100000000E-03 0.  1.
         23    2    1    2    0    0  0.00000000000E+00  0.00000000000E+00  0.00000000000E+00  0.91188000000E+02  0.91188000000E+02 0.  0.
    9900012    2    3    3    0    0 -0.40908617250E+01  0.26813665409E+02  0.24901279632E+02  0.54367061261E+02  0.39999947756E+02 0.  0.
        -12    1    3    3    0    0  0.40908617250E+01 -0.26813665409E+02 -0.24901279632E+02  0.36820938739E+02  0.00000000000E+00 0.  1.
         11    1    4    4    0    0  0.15072990414E+01  0.20534056711E+02  0.30337447514E+02  0.36664426320E+02  0.51100000000E-03 0. -1.
        -11    1    4    4    0    0 -0.41041014867E+01  0.63475295291E+01 -0.10208012975E+02  0.12701901798E+02  0.51100000000E-03 0.  1.
        -12    1    4    4    0    0 -0.14940592797E+01 -0.67920831032E-01  0.47718450928E+01  0.50007331423E+01  0.00000000000E+00 0.  1.
</event>
<event>
 8    1  0.1244838E-006  0.9118800E+02  0.7816164E-02  0.1184000E+00
        -11   -1    0    0    0    0  0.00000000000E+00  0.00000000000E+00  0.45593999997E+02  0.45594000000E+02  0.51100000000E-03 0.  1.
         11   -1    0    0    0    0 -0.00000000000E+00 -0.00000000000E+00 -0.45593999997E+02  0.45594000000E+02  0.51100000000E-03 0. -1.
         23    2    1    2    0    0  0.00000000000E+00  0.17763568394E-14  0.00000000000E+00  0.91188000000E+02  0.91188000000E+02 0.  0.
    9900012    2    3    3    0    0 -0.38569189469E+01  0.11800347342E+02 -0.34664909831E+02  0.54367082104E+02  0.39999995271E+02 0.  0.
        -12    1    3    3    0    0  0.38569189469E+01 -0.11800347342E+02  0.34664909831E+02  0.36820917896E+02  0.00000000000E+00 0.  1.
         11    1    4    4    0    0 -0.29208692343E+01 -0.18580232137E+01 -0.44265979454E+00  0.34899391544E+01  0.51100000000E-03 0. -1.
        -11    1    4    4    0    0 -0.25070763074E+00  0.37292971524E+01  0.72879142132E+01  0.81904948207E+01  0.51100000000E-03 0.  1.
         12    1    4    4    0    0 -0.68534208190E+00  0.99290734030E+01 -0.41510164250E+02  0.42686648128E+02  0.00000000000E+00 0. -1.
</event>
<event>
 8    1  0.1244838E-006  0.9118800E+02  0.7816164E-02  0.1184000E+00
        -11   -1    0    0    0    0  0.00000000000E+00  0.00000000000E+00  0.45593999997E+02  0.45594000000E+02  0.51100000000E-03 0.  1.
         11   -1    0    0    0    0 -0.00000000000E+00 -0.00000000000E+00 -0.45593999997E+02  0.45594000000E+02  0.51100000000E-03 0. -1.
         23    2    1    2    0    0  0.00000000000E+00  0.00000000000E+00  0.00000000000E+00  0.91188000000E+02  0.91188000000E+02 0.  0.
    9900012    2    3    3    0    0  0.10975596146E+02 -0.27612183744E+01  0.35038427094E+02  0.54367090031E+02  0.40000013345E+02 0.  0.
         12    1    3    3    0    0 -0.10975596146E+02  0.27612183744E+01 -0.35038427094E+02  0.36820909969E+02  0.00000000000E+00 0. -1.
         11    1    4    4    0    0 -0.34096539995E+01 -0.72667422065E+01  0.22561772420E+02  0.23947126293E+02  0.51100000000E-03 0. -1.
        -11    1    4    4    0    0  0.80478598262E+01 -0.59359121575E+01  0.14922400893E+02  0.17963327910E+02  0.51100000000E-03 0.  1.
         12    1    4    4    0    0  0.63373903191E+01  0.10441435990E+02 -0.24457462193E+01  0.12456635828E+02  0.00000000000E+00 0. -1.
</event>
<event>
 8    1  0.1244838E-006  0.9118800E+02  0.7816164E-02  0.1184000E+00
        -11   -1    0    0    0    0  0.00000000000E+00  0.00000000000E+00  0.45593999997E+02  0.45594000000E+02  0.51100000000E-03 0.  1.
         11   -1    0    0    0    0 -0.00000000000E+00 -0.00000000000E+00 -0.45593999997E+02  0.45594000000E+02  0.51100000000E-03 0. -1.
         23    2    1    2    0    0  0.35527136788E-14  0.00000000000E+00  0.00000000000E+00  0.91188000000E+02  0.91188000000E+02 0.  0.
    9900012    2    3    3    0    0  0.15386239836E+02  0.91146036362E+01 -0.32186479739E+02  0.54367056860E+02  0.39999937723E+02 0.  0.
        -12    1    3    3    0    0 -0.15386239836E+02 -0.91146036362E+01  0.32186479739E+02  0.36820943140E+02  0.00000000000E+00 0.  1.
         11    1    4    4    0    0  0.33535475094E+01  0.16440896967E+02 -0.26869068144E+02  0.31678008100E+02  0.51100000000E-03 0. -1.
        -11    1    4    4    0    0 -0.40903240755E+01 -0.26372677127E+00  0.54844920906E+00  0.41353475850E+01  0.51100000000E-03 0.  1.
        -12    1    4    4    0    0  0.16123016402E+02 -0.70625665595E+01 -0.58658608046E+01  0.18553701175E+02  0.00000000000E+00 0.  1.
</event>
<event>
 8    1  0.1244838E-006  0.9118800E+02  0.7816164E-02  0.1184000E+00
        -11   -1    0    0    0    0  0.00000000000E+00  0.00000000000E+00  0.45593999997E+02  0.45594000000E+02  0.51100000000E-03 0. -1.
         11   -1    0    0    0    0 -0.00000000000E+00 -0.00000000000E+00 -0.45593999997E+02  0.45594000000E+02  0.51100000000E-03 0.  1.
         23    2    1    2    0    0 -0.35527136788E-14 -0.24563684420E-14 -0.35527136788E-14  0.91188000000E+02  0.91188000000E+02 0.  0.
    9900012    2    3    3    0    0 -0.23462039894E+02  0.97685392973E-01 -0.28377855488E+02  0.54367088272E+02  0.40000009333E+02 0.  0.
         12    1    3    3    0    0  0.23462039894E+02 -0.97685392973E-01  0.28377855488E+02  0.36820911728E+02  0.00000000000E+00 0. -1.
         11    1    4    4    0    0 -0.24560645258E+01 -0.11274492297E+02 -0.57011502561E+01  0.12870491211E+02  0.51100000000E-03 0. -1.
        -11    1    4    4    0    0 -0.21781397450E+02 -0.14095163389E+01 -0.12605666336E+02  0.25205531838E+02  0.51100000000E-03 0.  1.
         12    1    4    4    0    0  0.77542208216E+00  0.12781694029E+02 -0.10071038896E+02  0.16291065223E+02  0.00000000000E+00 0. -1.
</event>
<event>
 8    1  0.1244838E-006  0.9118800E+02  0.7816164E-02  0.1184000E+00
        -11   -1    0    0    0    0  0.00000000000E+00  0.00000000000E+00  0.45593999997E+02  0.45594000000E+02  0.51100000000E-03 0. -1.
         11   -1    0    0    0    0 -0.00000000000E+00 -0.00000000000E+00 -0.45593999997E+02  0.45594000000E+02  0.51100000000E-03 0.  1.
         23    2    1    2    0    0 -0.88817841970E-15  0.00000000000E+00  0.13322676296E-14  0.91188000000E+02  0.91188000000E+02 0.  0.
    9900012    2    3    3    0    0  0.29938752257E+01 -0.36603252937E+02  0.26490562597E+01  0.54367096786E+02  0.40000028742E+02 0.  0.
        -12    1    3    3    0    0 -0.29938752257E+01  0.36603252937E+02 -0.26490562597E+01  0.36820903214E+02  0.00000000000E+00 0.  1.
         11    1    4    4    0    0  0.11869292185E+02 -0.27910161223E+02  0.15228941613E+02  0.33937852899E+02  0.51100000000E-03 0. -1.
        -11    1    4    4    0    0 -0.83147399511E+01 -0.30246456482E+01 -0.31103883153E+01  0.93785871795E+01  0.51100000000E-03 0.  1.
         12    1    4    4    0    0 -0.56067700849E+00 -0.56684460663E+01 -0.94694970379E+01  0.11050656707E+02  0.00000000000E+00 0. -1.
</event>
<event>
 8    1  0.1244838E-006  0.9118800E+02  0.7816164E-02  0.1184000E+00
        -11   -1    0    0    0    0  0.00000000000E+00  0.00000000000E+00  0.45593999997E+02  0.45594000000E+02  0.51100000000E-03 0. -1.
         11   -1    0    0    0    0 -0.00000000000E+00 -0.00000000000E+00 -0.45593999997E+02  0.45594000000E+02  0.51100000000E-03 0.  1.
         23    2    1    2    0    0  0.00000000000E+00  0.13322676296E-14  0.00000000000E+00  0.91188000000E+02  0.91188000000E+02 0.  0.
    9900012    2    3    3    0    0  0.12044228394E+01  0.34509806286E+01  0.36639053029E+02  0.54367080558E+02  0.39999991748E+02 0.  0.
        -12    1    3    3    0    0 -0.12044228394E+01 -0.34509806286E+01 -0.36639053029E+02  0.36820919442E+02  0.00000000000E+00 0.  1.
         11    1    4    4    0    0 -0.16205483213E+01 -0.35372165419E+01 -0.19079606044E+01  0.43334041648E+01  0.51100000000E-03 0. -1.
        -11    1    4    4    0    0  0.85623063188E+00  0.60533670151E+01 -0.40806215625E+01  0.73503643251E+01  0.51100000000E-03 0.  1.
         12    1    4    4    0    0  0.19687405289E+01  0.93483015533E+00  0.42627635196E+02  0.42683312068E+02  0.00000000000E+00 0. -1.
</event>
<event>
 8    1  0.1244838E-006  0.9118800E+02  0.7816164E-02  0.1184000E+00
        -11   -1    0    0    0    0  0.00000000000E+00  0.00000000000E+00  0.45593999997E+02  0.45594000000E+02  0.51100000000E-03 0.  1.
         11   -1    0    0    0    0 -0.00000000000E+00 -0.00000000000E+00 -0.45593999997E+02  0.45594000000E+02  0.51100000000E-03 0. -1.
         23    2    1    2    0    0 -0.88817841970E-15  0.00000000000E+00 -0.35527136788E-14  0.91188000000E+02  0.91188000000E+02 0.  0.
    9900012    2    3    3    0    0 -0.44413942135E+01 -0.27493905097E+02  0.24086098966E+02  0.54367068949E+02  0.39999965283E+02 0.  0.
         12    1    3    3    0    0  0.44413942135E+01  0.27493905097E+02 -0.24086098966E+02  0.36820931051E+02  0.00000000000E+00 0. -1.
         11    1    4    4    0    0 -0.71561220864E+01  0.10570891316E+01  0.15717762088E+02  0.17302472831E+02  0.51100000000E-03 0. -1.
        -11    1    4    4    0    0 -0.63135271651E+01 -0.49971155985E+01  0.86776822713E+01  0.11837819032E+02  0.51100000000E-03 0.  1.
         12    1    4    4    0    0  0.90282550380E+01 -0.23553878630E+02 -0.30934539315E+00  0.25226777086E+02  0.00000000000E+00 0. -1.
</event>
<event>
 8    1  0.1244838E-006  0.9118800E+02  0.7816164E-02  0.1184000E+00
        -11   -1    0    0    0    0  0.00000000000E+00  0.00000000000E+00  0.45593999997E+02  0.45594000000E+02  0.51100000000E-03 0.  1.
         11   -1    0    0    0    0 -0.00000000000E+00 -0.00000000000E+00 -0.45593999997E+02  0.45594000000E+02  0.51100000000E-03 0. -1.
         23    2    1    2    0    0  0.00000000000E+00  0.00000000000E+00 -0.35527136788E-14  0.91188000000E+02  0.91188000000E+02 0.  0.
    9900012    2    3    3    0    0 -0.22946871888E+02  0.48351371485E+01 -0.28387370897E+02  0.54367077862E+02  0.39999985601E+02 0.  0.
        -12    1    3    3    0    0  0.22946871888E+02 -0.48351371485E+01  0.28387370897E+02  0.36820922138E+02  0.00000000000E+00 0.  1.
         11    1    4    4    0    0 -0.13633639633E+02  0.19003655084E+01 -0.17465152335E+02  0.22237784626E+02  0.51100000000E-03 0. -1.
        -11    1    4    4    0    0 -0.37014730293E+01 -0.11755540838E+02  0.10438309376E+01  0.12368638820E+02  0.51100000000E-03 0.  1.
         12    1    4    4    0    0 -0.56117592250E+01  0.14690312478E+02 -0.11966049500E+02  0.19760654416E+02  0.00000000000E+00 0. -1.
</event>
<event>
 8    1  0.1244838E-006  0.9118800E+02  0.7816164E-02  0.1184000E+00
        -11   -1    0    0    0    0  0.00000000000E+00  0.00000000000E+00  0.45593999997E+02  0.45594000000E+02  0.51100000000E-03 0.  1.
         11   -1    0    0    0    0 -0.00000000000E+00 -0.00000000000E+00 -0.45593999997E+02  0.45594000000E+02  0.51100000000E-03 0. -1.
         23    2    1    2    0    0  0.00000000000E+00  0.35527136788E-14 -0.17763568394E-14  0.91188000000E+02  0.91188000000E+02 0.  0.
    9900012    2    3    3    0    0  0.25667834099E+02 -0.25955883310E+02  0.48202074613E+01  0.54367082226E+02  0.39999995550E+02 0.  0.
        -12    1    3    3    0    0 -0.25667834099E+02  0.25955883310E+02 -0.48202074613E+01  0.36820917774E+02  0.00000000000E+00 0.  1.
         11    1    4    4    0    0 -0.52070425244E+01 -0.36019342291E+00 -0.86798732298E+01  0.10128338003E+02  0.51100000000E-03 0.  1.
        -11    1    4    4    0    0  0.26785727544E+02 -0.25004113183E+02  0.15329726796E+02  0.39720037765E+02  0.51100000000E-03 0. -1.
         12    1    4    4    0    0  0.40891490791E+01 -0.59157670453E+00 -0.18296461045E+01  0.45187064583E+01  0.00000000000E+00 0. -1.
</event>
<event>
 8    1  0.1244838E-006  0.9118800E+02  0.7816164E-02  0.1184000E+00
        -11   -1    0    0    0    0  0.00000000000E+00  0.00000000000E+00  0.45593999997E+02  0.45594000000E+02  0.51100000000E-03 0.  1.
         11   -1    0    0    0    0 -0.00000000000E+00 -0.00000000000E+00 -0.45593999997E+02  0.45594000000E+02  0.51100000000E-03 0. -1.
         23    2    1    2    0    0  0.00000000000E+00  0.11102230246E-15  0.00000000000E+00  0.91188000000E+02  0.91188000000E+02 0.  0.
    9900012    2    3    3    0    0 -0.19049179656E+02 -0.24880949451E+00 -0.31509389543E+02  0.54367152900E+02  0.40000156666E+02 0.  0.
        -12    1    3    3    0    0  0.19049179656E+02  0.24880949451E+00  0.31509389543E+02  0.36820847100E+02  0.00000000000E+00 0.  1.
         11    1    4    4    0    0 -0.14675071185E+02  0.14897795454E+01  0.10781320914E+01  0.14789845383E+02  0.51100000000E-03 0.  1.
        -11    1    4    4    0    0  0.87851720391E+00 -0.28362307306E+01  0.26220324977E+01  0.39611932438E+01  0.51100000000E-03 0. -1.
         12    1    4    4    0    0 -0.52526256754E+01  0.10976416907E+01 -0.35209554132E+02  0.35616114274E+02  0.00000000000E+00 0. -1.
</event>
<event>
 8    1  0.1244838E-006  0.9118800E+02  0.7816164E-02  0.1184000E+00
        -11   -1    0    0    0    0  0.00000000000E+00  0.00000000000E+00  0.45593999997E+02  0.45594000000E+02  0.51100000000E-03 0. -1.
         11   -1    0    0    0    0 -0.00000000000E+00 -0.00000000000E+00 -0.45593999997E+02  0.45594000000E+02  0.51100000000E-03 0.  1.
         23    2    1    2    0    0  0.00000000000E+00 -0.88817841970E-15 -0.13322676296E-14  0.91188000000E+02  0.91188000000E+02 0.  0.
    9900012    2    3    3    0    0  0.36338672474E+02  0.54785059533E+01 -0.22947868419E+01  0.54367093014E+02  0.40000020143E+02 0.  0.
         12    1    3    3    0    0 -0.36338672474E+02 -0.54785059533E+01  0.22947868419E+01  0.36820906986E+02  0.00000000000E+00 0. -1.
         11    1    4    4    0    0  0.75968097671E+01  0.62615965873E+01  0.12732333495E+02  0.16094453298E+02  0.51100000000E-03 0. -1.
        -11    1    4    4    0    0  0.24205851159E+02 -0.89637309973E+01 -0.10292608376E+02  0.27788657600E+02  0.51100000000E-03 0.  1.
         12    1    4    4    0    0  0.45360115475E+01  0.81806403633E+01 -0.47345119607E+01  0.10483982116E+02  0.00000000000E+00 0. -1.
</event>
<event>
 8    1  0.1244838E-006  0.9118800E+02  0.7816164E-02  0.1184000E+00
        -11   -1    0    0    0    0  0.00000000000E+00  0.00000000000E+00  0.45593999997E+02  0.45594000000E+02  0.51100000000E-03 0. -1.
         11   -1    0    0    0    0 -0.00000000000E+00 -0.00000000000E+00 -0.45593999997E+02  0.45594000000E+02  0.51100000000E-03 0.  1.
         23    2    1    2    0    0  0.00000000000E+00  0.00000000000E+00  0.88817841970E-15  0.91188000000E+02  0.91188000000E+02 0.  0.
    9900012    2    3    3    0    0  0.93688996390E+01 -0.34904625679E+02 -0.70478481186E+01  0.54367063872E+02  0.39999953709E+02 0.  0.
        -12    1    3    3    0    0 -0.93688996390E+01  0.34904625679E+02  0.70478481186E+01  0.36820936128E+02  0.00000000000E+00 0.  1.
         11    1    4    4    0    0  0.24535500553E+02 -0.15812189909E+02 -0.26948415606E+01  0.29313449275E+02  0.51100000000E-03 0. -1.
        -11    1    4    4    0    0 -0.33635550938E+01 -0.21517633788E+01 -0.11844104046E+01  0.41649029730E+01  0.51100000000E-03 0.  1.
         12    1    4    4    0    0 -0.11803045820E+02 -0.16940672392E+02 -0.31685961534E+01  0.20888711624E+02  0.00000000000E+00 0. -1.
</event>
<event>
 8    1  0.1244838E-006  0.9118800E+02  0.7816164E-02  0.1184000E+00
        -11   -1    0    0    0    0  0.00000000000E+00  0.00000000000E+00  0.45593999997E+02  0.45594000000E+02  0.51100000000E-03 0. -1.
         11   -1    0    0    0    0 -0.00000000000E+00 -0.00000000000E+00 -0.45593999997E+02  0.45594000000E+02  0.51100000000E-03 0.  1.
         23    2    1    2    0    0 -0.35527136788E-14  0.00000000000E+00  0.35527136788E-14  0.91188000000E+02  0.91188000000E+02 0.  0.
    9900012    2    3    3    0    0  0.29280687418E+02  0.10351035509E+02 -0.19780741246E+02  0.54367077741E+02  0.39999985326E+02 0.  0.
         12    1    3    3    0    0 -0.29280687418E+02 -0.10351035509E+02  0.19780741246E+02  0.36820922259E+02  0.00000000000E+00 0. -1.
         11    1    4    4    0    0 -0.73946578366E+01 -0.44989212718E+01 -0.13792027258E+01  0.87648991751E+01  0.51100000000E-03 0. -1.
        -11    1    4    4    0    0  0.10114088963E+02  0.49816610742E+01 -0.12170128818E+02  0.16589869750E+02  0.51100000000E-03 0.  1.
         12    1    4    4    0    0  0.26561256292E+02  0.98682957070E+01 -0.62314097019E+01  0.29012308816E+02  0.00000000000E+00 0. -1.
</event>
<event>
 8    1  0.1244838E-006  0.9118800E+02  0.7816164E-02  0.1184000E+00
        -11   -1    0    0    0    0  0.00000000000E+00  0.00000000000E+00  0.45593999997E+02  0.45594000000E+02  0.51100000000E-03 0.  1.
         11   -1    0    0    0    0 -0.00000000000E+00 -0.00000000000E+00 -0.45593999997E+02  0.45594000000E+02  0.51100000000E-03 0. -1.
         23    2    1    2    0    0  0.00000000000E+00  0.17763568394E-14  0.00000000000E+00  0.91188000000E+02  0.91188000000E+02 0.  0.
    9900012    2    3    3    0    0 -0.56373178504E+01  0.87431225369E+01  0.35320911520E+02  0.54366968851E+02  0.39999737089E+02 0.  0.
         12    1    3    3    0    0  0.56373178504E+01 -0.87431225369E+01 -0.35320911520E+02  0.36821031149E+02  0.00000000000E+00 0. -1.
         11    1    4    4    0    0  0.96535171939E+01 -0.35238680443E+01  0.24047078515E+02  0.26150908695E+02  0.51100000000E-03 0. -1.
        -11    1    4    4    0    0 -0.46569331265E+00  0.65361313554E+01  0.10407084622E+02  0.12298182547E+02  0.51100000000E-03 0.  1.
         12    1    4    4    0    0 -0.14825141732E+02  0.57308592258E+01  0.86674838320E+00  0.15917877609E+02  0.00000000000E+00 0. -1.
</event>
<event>
 8    1  0.1244838E-006  0.9118800E+02  0.7816164E-02  0.1184000E+00
        -11   -1    0    0    0    0  0.00000000000E+00  0.00000000000E+00  0.45593999997E+02  0.45594000000E+02  0.51100000000E-03 0. -1.
         11   -1    0    0    0    0 -0.00000000000E+00 -0.00000000000E+00 -0.45593999997E+02  0.45594000000E+02  0.51100000000E-03 0.  1.
         23    2    1    2    0    0 -0.35527136788E-14 -0.73552275381E-15  0.00000000000E+00  0.91188000000E+02  0.91188000000E+02 0.  0.
    9900012    2    3    3    0    0 -0.27337252851E+02  0.56017312489E-01 -0.24666789067E+02  0.54367095418E+02  0.40000025624E+02 0.  0.
         12    1    3    3    0    0  0.27337252851E+02 -0.56017312489E-01  0.24666789067E+02  0.36820904582E+02  0.00000000000E+00 0. -1.
         11    1    4    4    0    0 -0.74613292536E+01  0.74325772087E+01  0.70406602160E+00  0.10555110014E+02  0.51100000000E-03 0. -1.
        -11    1    4    4    0    0  0.28692423272E+01  0.69245090285E+01 -0.11088622507E+02  0.13384279068E+02  0.51100000000E-03 0.  1.
        -12    1    4    4    0    0 -0.22745165924E+02 -0.14301068925E+02 -0.14282232582E+02  0.30427706335E+02  0.00000000000E+00 0.  1.
</event>
<event>
 8    1  0.1244838E-006  0.9118800E+02  0.7816164E-02  0.1184000E+00
        -11   -1    0    0    0    0  0.00000000000E+00  0.00000000000E+00  0.45593999997E+02  0.45594000000E+02  0.51100000000E-03 0. -1.
         11   -1    0    0    0    0 -0.00000000000E+00 -0.00000000000E+00 -0.45593999997E+02  0.45594000000E+02  0.51100000000E-03 0.  1.
         23    2    1    2    0    0  0.00000000000E+00 -0.71054273576E-14  0.00000000000E+00  0.91188000000E+02  0.91188000000E+02 0.  0.
    9900012    2    3    3    0    0 -0.13232130219E+02  0.32780630428E+02 -0.10301572900E+02  0.54367062945E+02  0.39999951595E+02 0.  0.
         12    1    3    3    0    0  0.13232130219E+02 -0.32780630428E+02  0.10301572900E+02  0.36820937055E+02  0.00000000000E+00 0. -1.
         11    1    4    4    0    0  0.92492513763E+01  0.20959666407E+01 -0.25825635794E+01  0.98291078987E+01  0.51100000000E-03 0. -1.
        -11    1    4    4    0    0 -0.17315943475E+02  0.71930021814E+01 -0.82359309603E+01  0.20479544376E+02  0.51100000000E-03 0.  1.
         12    1    4    4    0    0 -0.51654381209E+01  0.23491661606E+02  0.51692163970E+00  0.24058410670E+02  0.00000000000E+00 0. -1.
</event>
<event>
 8    1  0.1244838E-006  0.9118800E+02  0.7816164E-02  0.1184000E+00
        -11   -1    0    0    0    0  0.00000000000E+00  0.00000000000E+00  0.45593999997E+02  0.45594000000E+02  0.51100000000E-03 0. -1.
         11   -1    0    0    0    0 -0.00000000000E+00 -0.00000000000E+00 -0.45593999997E+02  0.45594000000E+02  0.51100000000E-03 0.  1.
         23    2    1    2    0    0  0.00000000000E+00 -0.88817841970E-15  0.88817841970E-15  0.91188000000E+02  0.91188000000E+02 0.  0.
    9900012    2    3    3    0    0  0.36105303021E+02  0.57456023898E+01  0.43787627475E+01  0.54367103538E+02  0.40000044136E+02 0.  0.
        -12    1    3    3    0    0 -0.36105303021E+02 -0.57456023898E+01 -0.43787627475E+01  0.36820896462E+02  0.00000000000E+00 0.  1.
         11    1    4    4    0    0  0.11052752541E+02  0.10102770966E+02  0.79872084164E+01  0.16971293954E+02  0.51100000000E-03 0. -1.
        -11    1    4    4    0    0  0.41665152464E+01  0.40252544822E+01  0.96645871215E+01  0.11267953116E+02  0.51100000000E-03 0.  1.
        -12    1    4    4    0    0  0.20886035234E+02 -0.83824230589E+01 -0.13273032790E+02  0.26127856467E+02  0.00000000000E+00 0.  1.
</event>
<event>
 8    1  0.1244838E-006  0.9118800E+02  0.7816164E-02  0.1184000E+00
        -11   -1    0    0    0    0  0.00000000000E+00  0.00000000000E+00  0.45593999997E+02  0.45594000000E+02  0.51100000000E-03 0.  1.
         11   -1    0    0    0    0 -0.00000000000E+00 -0.00000000000E+00 -0.45593999997E+02  0.45594000000E+02  0.51100000000E-03 0. -1.
         23    2    1    2    0    0  0.00000000000E+00  0.33306690739E-15 -0.35527136788E-14  0.91188000000E+02  0.91188000000E+02 0.  0.
    9900012    2    3    3    0    0 -0.18233730294E+02  0.96517513746E+00 -0.31974664095E+02  0.54367087091E+02  0.40000006642E+02 0.  0.
        -12    1    3    3    0    0  0.18233730294E+02 -0.96517513746E+00  0.31974664095E+02  0.36820912909E+02  0.00000000000E+00 0.  1.
         11    1    4    4    0    0  0.37570461948E+01  0.59205489334E+01 -0.39824535202E+00  0.70233108577E+01  0.51100000000E-03 0. -1.
        -11    1    4    4    0    0 -0.24032549937E+02  0.28366661689E+01 -0.13872906360E+02  0.27893864246E+02  0.51100000000E-03 0.  1.
         12    1    4    4    0    0  0.20417734487E+01 -0.77920399649E+01 -0.17703512383E+02  0.19449911987E+02  0.00000000000E+00 0. -1.
</event>
<event>
 8    1  0.1244838E-006  0.9118800E+02  0.7816164E-02  0.1184000E+00
        -11   -1    0    0    0    0  0.00000000000E+00  0.00000000000E+00  0.45593999997E+02  0.45594000000E+02  0.51100000000E-03 0. -1.
         11   -1    0    0    0    0 -0.00000000000E+00 -0.00000000000E+00 -0.45593999997E+02  0.45594000000E+02  0.51100000000E-03 0.  1.
         23    2    1    2    0    0 -0.71054273576E-14  0.35527136788E-14 -0.17763568394E-14  0.91188000000E+02  0.91188000000E+02 0.  0.
    9900012    2    3    3    0    0 -0.30541484628E+02  0.17447626133E+02 -0.10889242021E+02  0.54367115536E+02  0.40000071486E+02 0.  0.
        -12    1    3    3    0    0  0.30541484628E+02 -0.17447626133E+02  0.10889242021E+02  0.36820884464E+02  0.00000000000E+00 0.  1.
         11    1    4    4    0    0 -0.23069561363E+01  0.51679718864E+01 -0.71859960329E+01  0.91470497583E+01  0.51100000000E-03 0. -1.
        -11    1    4    4    0    0 -0.19222625656E+02 -0.26903443096E+01 -0.14897958567E+02  0.24468274548E+02  0.51100000000E-03 0.  1.
         12    1    4    4    0    0 -0.90119028353E+01  0.14969998556E+02  0.11194712579E+02  0.20751791229E+02  0.00000000000E+00 0. -1.
</event>
<event>
 8    1  0.1244838E-006  0.9118800E+02  0.7816164E-02  0.1184000E+00
        -11   -1    0    0    0    0  0.00000000000E+00  0.00000000000E+00  0.45593999997E+02  0.45594000000E+02  0.51100000000E-03 0.  1.
         11   -1    0    0    0    0 -0.00000000000E+00 -0.00000000000E+00 -0.45593999997E+02  0.45594000000E+02  0.51100000000E-03 0. -1.
         23    2    1    2    0    0  0.88817841970E-15  0.17763568394E-14  0.00000000000E+00  0.91188000000E+02  0.91188000000E+02 0.  0.
    9900012    2    3    3    0    0  0.60468946194E+01  0.45117190411E+01  0.36039684992E+02  0.54367089669E+02  0.40000012519E+02 0.  0.
         12    1    3    3    0    0 -0.60468946194E+01 -0.45117190411E+01 -0.36039684992E+02  0.36820910331E+02  0.00000000000E+00 0. -1.
         11    1    4    4    0    0  0.84906040427E+01 -0.65763806978E+01  0.17741270631E+02  0.20738655307E+02  0.51100000000E-03 0. -1.
        -11    1    4    4    0    0 -0.66924105709E-01  0.61667518491E+01  0.24556961932E+02  0.25319511978E+02  0.51100000000E-03 0.  1.
         12    1    4    4    0    0 -0.23767853176E+01  0.49213478898E+01 -0.62585475703E+01  0.83089223843E+01  0.00000000000E+00 0. -1.
</event>
<event>
 8    1  0.1244838E-006  0.9118800E+02  0.7816164E-02  0.1184000E+00
        -11   -1    0    0    0    0  0.00000000000E+00  0.00000000000E+00  0.45593999997E+02  0.45594000000E+02  0.51100000000E-03 0.  1.
         11   -1    0    0    0    0 -0.00000000000E+00 -0.00000000000E+00 -0.45593999997E+02  0.45594000000E+02  0.51100000000E-03 0. -1.
         23    2    1    2    0    0  0.22204460493E-15  0.00000000000E+00  0.00000000000E+00  0.91188000000E+02  0.91188000000E+02 0.  0.
    9900012    2    3    3    0    0 -0.14886442276E+01 -0.36112891098E+02  0.70299944910E+01  0.54367112074E+02  0.40000063596E+02 0.  0.
         12    1    3    3    0    0  0.14886442276E+01  0.36112891098E+02 -0.70299944910E+01  0.36820887926E+02  0.00000000000E+00 0. -1.
         11    1    4    4    0    0  0.86164927203E+01 -0.17961546835E+02 -0.78868910502E+01  0.21425782651E+02  0.51100000000E-03 0. -1.
        -11    1    4    4    0    0  0.47315761287E+01 -0.88524894494E-01  0.66197753142E+01  0.81373874671E+01  0.51100000000E-03 0.  1.
        -12    1    4    4    0    0 -0.14836713077E+02 -0.18062819369E+02  0.82971102271E+01  0.24803941957E+02  0.00000000000E+00 0.  1.
</event>
<event>
 8    1  0.1244838E-006  0.9118800E+02  0.7816164E-02  0.1184000E+00
        -11   -1    0    0    0    0  0.00000000000E+00  0.00000000000E+00  0.45593999997E+02  0.45594000000E+02  0.51100000000E-03 0. -1.
         11   -1    0    0    0    0 -0.00000000000E+00 -0.00000000000E+00 -0.45593999997E+02  0.45594000000E+02  0.51100000000E-03 0.  1.
         23    2    1    2    0    0  0.00000000000E+00  0.17763568394E-14  0.00000000000E+00  0.91188000000E+02  0.91188000000E+02 0.  0.
    9900012    2    3    3    0    0  0.20421023335E+02 -0.14884876406E+02 -0.26780635842E+02  0.54367079373E+02  0.39999989048E+02 0.  0.
         12    1    3    3    0    0 -0.20421023335E+02  0.14884876406E+02  0.26780635842E+02  0.36820920627E+02  0.00000000000E+00 0. -1.
         11    1    4    4    0    0  0.20746207075E+02 -0.47654039090E+01 -0.73496028164E+01  0.22519565809E+02  0.51100000000E-03 0. -1.
        -11    1    4    4    0    0 -0.82780839160E+00  0.37214121173E+01 -0.17443949423E+02  0.17855686675E+02  0.51100000000E-03 0.  1.
         12    1    4    4    0    0  0.50262465106E+00 -0.13840884615E+02 -0.19870836024E+01  0.13991826889E+02  0.00000000000E+00 0. -1.
</event>
<event>
 8    1  0.1244838E-006  0.9118800E+02  0.7816164E-02  0.1184000E+00
        -11   -1    0    0    0    0  0.00000000000E+00  0.00000000000E+00  0.45593999997E+02  0.45594000000E+02  0.51100000000E-03 0.  1.
         11   -1    0    0    0    0 -0.00000000000E+00 -0.00000000000E+00 -0.45593999997E+02  0.45594000000E+02  0.51100000000E-03 0. -1.
         23    2    1    2    0    0  0.00000000000E+00  0.71054273576E-14  0.00000000000E+00  0.91188000000E+02  0.91188000000E+02 0.  0.
    9900012    2    3    3    0    0 -0.19897319215E+02 -0.22142798642E+02 -0.21669633267E+02  0.54367084075E+02  0.39999999765E+02 0.  0.
        -12    1    3    3    0    0  0.19897319215E+02  0.22142798642E+02  0.21669633267E+02  0.36820915925E+02  0.00000000000E+00 0.  1.
         11    1    4    4    0    0  0.10091372419E+01 -0.84198518159E+01 -0.13777138646E+02  0.16177818522E+02  0.51100000000E-03 0. -1.
        -11    1    4    4    0    0  0.18643834744E+01  0.46567876185E+01  0.41841989182E+01  0.65321602485E+01  0.51100000000E-03 0.  1.
        -12    1    4    4    0    0 -0.22770839931E+02 -0.18379734445E+02 -0.12076693539E+02  0.31657105305E+02  0.00000000000E+00 0.  1.
</event>
<event>
 8    1  0.1244838E-006  0.9118800E+02  0.7816164E-02  0.1184000E+00
        -11   -1    0    0    0    0  0.00000000000E+00  0.00000000000E+00  0.45593999997E+02  0.45594000000E+02  0.51100000000E-03 0.  1.
         11   -1    0    0    0    0 -0.00000000000E+00 -0.00000000000E+00 -0.45593999997E+02  0.45594000000E+02  0.51100000000E-03 0. -1.
         23    2    1    2    0    0  0.00000000000E+00  0.00000000000E+00 -0.88817841970E-15  0.91188000000E+02  0.91188000000E+02 0.  0.
    9900012    2    3    3    0    0  0.32832510033E+02 -0.16147237367E+02 -0.41306880311E+01  0.54367223619E+02  0.40000317884E+02 0.  0.
         12    1    3    3    0    0 -0.32832510033E+02  0.16147237367E+02  0.41306880311E+01  0.36820776381E+02  0.00000000000E+00 0. -1.
         11    1    4    4    0    0  0.63119434845E+01 -0.10260271727E+02 -0.62398352098E+01  0.13566478915E+02  0.51100000000E-03 0.  1.
        -11    1    4    4    0    0  0.21358079860E+02 -0.17271560290E+02  0.51248842300E+01  0.27941703756E+02  0.51100000000E-03 0. -1.
        -12    1    4    4    0    0  0.51624866888E+01  0.11384594649E+02 -0.30157370513E+01  0.12859040948E+02  0.00000000000E+00 0.  1.
</event>
<event>
 8    1  0.1244838E-006  0.9118800E+02  0.7816164E-02  0.1184000E+00
        -11   -1    0    0    0    0  0.00000000000E+00  0.00000000000E+00  0.45593999997E+02  0.45594000000E+02  0.51100000000E-03 0.  1.
         11   -1    0    0    0    0 -0.00000000000E+00 -0.00000000000E+00 -0.45593999997E+02  0.45594000000E+02  0.51100000000E-03 0. -1.
         23    2    1    2    0    0  0.17763568394E-14  0.00000000000E+00  0.00000000000E+00  0.91188000000E+02  0.91188000000E+02 0.  0.
    9900012    2    3    3    0    0  0.14672728807E+02 -0.27302783490E+02  0.19875840503E+02  0.54367082132E+02  0.39999995336E+02 0.  0.
         12    1    3    3    0    0 -0.14672728807E+02  0.27302783490E+02 -0.19875840503E+02  0.36820917868E+02  0.00000000000E+00 0. -1.
         11    1    4    4    0    0 -0.63024817783E+01  0.20510119443E+01 -0.40007982318E+01  0.77417254740E+01  0.51100000000E-03 0. -1.
        -11    1    4    4    0    0  0.90792534550E+01 -0.28438160101E+01  0.11802679017E+02  0.15159926287E+02  0.51100000000E-03 0.  1.
        -12    1    4    4    0    0  0.11895957131E+02 -0.26509979424E+02  0.12073959718E+02  0.31465430370E+02  0.00000000000E+00 0.  1.
</event>
<event>
 8    1  0.1244838E-006  0.9118800E+02  0.7816164E-02  0.1184000E+00
        -11   -1    0    0    0    0  0.00000000000E+00  0.00000000000E+00  0.45593999997E+02  0.45594000000E+02  0.51100000000E-03 0. -1.
         11   -1    0    0    0    0 -0.00000000000E+00 -0.00000000000E+00 -0.45593999997E+02  0.45594000000E+02  0.51100000000E-03 0.  1.
         23    2    1    2    0    0  0.35527136788E-14  0.00000000000E+00  0.17763568394E-14  0.91188000000E+02  0.91188000000E+02 0.  0.
    9900012    2    3    3    0    0 -0.25033894111E+02 -0.26743639073E+02  0.37231500335E+01  0.54367082964E+02  0.39999997233E+02 0.  0.
        -12    1    3    3    0    0  0.25033894111E+02  0.26743639073E+02 -0.37231500335E+01  0.36820917036E+02  0.00000000000E+00 0.  1.
         11    1    4    4    0    0 -0.61760552183E+01 -0.65915191108E+01  0.17373230084E+02  0.19581136486E+02  0.51100000000E-03 0. -1.
        -11    1    4    4    0    0 -0.31223346991E+01 -0.58913566814E+01  0.34624135154E+01  0.75130130530E+01  0.51100000000E-03 0.  1.
        -12    1    4    4    0    0 -0.15735504193E+02 -0.14260763281E+02 -0.17112493566E+02  0.27272933425E+02  0.00000000000E+00 0.  1.
</event>
<event>
 8    1  0.1244838E-006  0.9118800E+02  0.7816164E-02  0.1184000E+00
        -11   -1    0    0    0    0  0.00000000000E+00  0.00000000000E+00  0.45593999997E+02  0.45594000000E+02  0.51100000000E-03 0.  1.
         11   -1    0    0    0    0 -0.00000000000E+00 -0.00000000000E+00 -0.45593999997E+02  0.45594000000E+02  0.51100000000E-03 0. -1.
         23    2    1    2    0    0  0.44408920985E-15  0.00000000000E+00  0.35527136788E-14  0.91188000000E+02  0.91188000000E+02 0.  0.
    9900012    2    3    3    0    0  0.27344034537E+01 -0.21503413023E+02  0.29764157648E+02  0.54367098132E+02  0.40000031812E+02 0.  0.
         12    1    3    3    0    0 -0.27344034537E+01  0.21503413023E+02 -0.29764157648E+02  0.36820901868E+02  0.00000000000E+00 0. -1.
         11    1    4    4    0    0  0.57625707035E+00 -0.11353154187E+02 -0.82808153230E+01  0.14064070708E+02  0.51100000000E-03 0. -1.
        -11    1    4    4    0    0 -0.23300544015E+01 -0.74026405900E+01  0.18496862270E+02  0.20058966955E+02  0.51100000000E-03 0.  1.
         12    1    4    4    0    0  0.44882007848E+01 -0.27476182459E+01  0.19548110701E+02  0.20244060469E+02  0.00000000000E+00 0. -1.
</event>
<event>
 8    1  0.1244838E-006  0.9118800E+02  0.7816164E-02  0.1184000E+00
        -11   -1    0    0    0    0  0.00000000000E+00  0.00000000000E+00  0.45593999997E+02  0.45594000000E+02  0.51100000000E-03 0.  1.
         11   -1    0    0    0    0 -0.00000000000E+00 -0.00000000000E+00 -0.45593999997E+02  0.45594000000E+02  0.51100000000E-03 0. -1.
         23    2    1    2    0    0  0.55511151231E-15 -0.35527136788E-14  0.71054273576E-14  0.91188000000E+02  0.91188000000E+02 0.  0.
    9900012    2    3    3    0    0  0.14163683714E+00  0.24221063727E+02 -0.27732656890E+02  0.54367078674E+02  0.39999987454E+02 0.  0.
        -12    1    3    3    0    0 -0.14163683714E+00 -0.24221063727E+02  0.27732656890E+02  0.36820921326E+02  0.00000000000E+00 0.  1.
         11    1    4    4    0    0  0.19440836855E+01  0.13940133214E+01  0.35509332711E+00  0.24184346277E+01  0.51100000000E-03 0. -1.
        -11    1    4    4    0    0  0.12146684299E+02 -0.35059274576E+01 -0.14381092657E+02  0.19148088496E+02  0.51100000000E-03 0.  1.
         12    1    4    4    0    0 -0.13949131147E+02  0.26332977864E+02 -0.13706657560E+02  0.32800555550E+02  0.00000000000E+00 0. -1.
</event>
<event>
 8    1  0.1244838E-006  0.9118800E+02  0.7816164E-02  0.1184000E+00
        -11   -1    0    0    0    0  0.00000000000E+00  0.00000000000E+00  0.45593999997E+02  0.45594000000E+02  0.51100000000E-03 0.  1.
         11   -1    0    0    0    0 -0.00000000000E+00 -0.00000000000E+00 -0.45593999997E+02  0.45594000000E+02  0.51100000000E-03 0. -1.
         23    2    1    2    0    0 -0.88817841970E-15  0.00000000000E+00  0.00000000000E+00  0.91188000000E+02  0.91188000000E+02 0.  0.
    9900012    2    3    3    0    0  0.50208113384E+01 -0.15224269058E+02  0.33148044026E+02  0.54367085595E+02  0.40000003231E+02 0.  0.
         12    1    3    3    0    0 -0.50208113384E+01  0.15224269058E+02 -0.33148044026E+02  0.36820914405E+02  0.00000000000E+00 0. -1.
         11    1    4    4    0    0  0.90848779249E+01 -0.21259306756E+01  0.36865511939E+01  0.10032210530E+02  0.51100000000E-03 0. -1.
        -11    1    4    4    0    0  0.11793246828E+02 -0.12377152576E+02  0.17448314357E+02  0.24427817152E+02  0.51100000000E-03 0.  1.
        -12    1    4    4    0    0 -0.15857313414E+02 -0.72118580618E+00  0.12013178475E+02  0.19907057913E+02  0.00000000000E+00 0.  1.
</event>
<event>
 8    1  0.1244838E-006  0.9118800E+02  0.7816164E-02  0.1184000E+00
        -11   -1    0    0    0    0  0.00000000000E+00  0.00000000000E+00  0.45593999997E+02  0.45594000000E+02  0.51100000000E-03 0.  1.
         11   -1    0    0    0    0 -0.00000000000E+00 -0.00000000000E+00 -0.45593999997E+02  0.45594000000E+02  0.51100000000E-03 0. -1.
         23    2    1    2    0    0  0.00000000000E+00  0.00000000000E+00  0.00000000000E+00  0.91188000000E+02  0.91188000000E+02 0.  0.
    9900012    2    3    3    0    0 -0.17525569483E+02 -0.18530189001E+02  0.26556840403E+02  0.54367092050E+02  0.40000017946E+02 0.  0.
         12    1    3    3    0    0  0.17525569483E+02  0.18530189001E+02 -0.26556840403E+02  0.36820907950E+02  0.00000000000E+00 0. -1.
         11    1    4    4    0    0  0.12982038232E+01 -0.78325997420E+00 -0.78745594632E+01  0.80191967400E+01  0.51100000000E-03 0. -1.
        -11    1    4    4    0    0 -0.31546619805E+01  0.26279451767E+01  0.10315401268E+02  0.11102499342E+02  0.51100000000E-03 0.  1.
         12    1    4    4    0    0 -0.15669111325E+02 -0.20374874204E+02  0.24115998598E+02  0.35245395967E+02  0.00000000000E+00 0. -1.
</event>
<event>
 8    1  0.1244838E-006  0.9118800E+02  0.7816164E-02  0.1184000E+00
        -11   -1    0    0    0    0  0.00000000000E+00  0.00000000000E+00  0.45593999997E+02  0.45594000000E+02  0.51100000000E-03 0.  1.
         11   -1    0    0    0    0 -0.00000000000E+00 -0.00000000000E+00 -0.45593999997E+02  0.45594000000E+02  0.51100000000E-03 0. -1.
         23    2    1    2    0    0 -0.88817841970E-15 -0.17763568394E-14  0.00000000000E+00  0.91188000000E+02  0.91188000000E+02 0.  0.
    9900012    2    3    3    0    0 -0.27628539706E+01  0.12342608210E+02  0.34580450899E+02  0.54367069487E+02  0.39999966509E+02 0.  0.
         12    1    3    3    0    0  0.27628539706E+01 -0.12342608210E+02 -0.34580450899E+02  0.36820930513E+02  0.00000000000E+00 0. -1.
         11    1    4    4    0    0  0.16198026918E+02  0.11394640908E+02  0.10883141584E+02  0.22597714231E+02  0.51100000000E-03 0. -1.
        -11    1    4    4    0    0 -0.77265430147E+01  0.29273719476E+01  0.16001382410E+02  0.18008698253E+02  0.51100000000E-03 0.  1.
         12    1    4    4    0    0 -0.11234337874E+02 -0.19794046452E+01  0.76959269050E+01  0.13760657003E+02  0.00000000000E+00 0. -1.
</event>
<event>
 8    1  0.1244838E-006  0.9118800E+02  0.7816164E-02  0.1184000E+00
        -11   -1    0    0    0    0  0.00000000000E+00  0.00000000000E+00  0.45593999997E+02  0.45594000000E+02  0.51100000000E-03 0.  1.
         11   -1    0    0    0    0 -0.00000000000E+00 -0.00000000000E+00 -0.45593999997E+02  0.45594000000E+02  0.51100000000E-03 0. -1.
         23    2    1    2    0    0  0.17763568394E-14  0.00000000000E+00  0.35527136788E-14  0.91188000000E+02  0.91188000000E+02 0.  0.
    9900012    2    3    3    0    0 -0.13748568801E+02  0.30089654121E+02  0.16166914098E+02  0.54367088270E+02  0.40000009329E+02 0.  0.
         12    1    3    3    0    0  0.13748568801E+02 -0.30089654121E+02 -0.16166914098E+02  0.36820911730E+02  0.00000000000E+00 0. -1.
         11    1    4    4    0    0 -0.10098240649E+02 -0.12349384407E+01  0.37877162638E+01  0.10855705040E+02  0.51100000000E-03 0. -1.
        -11    1    4    4    0    0  0.10403344867E+02  0.21752477540E+02  0.10843702121E+02  0.26438338440E+02  0.51100000000E-03 0.  1.
        -12    1    4    4    0    0 -0.14053673018E+02  0.95721150218E+01  0.15354957136E+01  0.17073044790E+02  0.00000000000E+00 0.  1.
</event>
<event>
 8    1  0.1244838E-006  0.9118800E+02  0.7816164E-02  0.1184000E+00
        -11   -1    0    0    0    0  0.00000000000E+00  0.00000000000E+00  0.45593999997E+02  0.45594000000E+02  0.51100000000E-03 0. -1.
         11   -1    0    0    0    0 -0.00000000000E+00 -0.00000000000E+00 -0.45593999997E+02  0.45594000000E+02  0.51100000000E-03 0.  1.
         23    2    1    2    0    0 -0.35527136788E-14  0.00000000000E+00 -0.35527136788E-14  0.91188000000E+02  0.91188000000E+02 0.  0.
    9900012    2    3    3    0    0  0.21060200782E+02 -0.22158136575E+02 -0.20524740558E+02  0.54367081374E+02  0.39999993609E+02 0.  0.
         12    1    3    3    0    0 -0.21060200782E+02  0.22158136575E+02  0.20524740558E+02  0.36820918626E+02  0.00000000000E+00 0. -1.
         11    1    4    4    0    0  0.12667257478E+01  0.61910446701E+01 -0.42779356285E+01  0.76311441953E+01  0.51100000000E-03 0. -1.
        -11    1    4    4    0    0  0.17373394144E+02 -0.18441410583E+02 -0.23231252746E+02  0.34374577128E+02  0.51100000000E-03 0.  1.
        -12    1    4    4    0    0  0.24200808902E+01 -0.99077706622E+01  0.69844478160E+01  0.12361360051E+02  0.00000000000E+00 0.  1.
</event>
<event>
 8    1  0.1244838E-006  0.9118800E+02  0.7816164E-02  0.1184000E+00
        -11   -1    0    0    0    0  0.00000000000E+00  0.00000000000E+00  0.45593999997E+02  0.45594000000E+02  0.51100000000E-03 0. -1.
         11   -1    0    0    0    0 -0.00000000000E+00 -0.00000000000E+00 -0.45593999997E+02  0.45594000000E+02  0.51100000000E-03 0.  1.
         23    2    1    2    0    0  0.44408920985E-15  0.00000000000E+00 -0.35527136788E-14  0.91188000000E+02  0.91188000000E+02 0.  0.
    9900012    2    3    3    0    0 -0.37182048885E+01 -0.26361327005E+02 -0.25436913286E+02  0.54367066191E+02  0.39999958995E+02 0.  0.
         12    1    3    3    0    0  0.37182048885E+01  0.26361327005E+02  0.25436913286E+02  0.36820933809E+02  0.00000000000E+00 0. -1.
         11    1    4    4    0    0 -0.11431665719E+02 -0.90783600558E+01 -0.75660499936E+01  0.16442162728E+02  0.51100000000E-03 0. -1.
        -11    1    4    4    0    0  0.39193070078E+01 -0.12469629023E+02 -0.25189480643E+02  0.28378910316E+02  0.51100000000E-03 0.  1.
         12    1    4    4    0    0  0.37941538231E+01 -0.48133379261E+01  0.73186173508E+01  0.95459931464E+01  0.00000000000E+00 0. -1.
</event>
<event>
 8    1  0.1244838E-006  0.9118800E+02  0.7816164E-02  0.1184000E+00
        -11   -1    0    0    0    0  0.00000000000E+00  0.00000000000E+00  0.45593999997E+02  0.45594000000E+02  0.51100000000E-03 0.  1.
         11   -1    0    0    0    0 -0.00000000000E+00 -0.00000000000E+00 -0.45593999997E+02  0.45594000000E+02  0.51100000000E-03 0. -1.
         23    2    1    2    0    0  0.17763568394E-14  0.71054273576E-14 -0.88817841970E-15  0.91188000000E+02  0.91188000000E+02 0.  0.
    9900012    2    3    3    0    0  0.11109757531E+02  0.35012558994E+02 -0.25416598661E+01  0.54367271672E+02  0.40000427429E+02 0.  0.
        -12    1    3    3    0    0 -0.11109757531E+02 -0.35012558994E+02  0.25416598661E+01  0.36820728328E+02  0.00000000000E+00 0.  1.
         11    1    4    4    0    0  0.10215727543E+01 -0.40673296478E+01  0.97514668193E+01  0.10614984067E+02  0.51100000000E-03 0. -1.
        -11    1    4    4    0    0  0.85198416507E+01  0.26310484543E+02 -0.28678781473E+01  0.27803849085E+02  0.51100000000E-03 0.  1.
         12    1    4    4    0    0  0.15683431256E+01  0.12769404099E+02 -0.94252485381E+01  0.15948438520E+02  0.00000000000E+00 0. -1.
</event>
<event>
 8    1  0.1244838E-006  0.9118800E+02  0.7816164E-02  0.1184000E+00
        -11   -1    0    0    0    0  0.00000000000E+00  0.00000000000E+00  0.45593999997E+02  0.45594000000E+02  0.51100000000E-03 0. -1.
         11   -1    0    0    0    0 -0.00000000000E+00 -0.00000000000E+00 -0.45593999997E+02  0.45594000000E+02  0.51100000000E-03 0.  1.
         23    2    1    2    0    0  0.00000000000E+00  0.17763568394E-14  0.00000000000E+00  0.91188000000E+02  0.91188000000E+02 0.  0.
    9900012    2    3    3    0    0  0.33043426626E+02  0.11053610831E+02 -0.11905109444E+02  0.54367055058E+02  0.39999933615E+02 0.  0.
         12    1    3    3    0    0 -0.33043426626E+02 -0.11053610831E+02  0.11905109444E+02  0.36820944942E+02  0.00000000000E+00 0. -1.
         11    1    4    4    0    0 -0.61913487254E+01 -0.29839721169E+01  0.10486102181E+00  0.68737096774E+01  0.51100000000E-03 0. -1.
        -11    1    4    4    0    0  0.20953476364E+02  0.17228807215E+02 -0.96198874427E+01  0.28782324514E+02  0.51100000000E-03 0.  1.
        -12    1    4    4    0    0  0.18281298987E+02 -0.31912242668E+01 -0.23900830231E+01  0.18711020866E+02  0.00000000000E+00 0.  1.
</event>
<event>
 8    1  0.1244838E-006  0.9118800E+02  0.7816164E-02  0.1184000E+00
        -11   -1    0    0    0    0  0.00000000000E+00  0.00000000000E+00  0.45593999997E+02  0.45594000000E+02  0.51100000000E-03 0.  1.
         11   -1    0    0    0    0 -0.00000000000E+00 -0.00000000000E+00 -0.45593999997E+02  0.45594000000E+02  0.51100000000E-03 0. -1.
         23    2    1    2    0    0  0.00000000000E+00  0.00000000000E+00  0.35527136788E-14  0.91188000000E+02  0.91188000000E+02 0.  0.
    9900012    2    3    3    0    0 -0.82149588026E+01 -0.31188361776E+02  0.17764524606E+02  0.54367112003E+02  0.40000063434E+02 0.  0.
         12    1    3    3    0    0  0.82149588026E+01  0.31188361776E+02 -0.17764524606E+02  0.36820887997E+02  0.00000000000E+00 0. -1.
         11    1    4    4    0    0 -0.64049073189E+01 -0.16280178359E+02 -0.81486128463E+01  0.19299402497E+02  0.51100000000E-03 0. -1.
        -11    1    4    4    0    0 -0.12601403782E+01 -0.16021511794E+02  0.96259960705E+01  0.18733301752E+02  0.51100000000E-03 0.  1.
         12    1    4    4    0    0 -0.54991110554E+00  0.11133283764E+01  0.16287141381E+02  0.16334407754E+02  0.00000000000E+00 0. -1.
</event>
<event>
 8    1  0.1244838E-006  0.9118800E+02  0.7816164E-02  0.1184000E+00
        -11   -1    0    0    0    0  0.00000000000E+00  0.00000000000E+00  0.45593999997E+02  0.45594000000E+02  0.51100000000E-03 0.  1.
         11   -1    0    0    0    0 -0.00000000000E+00 -0.00000000000E+00 -0.45593999997E+02  0.45594000000E+02  0.51100000000E-03 0. -1.
         23    2    1    2    0    0 -0.88817841970E-15  0.00000000000E+00  0.00000000000E+00  0.91188000000E+02  0.91188000000E+02 0.  0.
    9900012    2    3    3    0    0 -0.78329548531E+01 -0.35948485831E+02  0.14601352101E+01  0.54367071031E+02  0.39999970030E+02 0.  0.
        -12    1    3    3    0    0  0.78329548531E+01  0.35948485831E+02 -0.14601352101E+01  0.36820928969E+02  0.00000000000E+00 0.  1.
         11    1    4    4    0    0  0.10139618557E+02 -0.10981747756E+02 -0.53883524607E+01  0.15888517576E+02  0.51100000000E-03 0. -1.
        -11    1    4    4    0    0  0.24495407201E+01 -0.13113328203E+02  0.65556005875E+01  0.14863900081E+02  0.51100000000E-03 0.  1.
         12    1    4    4    0    0 -0.20422114130E+02 -0.11853409872E+02  0.29288708322E+00  0.23614653374E+02  0.00000000000E+00 0. -1.
</event>
<event>
 8    1  0.1244838E-006  0.9118800E+02  0.7816164E-02  0.1184000E+00
        -11   -1    0    0    0    0  0.00000000000E+00  0.00000000000E+00  0.45593999997E+02  0.45594000000E+02  0.51100000000E-03 0.  1.
         11   -1    0    0    0    0 -0.00000000000E+00 -0.00000000000E+00 -0.45593999997E+02  0.45594000000E+02  0.51100000000E-03 0. -1.
         23    2    1    2    0    0  0.17763568394E-14  0.00000000000E+00 -0.88817841970E-15  0.91188000000E+02  0.91188000000E+02 0.  0.
    9900012    2    3    3    0    0  0.14428634367E+02 -0.33316296689E+02 -0.61332894968E+01  0.54367104373E+02  0.40000046039E+02 0.  0.
        -12    1    3    3    0    0 -0.14428634367E+02  0.33316296689E+02  0.61332894968E+01  0.36820895627E+02  0.00000000000E+00 0.  1.
         11    1    4    4    0    0  0.63673829271E+01 -0.50623673571E+01  0.33814004582E+00  0.81415887608E+01  0.51100000000E-03 0. -1.
        -11    1    4    4    0    0 -0.58602680607E+01  0.74239479783E+00  0.88161942492E+01  0.10612218104E+02  0.51100000000E-03 0.  1.
         12    1    4    4    0    0  0.13921519500E+02 -0.28996324129E+02 -0.15287623792E+02  0.35613297508E+02  0.00000000000E+00 0. -1.
</event>
<event>
 8    1  0.1244838E-006  0.9118800E+02  0.7816164E-02  0.1184000E+00
        -11   -1    0    0    0    0  0.00000000000E+00  0.00000000000E+00  0.45593999997E+02  0.45594000000E+02  0.51100000000E-03 0. -1.
         11   -1    0    0    0    0 -0.00000000000E+00 -0.00000000000E+00 -0.45593999997E+02  0.45594000000E+02  0.51100000000E-03 0.  1.
         23    2    1    2    0    0 -0.88817841970E-15 -0.44408920985E-15  0.00000000000E+00  0.91188000000E+02  0.91188000000E+02 0.  0.
    9900012    2    3    3    0    0  0.56674561639E+01  0.26543124920E+01 -0.36285176057E+02  0.54367089696E+02  0.40000012579E+02 0.  0.
         12    1    3    3    0    0 -0.56674561639E+01 -0.26543124920E+01  0.36285176057E+02  0.36820910304E+02  0.00000000000E+00 0. -1.
         11    1    4    4    0    0 -0.47723397217E+01  0.16136090870E+00  0.12589699808E+01  0.49382455828E+01  0.51100000000E-03 0.  1.
        -11    1    4    4    0    0 -0.11978950668E+01 -0.93014448212E+01 -0.11603222855E+01  0.94497712364E+01  0.51100000000E-03 0. -1.
        -12    1    4    4    0    0  0.11637690953E+02  0.11794396405E+02 -0.36383823752E+02  0.39979072877E+02  0.00000000000E+00 0.  1.
</event>
<event>
 8    1  0.1244838E-006  0.9118800E+02  0.7816164E-02  0.1184000E+00
        -11   -1    0    0    0    0  0.00000000000E+00  0.00000000000E+00  0.45593999997E+02  0.45594000000E+02  0.51100000000E-03 0. -1.
         11   -1    0    0    0    0 -0.00000000000E+00 -0.00000000000E+00 -0.45593999997E+02  0.45594000000E+02  0.51100000000E-03 0.  1.
         23    2    1    2    0    0  0.00000000000E+00  0.00000000000E+00  0.71054273576E-14  0.91188000000E+02  0.91188000000E+02 0.  0.
    9900012    2    3    3    0    0  0.13488646810E+02  0.56573966281E+01 -0.33791000951E+02  0.54367062008E+02  0.39999949459E+02 0.  0.
         12    1    3    3    0    0 -0.13488646810E+02 -0.56573966281E+01  0.33791000951E+02  0.36820937992E+02  0.00000000000E+00 0. -1.
         11    1    4    4    0    0  0.24211570010E+02  0.76141350426E+01 -0.10579435118E+02  0.27497265728E+02  0.51100000000E-03 0. -1.
        -11    1    4    4    0    0 -0.95929353511E+01 -0.89873641596E+00 -0.23404221701E+02  0.25309874150E+02  0.51100000000E-03 0.  1.
         12    1    4    4    0    0 -0.11299878493E+01 -0.10580019986E+01  0.19265586818E+00  0.15599221301E+01  0.00000000000E+00 0. -1.
</event>
<event>
 8    1  0.1244838E-006  0.9118800E+02  0.7816164E-02  0.1184000E+00
        -11   -1    0    0    0    0  0.00000000000E+00  0.00000000000E+00  0.45593999997E+02  0.45594000000E+02  0.51100000000E-03 0. -1.
         11   -1    0    0    0    0 -0.00000000000E+00 -0.00000000000E+00 -0.45593999997E+02  0.45594000000E+02  0.51100000000E-03 0.  1.
         23    2    1    2    0    0 -0.88817841970E-15  0.35527136788E-14 -0.35527136788E-14  0.91188000000E+02  0.91188000000E+02 0.  0.
    9900012    2    3    3    0    0 -0.60757688371E+01 -0.19794406139E+02 -0.30447444386E+02  0.54367077266E+02  0.39999984243E+02 0.  0.
         12    1    3    3    0    0  0.60757688371E+01  0.19794406139E+02  0.30447444386E+02  0.36820922734E+02  0.00000000000E+00 0. -1.
         11    1    4    4    0    0 -0.10990041820E+01 -0.25726308253E+02 -0.75319284499E+01  0.26828728873E+02  0.51100000000E-03 0. -1.
        -11    1    4    4    0    0  0.12031049877E+01 -0.30804639352E+01 -0.10451851462E+02  0.10962568992E+02  0.51100000000E-03 0.  1.
         12    1    4    4    0    0 -0.61798696428E+01  0.90123660491E+01 -0.12463664475E+02  0.16575779401E+02  0.00000000000E+00 0. -1.
</event>
<event>
 8    1  0.1244838E-006  0.9118800E+02  0.7816164E-02  0.1184000E+00
        -11   -1    0    0    0    0  0.00000000000E+00  0.00000000000E+00  0.45593999997E+02  0.45594000000E+02  0.51100000000E-03 0. -1.
         11   -1    0    0    0    0 -0.00000000000E+00 -0.00000000000E+00 -0.45593999997E+02  0.45594000000E+02  0.51100000000E-03 0.  1.
         23    2    1    2    0    0  0.00000000000E+00  0.00000000000E+00  0.00000000000E+00  0.91188000000E+02  0.91188000000E+02 0.  0.
    9900012    2    3    3    0    0 -0.92450624605E+01  0.46989944407E+01  0.35330278132E+02  0.54367078209E+02  0.39999986393E+02 0.  0.
        -12    1    3    3    0    0  0.92450624605E+01 -0.46989944407E+01 -0.35330278132E+02  0.36820921791E+02  0.00000000000E+00 0.  1.
         11    1    4    4    0    0  0.78535500564E+01  0.18121186172E+01  0.10077906747E+02  0.12904504137E+02  0.51100000000E-03 0. -1.
        -11    1    4    4    0    0  0.30583374571E+01  0.39766538271E+01 -0.36533152487E+01  0.62059581234E+01  0.51100000000E-03 0.  1.
         12    1    4    4    0    0 -0.20156949974E+02 -0.10897780037E+01  0.28905686634E+02  0.35256615948E+02  0.00000000000E+00 0. -1.
</event>
<event>
 8    1  0.1244838E-006  0.9118800E+02  0.7816164E-02  0.1184000E+00
        -11   -1    0    0    0    0  0.00000000000E+00  0.00000000000E+00  0.45593999997E+02  0.45594000000E+02  0.51100000000E-03 0.  1.
         11   -1    0    0    0    0 -0.00000000000E+00 -0.00000000000E+00 -0.45593999997E+02  0.45594000000E+02  0.51100000000E-03 0. -1.
         23    2    1    2    0    0 -0.35527136788E-14  0.13322676296E-14 -0.71054273576E-14  0.91188000000E+02  0.91188000000E+02 0.  0.
    9900012    2    3    3    0    0 -0.24979084342E+02 -0.12340444077E+01 -0.27024109121E+02  0.54367082114E+02  0.39999995296E+02 0.  0.
        -12    1    3    3    0    0  0.24979084342E+02  0.12340444077E+01  0.27024109121E+02  0.36820917886E+02  0.00000000000E+00 0.  1.
         11    1    4    4    0    0  0.72249271370E-01  0.10057112217E+02 -0.13379844612E+02  0.16738308403E+02  0.51100000000E-03 0. -1.
        -11    1    4    4    0    0 -0.62703207533E+01 -0.64467419263E+01  0.53642256051E+01  0.10471500390E+02  0.51100000000E-03 0.  1.
         12    1    4    4    0    0 -0.18781012860E+02 -0.48444146980E+01 -0.19008490115E+02  0.27157273321E+02  0.00000000000E+00 0. -1.
</event>
<event>
 8    1  0.1244838E-006  0.9118800E+02  0.7816164E-02  0.1184000E+00
        -11   -1    0    0    0    0  0.00000000000E+00  0.00000000000E+00  0.45593999997E+02  0.45594000000E+02  0.51100000000E-03 0.  1.
         11   -1    0    0    0    0 -0.00000000000E+00 -0.00000000000E+00 -0.45593999997E+02  0.45594000000E+02  0.51100000000E-03 0. -1.
         23    2    1    2    0    0  0.17763568394E-14  0.00000000000E+00 -0.35527136788E-14  0.91188000000E+02  0.91188000000E+02 0.  0.
    9900012    2    3    3    0    0 -0.10875228818E+02  0.26103824212E+02  0.23581791328E+02  0.54367066788E+02  0.39999960357E+02 0.  0.
         12    1    3    3    0    0  0.10875228818E+02 -0.26103824212E+02 -0.23581791328E+02  0.36820933212E+02  0.00000000000E+00 0. -1.
         11    1    4    4    0    0 -0.18925518410E+01 -0.52331385566E+01  0.11519228159E+02  0.12792971088E+02  0.51100000000E-03 0. -1.
        -11    1    4    4    0    0  0.83909818373E+00  0.19684244751E+02  0.16502870279E+02  0.25700550673E+02  0.51100000000E-03 0.  1.
        -12    1    4    4    0    0 -0.98217751609E+01  0.11652718018E+02 -0.44403071099E+01  0.15873545028E+02  0.00000000000E+00 0.  1.
</event>
<event>
 8    1  0.1244838E-006  0.9118800E+02  0.7816164E-02  0.1184000E+00
        -11   -1    0    0    0    0  0.00000000000E+00  0.00000000000E+00  0.45593999997E+02  0.45594000000E+02  0.51100000000E-03 0. -1.
         11   -1    0    0    0    0 -0.00000000000E+00 -0.00000000000E+00 -0.45593999997E+02  0.45594000000E+02  0.51100000000E-03 0.  1.
         23    2    1    2    0    0  0.00000000000E+00  0.00000000000E+00  0.00000000000E+00  0.91188000000E+02  0.91188000000E+02 0.  0.
    9900012    2    3    3    0    0  0.20518330601E+02  0.28617274549E+02  0.10762408760E+02  0.54367085622E+02  0.40000003293E+02 0.  0.
        -12    1    3    3    0    0 -0.20518330601E+02 -0.28617274549E+02 -0.10762408760E+02  0.36820914378E+02  0.00000000000E+00 0.  1.
         11    1    4    4    0    0  0.12394603894E+02  0.15943919506E+02  0.19222987276E+02  0.27881140847E+02  0.51100000000E-03 0. -1.
        -11    1    4    4    0    0  0.14705653714E+02  0.10311971156E+02 -0.73455575489E+01  0.19404901862E+02  0.51100000000E-03 0.  1.
        -12    1    4    4    0    0 -0.65819270069E+01  0.23613838870E+01 -0.11150209664E+01  0.70810429134E+01  0.00000000000E+00 0.  1.
</event>
<event>
 8    1  0.1244838E-006  0.9118800E+02  0.7816164E-02  0.1184000E+00
        -11   -1    0    0    0    0  0.00000000000E+00  0.00000000000E+00  0.45593999997E+02  0.45594000000E+02  0.51100000000E-03 0. -1.
         11   -1    0    0    0    0 -0.00000000000E+00 -0.00000000000E+00 -0.45593999997E+02  0.45594000000E+02  0.51100000000E-03 0.  1.
         23    2    1    2    0    0  0.44408920985E-15 -0.71054273576E-14  0.35527136788E-14  0.91188000000E+02  0.91188000000E+02 0.  0.
    9900012    2    3    3    0    0  0.25672353792E+01 -0.28630498714E+02  0.23010505437E+02  0.54367088624E+02  0.40000010137E+02 0.  0.
        -12    1    3    3    0    0 -0.25672353792E+01  0.28630498714E+02 -0.23010505437E+02  0.36820911376E+02  0.00000000000E+00 0.  1.
         11    1    4    4    0    0 -0.46441097081E+00 -0.20789550288E+02  0.11649217094E+02  0.23835379961E+02  0.51100000000E-03 0. -1.
        -11    1    4    4    0    0 -0.51501820329E+01  0.98254803336E+00  0.16599512640E+02  0.17407860172E+02  0.51100000000E-03 0.  1.
        -12    1    4    4    0    0  0.81818283829E+01 -0.88234964591E+01 -0.52382242970E+01  0.13123848492E+02  0.00000000000E+00 0.  1.
</event>
<event>
 8    1  0.1244838E-006  0.9118800E+02  0.7816164E-02  0.1184000E+00
        -11   -1    0    0    0    0  0.00000000000E+00  0.00000000000E+00  0.45593999997E+02  0.45594000000E+02  0.51100000000E-03 0.  1.
         11   -1    0    0    0    0 -0.00000000000E+00 -0.00000000000E+00 -0.45593999997E+02  0.45594000000E+02  0.51100000000E-03 0. -1.
         23    2    1    2    0    0  0.35527136788E-14  0.26645352591E-14  0.00000000000E+00  0.91188000000E+02  0.91188000000E+02 0.  0.
    9900012    2    3    3    0    0 -0.31093916171E+02 -0.67865606251E+01 -0.18517352388E+02  0.54367063464E+02  0.39999952778E+02 0.  0.
        -12    1    3    3    0    0  0.31093916171E+02  0.67865606251E+01  0.18517352388E+02  0.36820936536E+02  0.00000000000E+00 0.  1.
         11    1    4    4    0    0 -0.21837425734E+02 -0.13865074908E+02 -0.20274445335E+02  0.32865888072E+02  0.51100000000E-03 0. -1.
        -11    1    4    4    0    0 -0.35605678680E+01  0.12835979060E+02  0.77862037551E+00  0.13343397315E+02  0.51100000000E-03 0.  1.
        -12    1    4    4    0    0 -0.56959225689E+01 -0.57574647771E+01  0.97847257088E+00  0.81577780763E+01  0.00000000000E+00 0.  1.
</event>
<event>
 8    1  0.1244838E-006  0.9118800E+02  0.7816164E-02  0.1184000E+00
        -11   -1    0    0    0    0  0.00000000000E+00  0.00000000000E+00  0.45593999997E+02  0.45594000000E+02  0.51100000000E-03 0.  1.
         11   -1    0    0    0    0 -0.00000000000E+00 -0.00000000000E+00 -0.45593999997E+02  0.45594000000E+02  0.51100000000E-03 0. -1.
         23    2    1    2    0    0  0.00000000000E+00 -0.88817841970E-15 -0.35527136788E-14  0.91188000000E+02  0.91188000000E+02 0.  0.
    9900012    2    3    3    0    0  0.20592540577E+02  0.70967808034E+01  0.29687767800E+02  0.54367074127E+02  0.39999977087E+02 0.  0.
        -12    1    3    3    0    0 -0.20592540577E+02 -0.70967808034E+01 -0.29687767800E+02  0.36820925873E+02  0.00000000000E+00 0.  1.
         11    1    4    4    0    0  0.10075783757E+02  0.10179458490E+02  0.92551646010E+01  0.17052884376E+02  0.51100000000E-03 0. -1.
        -11    1    4    4    0    0  0.20417063074E+02 -0.40747624177E+01  0.10752505836E+02  0.23432382195E+02  0.51100000000E-03 0.  1.
        -12    1    4    4    0    0 -0.99003062544E+01  0.99208473090E+00  0.96800973634E+01  0.13881807555E+02  0.00000000000E+00 0.  1.
</event>
<event>
 8    1  0.1244838E-006  0.9118800E+02  0.7816164E-02  0.1184000E+00
        -11   -1    0    0    0    0  0.00000000000E+00  0.00000000000E+00  0.45593999997E+02  0.45594000000E+02  0.51100000000E-03 0.  1.
         11   -1    0    0    0    0 -0.00000000000E+00 -0.00000000000E+00 -0.45593999997E+02  0.45594000000E+02  0.51100000000E-03 0. -1.
         23    2    1    2    0    0  0.00000000000E+00  0.00000000000E+00  0.00000000000E+00  0.91188000000E+02  0.91188000000E+02 0.  0.
    9900012    2    3    3    0    0 -0.10407701590E+02 -0.81163667674E+01  0.34374180773E+02  0.54367082498E+02  0.39999996170E+02 0.  0.
         12    1    3    3    0    0  0.10407701590E+02  0.81163667674E+01 -0.34374180773E+02  0.36820917502E+02  0.00000000000E+00 0. -1.
         11    1    4    4    0    0 -0.88589770417E+01  0.76923573457E+01  0.88243811744E+01  0.14680719980E+02  0.51100000000E-03 0. -1.
        -11    1    4    4    0    0 -0.11969164199E+02 -0.23127088051E+01  0.16092145349E+02  0.20188280160E+02  0.51100000000E-03 0.  1.
         12    1    4    4    0    0  0.10420439650E+02 -0.13496015308E+02  0.94576542499E+01  0.19498082357E+02  0.00000000000E+00 0. -1.
</event>
<event>
 8    1  0.1244838E-006  0.9118800E+02  0.7816164E-02  0.1184000E+00
        -11   -1    0    0    0    0  0.00000000000E+00  0.00000000000E+00  0.45593999997E+02  0.45594000000E+02  0.51100000000E-03 0. -1.
         11   -1    0    0    0    0 -0.00000000000E+00 -0.00000000000E+00 -0.45593999997E+02  0.45594000000E+02  0.51100000000E-03 0.  1.
         23    2    1    2    0    0 -0.35527136788E-14  0.00000000000E+00  0.17763568394E-14  0.91188000000E+02  0.91188000000E+02 0.  0.
    9900012    2    3    3    0    0  0.30960254512E+02 -0.11929668425E+02 -0.15966388926E+02  0.54367083071E+02  0.39999997477E+02 0.  0.
         12    1    3    3    0    0 -0.30960254512E+02  0.11929668425E+02  0.15966388926E+02  0.36820916929E+02  0.00000000000E+00 0. -1.
         11    1    4    4    0    0  0.16680006177E+02 -0.73412937916E+01 -0.54021485568E+01  0.19007903880E+02  0.51100000000E-03 0. -1.
        -11    1    4    4    0    0  0.20633854670E+02  0.24726323312E+01 -0.14220342198E+02  0.25181104059E+02  0.51100000000E-03 0.  1.
         12    1    4    4    0    0 -0.63536063352E+01 -0.70610069642E+01  0.36561018288E+01  0.10178075132E+02  0.00000000000E+00 0. -1.
</event>
<event>
 8    1  0.1244838E-006  0.9118800E+02  0.7816164E-02  0.1184000E+00
        -11   -1    0    0    0    0  0.00000000000E+00  0.00000000000E+00  0.45593999997E+02  0.45594000000E+02  0.51100000000E-03 0.  1.
         11   -1    0    0    0    0 -0.00000000000E+00 -0.00000000000E+00 -0.45593999997E+02  0.45594000000E+02  0.51100000000E-03 0. -1.
         23    2    1    2    0    0  0.00000000000E+00  0.00000000000E+00  0.35527136788E-14  0.91188000000E+02  0.91188000000E+02 0.  0.
    9900012    2    3    3    0    0  0.19454550322E+02  0.89569969369E+01  0.29951166872E+02  0.54367085843E+02  0.40000003797E+02 0.  0.
         12    1    3    3    0    0 -0.19454550322E+02 -0.89569969369E+01 -0.29951166872E+02  0.36820914157E+02  0.00000000000E+00 0. -1.
         11    1    4    4    0    0 -0.57620658665E+01 -0.34096683802E+01 -0.15853680885E+01  0.68804530193E+01  0.51100000000E-03 0. -1.
        -11    1    4    4    0    0  0.29119609066E+02  0.94216912612E+01  0.27517844921E+02  0.41157644341E+02  0.51100000000E-03 0.  1.
        -12    1    4    4    0    0 -0.39029928769E+01  0.29449740559E+01  0.40186900391E+01  0.63289884829E+01  0.00000000000E+00 0.  1.
</event>
<event>
 8    1  0.1244838E-006  0.9118800E+02  0.7816164E-02  0.1184000E+00
        -11   -1    0    0    0    0  0.00000000000E+00  0.00000000000E+00  0.45593999997E+02  0.45594000000E+02  0.51100000000E-03 0. -1.
         11   -1    0    0    0    0 -0.00000000000E+00 -0.00000000000E+00 -0.45593999997E+02  0.45594000000E+02  0.51100000000E-03 0.  1.
         23    2    1    2    0    0  0.00000000000E+00  0.35527136788E-14  0.00000000000E+00  0.91188000000E+02  0.91188000000E+02 0.  0.
    9900012    2    3    3    0    0  0.13589393268E+02 -0.11430491019E+02 -0.32256038411E+02  0.54367085450E+02  0.40000002899E+02 0.  0.
         12    1    3    3    0    0 -0.13589393268E+02  0.11430491019E+02  0.32256038411E+02  0.36820914550E+02  0.00000000000E+00 0. -1.
         11    1    4    4    0    0  0.13135338569E+01  0.23522470850E+01  0.87712208122E+00  0.28333338929E+01  0.51100000000E-03 0. -1.
        -11    1    4    4    0    0 -0.25223967681E+01 -0.15176508929E+02 -0.33285775425E+02  0.36669220808E+02  0.51100000000E-03 0.  1.
         12    1    4    4    0    0  0.14798256179E+02  0.13937708248E+01  0.15261493282E+00  0.14864530749E+02  0.00000000000E+00 0. -1.
</event>
<event>
 8    1  0.1244838E-006  0.9118800E+02  0.7816164E-02  0.1184000E+00
        -11   -1    0    0    0    0  0.00000000000E+00  0.00000000000E+00  0.45593999997E+02  0.45594000000E+02  0.51100000000E-03 0. -1.
         11   -1    0    0    0    0 -0.00000000000E+00 -0.00000000000E+00 -0.45593999997E+02  0.45594000000E+02  0.51100000000E-03 0.  1.
         23    2    1    2    0    0 -0.16653345369E-15  0.35527136788E-14 -0.71054273576E-14  0.91188000000E+02  0.91188000000E+02 0.  0.
    9900012    2    3    3    0    0 -0.37669520773E+00 -0.18124881519E+02  0.32048803896E+02  0.54367094790E+02  0.40000024192E+02 0.  0.
        -12    1    3    3    0    0  0.37669520773E+00  0.18124881519E+02 -0.32048803896E+02  0.36820905210E+02  0.00000000000E+00 0.  1.
         11    1    4    4    0    0  0.26831181893E+01 -0.90544476911E+01  0.12013449255E+01  0.95197361360E+01  0.51100000000E-03 0. -1.
        -11    1    4    4    0    0  0.21089701992E+01 -0.11690272073E+02 -0.15104826097E+01  0.11974630450E+02  0.51100000000E-03 0.  1.
         12    1    4    4    0    0 -0.51687835962E+01  0.26198382447E+01  0.32357941580E+02  0.32872728204E+02  0.00000000000E+00 0. -1.
</event>
<event>
 8    1  0.1244838E-006  0.9118800E+02  0.7816164E-02  0.1184000E+00
        -11   -1    0    0    0    0  0.00000000000E+00  0.00000000000E+00  0.45593999997E+02  0.45594000000E+02  0.51100000000E-03 0. -1.
         11   -1    0    0    0    0 -0.00000000000E+00 -0.00000000000E+00 -0.45593999997E+02  0.45594000000E+02  0.51100000000E-03 0.  1.
         23    2    1    2    0    0  0.00000000000E+00  0.00000000000E+00  0.00000000000E+00  0.91188000000E+02  0.91188000000E+02 0.  0.
    9900012    2    3    3    0    0  0.88694109831E+01 -0.34217548620E+02  0.10308821053E+02  0.54367097291E+02  0.40000029895E+02 0.  0.
        -12    1    3    3    0    0 -0.88694109831E+01  0.34217548620E+02 -0.10308821053E+02  0.36820902709E+02  0.00000000000E+00 0.  1.
         11    1    4    4    0    0  0.56522466301E-01 -0.98604070997E+01 -0.64884493482E+01  0.11803846753E+02  0.51100000000E-03 0. -1.
        -11    1    4    4    0    0 -0.43917863870E+01  0.62439921854E+00 -0.51407836501E+01  0.67900897528E+01  0.51100000000E-03 0.  1.
         12    1    4    4    0    0  0.13204674904E+02 -0.24981540739E+02  0.21938054051E+02  0.35773160786E+02  0.00000000000E+00 0. -1.
</event>
<event>
 8    1  0.1244838E-006  0.9118800E+02  0.7816164E-02  0.1184000E+00
        -11   -1    0    0    0    0  0.00000000000E+00  0.00000000000E+00  0.45593999997E+02  0.45594000000E+02  0.51100000000E-03 0. -1.
         11   -1    0    0    0    0 -0.00000000000E+00 -0.00000000000E+00 -0.45593999997E+02  0.45594000000E+02  0.51100000000E-03 0.  1.
         23    2    1    2    0    0  0.00000000000E+00  0.00000000000E+00  0.71054273576E-14  0.91188000000E+02  0.91188000000E+02 0.  0.
    9900012    2    3    3    0    0  0.13816987632E+02  0.11067520983E+02 -0.32285924713E+02  0.54367080641E+02  0.39999991936E+02 0.  0.
         12    1    3    3    0    0 -0.13816987632E+02 -0.11067520983E+02  0.32285924713E+02  0.36820919359E+02  0.00000000000E+00 0. -1.
         11    1    4    4    0    0 -0.39865922435E+01 -0.86892210072E+01 -0.14141798089E+02  0.17070030255E+02  0.51100000000E-03 0. -1.
        -11    1    4    4    0    0 -0.83332346480E+00  0.84196136424E+00 -0.92021577161E+01  0.92780942995E+01  0.51100000000E-03 0.  1.
         12    1    4    4    0    0  0.18636903341E+02  0.18914780626E+02 -0.89419689070E+01  0.28018956087E+02  0.00000000000E+00 0. -1.
</event>
<event>
 8    1  0.1244838E-006  0.9118800E+02  0.7816164E-02  0.1184000E+00
        -11   -1    0    0    0    0  0.00000000000E+00  0.00000000000E+00  0.45593999997E+02  0.45594000000E+02  0.51100000000E-03 0.  1.
         11   -1    0    0    0    0 -0.00000000000E+00 -0.00000000000E+00 -0.45593999997E+02  0.45594000000E+02  0.51100000000E-03 0. -1.
         23    2    1    2    0    0  0.00000000000E+00  0.00000000000E+00 -0.13322676296E-14  0.91188000000E+02  0.91188000000E+02 0.  0.
    9900012    2    3    3    0    0  0.22149102799E+02  0.29343801534E+02 -0.20343332457E+01  0.54367082643E+02  0.39999996500E+02 0.  0.
        -12    1    3    3    0    0 -0.22149102799E+02 -0.29343801534E+02  0.20343332457E+01  0.36820917357E+02  0.00000000000E+00 0.  1.
         11    1    4    4    0    0  0.53102142864E+01 -0.23336239426E+01 -0.73149775531E+01  0.93355810391E+01  0.51100000000E-03 0. -1.
        -11    1    4    4    0    0 -0.33571613448E+01  0.16802898270E+02  0.95065944497E+01  0.19595490830E+02  0.51100000000E-03 0.  1.
         12    1    4    4    0    0  0.20196049858E+02  0.14874527207E+02 -0.42259501423E+01  0.25436010774E+02  0.00000000000E+00 0. -1.
</event>
<event>
 8    1  0.1244838E-006  0.9118800E+02  0.7816164E-02  0.1184000E+00
        -11   -1    0    0    0    0  0.00000000000E+00  0.00000000000E+00  0.45593999997E+02  0.45594000000E+02  0.51100000000E-03 0.  1.
         11   -1    0    0    0    0 -0.00000000000E+00 -0.00000000000E+00 -0.45593999997E+02  0.45594000000E+02  0.51100000000E-03 0. -1.
         23    2    1    2    0    0  0.00000000000E+00  0.26645352591E-14  0.00000000000E+00  0.91188000000E+02  0.91188000000E+02 0.  0.
    9900012    2    3    3    0    0 -0.16865103472E+02  0.59011453725E+01  0.32195114790E+02  0.54367073230E+02  0.39999975043E+02 0.  0.
         12    1    3    3    0    0  0.16865103472E+02 -0.59011453725E+01 -0.32195114790E+02  0.36820926770E+02  0.00000000000E+00 0. -1.
         11    1    4    4    0    0 -0.20440622399E+02 -0.67281227963E+01  0.17187474497E+02  0.27540805367E+02  0.51100000000E-03 0. -1.
        -11    1    4    4    0    0 -0.41848033931E+00  0.16275130276E+02  0.13662499233E+02  0.21253679137E+02  0.51100000000E-03 0.  1.
         12    1    4    4    0    0  0.39939992662E+01 -0.36458621072E+01  0.13451410603E+01  0.55725887266E+01  0.00000000000E+00 0. -1.
</event>
<event>
 8    1  0.1244838E-006  0.9118800E+02  0.7816164E-02  0.1184000E+00
        -11   -1    0    0    0    0  0.00000000000E+00  0.00000000000E+00  0.45593999997E+02  0.45594000000E+02  0.51100000000E-03 0. -1.
         11   -1    0    0    0    0 -0.00000000000E+00 -0.00000000000E+00 -0.45593999997E+02  0.45594000000E+02  0.51100000000E-03 0.  1.
         23    2    1    2    0    0 -0.17763568394E-14 -0.35527136788E-14  0.00000000000E+00  0.91188000000E+02  0.91188000000E+02 0.  0.
    9900012    2    3    3    0    0  0.13447931310E+02  0.21265243303E+02 -0.26883492916E+02  0.54367087184E+02  0.40000006853E+02 0.  0.
         12    1    3    3    0    0 -0.13447931310E+02 -0.21265243303E+02  0.26883492916E+02  0.36820912816E+02  0.00000000000E+00 0. -1.
         11    1    4    4    0    0  0.29797078626E+01  0.38193148638E+01 -0.14654085185E+02  0.15433989693E+02  0.51100000000E-03 0. -1.
        -11    1    4    4    0    0  0.13032367508E+02  0.17393922191E+02 -0.20741326810E+02  0.30043198401E+02  0.51100000000E-03 0.  1.
         12    1    4    4    0    0 -0.25641440602E+01  0.52006248389E-01  0.85119190796E+01  0.88898990899E+01  0.00000000000E+00 0. -1.
</event>
<event>
 8    1  0.1244838E-006  0.9118800E+02  0.7816164E-02  0.1184000E+00
        -11   -1    0    0    0    0  0.00000000000E+00  0.00000000000E+00  0.45593999997E+02  0.45594000000E+02  0.51100000000E-03 0. -1.
         11   -1    0    0    0    0 -0.00000000000E+00 -0.00000000000E+00 -0.45593999997E+02  0.45594000000E+02  0.51100000000E-03 0.  1.
         23    2    1    2    0    0  0.00000000000E+00  0.00000000000E+00  0.88817841970E-15  0.91188000000E+02  0.91188000000E+02 0.  0.
    9900012    2    3    3    0    0  0.34977951345E+02 -0.10072559952E+02  0.55556780868E+01  0.54367094209E+02  0.40000022868E+02 0.  0.
        -12    1    3    3    0    0 -0.34977951345E+02  0.10072559952E+02 -0.55556780868E+01  0.36820905791E+02  0.00000000000E+00 0.  1.
         11    1    4    4    0    0  0.74965878369E+01  0.12940513616E+01 -0.16138768471E+01  0.77767600491E+01  0.51100000000E-03 0. -1.
        -11    1    4    4    0    0  0.36458741801E+00  0.60096240334E+01  0.12566999093E+02  0.13934775616E+02  0.51100000000E-03 0.  1.
         12    1    4    4    0    0  0.27116776090E+02 -0.17376235347E+02 -0.53974441587E+01  0.32655558544E+02  0.00000000000E+00 0. -1.
</event>
<event>
 8    1  0.1244838E-006  0.9118800E+02  0.7816164E-02  0.1184000E+00
        -11   -1    0    0    0    0  0.00000000000E+00  0.00000000000E+00  0.45593999997E+02  0.45594000000E+02  0.51100000000E-03 0.  1.
         11   -1    0    0    0    0 -0.00000000000E+00 -0.00000000000E+00 -0.45593999997E+02  0.45594000000E+02  0.51100000000E-03 0. -1.
         23    2    1    2    0    0  0.00000000000E+00  0.13322676296E-14  0.00000000000E+00  0.91188000000E+02  0.91188000000E+02 0.  0.
    9900012    2    3    3    0    0  0.10010601146E+02 -0.24444627315E+01 -0.35349574801E+02  0.54367082412E+02  0.39999995975E+02 0.  0.
        -12    1    3    3    0    0 -0.10010601146E+02  0.24444627315E+01  0.35349574801E+02  0.36820917588E+02  0.00000000000E+00 0.  1.
         11    1    4    4    0    0 -0.93849079787E+01 -0.86559162901E+01 -0.82454748135E+01  0.15198330163E+02  0.51100000000E-03 0. -1.
        -11    1    4    4    0    0  0.16546267109E+02  0.81578474017E+01 -0.86150458176E+01  0.20360462769E+02  0.51100000000E-03 0.  1.
         12    1    4    4    0    0  0.28492420163E+01 -0.19463938431E+01 -0.18489054170E+02  0.18808289480E+02  0.00000000000E+00 0. -1.
</event>
<event>
 8    1  0.1244838E-006  0.9118800E+02  0.7816164E-02  0.1184000E+00
        -11   -1    0    0    0    0  0.00000000000E+00  0.00000000000E+00  0.45593999997E+02  0.45594000000E+02  0.51100000000E-03 0.  1.
         11   -1    0    0    0    0 -0.00000000000E+00 -0.00000000000E+00 -0.45593999997E+02  0.45594000000E+02  0.51100000000E-03 0. -1.
         23    2    1    2    0    0  0.00000000000E+00  0.00000000000E+00  0.35527136788E-14  0.91188000000E+02  0.91188000000E+02 0.  0.
    9900012    2    3    3    0    0 -0.18174929353E+02  0.20025336321E+02  0.24988741729E+02  0.54367090656E+02  0.40000014768E+02 0.  0.
         12    1    3    3    0    0  0.18174929353E+02 -0.20025336321E+02 -0.24988741729E+02  0.36820909344E+02  0.00000000000E+00 0. -1.
         11    1    4    4    0    0  0.11043648145E+01 -0.45294527499E+01 -0.56240436806E+01  0.73051647099E+01  0.51100000000E-03 0. -1.
        -11    1    4    4    0    0  0.62767358304E+00  0.56645496300E+01  0.13668829460E+02  0.14809388769E+02  0.51100000000E-03 0.  1.
        -12    1    4    4    0    0 -0.19906967750E+02  0.18890239440E+02  0.16943955949E+02  0.32252537177E+02  0.00000000000E+00 0.  1.
</event>
<event>
 8    1  0.1244838E-006  0.9118800E+02  0.7816164E-02  0.1184000E+00
        -11   -1    0    0    0    0  0.00000000000E+00  0.00000000000E+00  0.45593999997E+02  0.45594000000E+02  0.51100000000E-03 0. -1.
         11   -1    0    0    0    0 -0.00000000000E+00 -0.00000000000E+00 -0.45593999997E+02  0.45594000000E+02  0.51100000000E-03 0.  1.
         23    2    1    2    0    0 -0.44408920985E-15 -0.35527136788E-14  0.71054273576E-14  0.91188000000E+02  0.91188000000E+02 0.  0.
    9900012    2    3    3    0    0  0.38298788140E+01  0.24017723609E+02 -0.27645265656E+02  0.54367085668E+02  0.40000003396E+02 0.  0.
         12    1    3    3    0    0 -0.38298788140E+01 -0.24017723609E+02  0.27645265656E+02  0.36820914332E+02  0.00000000000E+00 0. -1.
         11    1    4    4    0    0  0.46811797149E+01 -0.32712920299E+01  0.31064534315E+01  0.65011420728E+01  0.51100000000E-03 0. -1.
        -11    1    4    4    0    0  0.28855604755E+01 -0.41137826714E+01 -0.49186217296E+01  0.70315366105E+01  0.51100000000E-03 0.  1.
        -12    1    4    4    0    0 -0.37368613764E+01  0.31402798311E+02 -0.25833097357E+02  0.40834406984E+02  0.00000000000E+00 0.  1.
</event>
<event>
 8    1  0.1244838E-006  0.9118800E+02  0.7816164E-02  0.1184000E+00
        -11   -1    0    0    0    0  0.00000000000E+00  0.00000000000E+00  0.45593999997E+02  0.45594000000E+02  0.51100000000E-03 0.  1.
         11   -1    0    0    0    0 -0.00000000000E+00 -0.00000000000E+00 -0.45593999997E+02  0.45594000000E+02  0.51100000000E-03 0. -1.
         23    2    1    2    0    0  0.00000000000E+00  0.44408920985E-15  0.71054273576E-14  0.91188000000E+02  0.91188000000E+02 0.  0.
    9900012    2    3    3    0    0 -0.18545801257E+01  0.27888882653E+01  0.36668283763E+02  0.54367076609E+02  0.39999982746E+02 0.  0.
         12    1    3    3    0    0  0.18545801257E+01 -0.27888882653E+01 -0.36668283763E+02  0.36820923391E+02  0.00000000000E+00 0. -1.
         11    1    4    4    0    0  0.45620441955E+01  0.78730665107E+01  0.14066432439E+02  0.16752968254E+02  0.51100000000E-03 0. -1.
        -11    1    4    4    0    0  0.17908777383E+01  0.98675331520E+01  0.98267570830E+00  0.10076760659E+02  0.51100000000E-03 0.  1.
         12    1    4    4    0    0 -0.82075020594E+01 -0.14951711397E+02  0.21619175616E+02  0.27537347695E+02  0.00000000000E+00 0. -1.
</event>
<event>
 8    1  0.1244838E-006  0.9118800E+02  0.7816164E-02  0.1184000E+00
        -11   -1    0    0    0    0  0.00000000000E+00  0.00000000000E+00  0.45593999997E+02  0.45594000000E+02  0.51100000000E-03 0.  1.
         11   -1    0    0    0    0 -0.00000000000E+00 -0.00000000000E+00 -0.45593999997E+02  0.45594000000E+02  0.51100000000E-03 0. -1.
         23    2    1    2    0    0  0.35527136788E-14  0.35527136788E-14  0.00000000000E+00  0.91188000000E+02  0.91188000000E+02 0.  0.
    9900012    2    3    3    0    0  0.21866938947E+02  0.29610410234E+02 -0.91643106222E+00  0.54367092094E+02  0.40000018047E+02 0.  0.
         12    1    3    3    0    0 -0.21866938947E+02 -0.29610410234E+02  0.91643106222E+00  0.36820907906E+02  0.00000000000E+00 0. -1.
         11    1    4    4    0    0  0.47587021110E+01 -0.11397473315E+01  0.46373310385E+01  0.67415954479E+01  0.51100000000E-03 0. -1.
        -11    1    4    4    0    0  0.23395665157E+02  0.96951017191E+01 -0.31838615688E+01  0.25524284912E+02  0.51100000000E-03 0.  1.
         12    1    4    4    0    0 -0.62874283217E+01  0.21055055847E+02 -0.23699005320E+01  0.22101211735E+02  0.00000000000E+00 0. -1.
</event>
<event>
 8    1  0.1244838E-006  0.9118800E+02  0.7816164E-02  0.1184000E+00
        -11   -1    0    0    0    0  0.00000000000E+00  0.00000000000E+00  0.45593999997E+02  0.45594000000E+02  0.51100000000E-03 0. -1.
         11   -1    0    0    0    0 -0.00000000000E+00 -0.00000000000E+00 -0.45593999997E+02  0.45594000000E+02  0.51100000000E-03 0.  1.
         23    2    1    2    0    0  0.00000000000E+00  0.35527136788E-14 -0.88817841970E-15  0.91188000000E+02  0.91188000000E+02 0.  0.
    9900012    2    3    3    0    0  0.29999053427E+02 -0.21139764921E+02 -0.29911374066E+01  0.54367085150E+02  0.40000002216E+02 0.  0.
        -12    1    3    3    0    0 -0.29999053427E+02  0.21139764921E+02  0.29911374066E+01  0.36820914850E+02  0.00000000000E+00 0.  1.
         11    1    4    4    0    0  0.17920351777E+02 -0.16112520366E+01 -0.90479731386E+01  0.20139537212E+02  0.51100000000E-03 0. -1.
        -11    1    4    4    0    0  0.53869569195E+01 -0.23591321603E+02  0.90653014079E+01  0.25840848471E+02  0.51100000000E-03 0.  1.
        -12    1    4    4    0    0  0.66917447302E+01  0.40628087190E+01 -0.30084656759E+01  0.83866994667E+01  0.00000000000E+00 0.  1.
</event>
<event>
 8    1  0.1244838E-006  0.9118800E+02  0.7816164E-02  0.1184000E+00
        -11   -1    0    0    0    0  0.00000000000E+00  0.00000000000E+00  0.45593999997E+02  0.45594000000E+02  0.51100000000E-03 0.  1.
         11   -1    0    0    0    0 -0.00000000000E+00 -0.00000000000E+00 -0.45593999997E+02  0.45594000000E+02  0.51100000000E-03 0. -1.
         23    2    1    2    0    0  0.00000000000E+00  0.00000000000E+00 -0.35527136788E-14  0.91188000000E+02  0.91188000000E+02 0.  0.
    9900012    2    3    3    0    0 -0.23467807268E+02 -0.20719800429E+02  0.19383795425E+02  0.54367087018E+02  0.40000006474E+02 0.  0.
         12    1    3    3    0    0  0.23467807268E+02  0.20719800429E+02 -0.19383795425E+02  0.36820912982E+02  0.00000000000E+00 0. -1.
         11    1    4    4    0    0  0.32952702070E+01 -0.19239107666E+02 -0.16701944601E+01  0.19590600280E+02  0.51100000000E-03 0. -1.
        -11    1    4    4    0    0 -0.26838148498E+02 -0.67526315676E+00  0.20664607273E+02  0.33878727679E+02  0.51100000000E-03 0.  1.
        -12    1    4    4    0    0  0.75071023542E-01 -0.80542960557E+00  0.38938261229E+00  0.89775905835E+00  0.00000000000E+00 0.  1.
</event>
<event>
 8    1  0.1244838E-006  0.9118800E+02  0.7816164E-02  0.1184000E+00
        -11   -1    0    0    0    0  0.00000000000E+00  0.00000000000E+00  0.45593999997E+02  0.45594000000E+02  0.51100000000E-03 0. -1.
         11   -1    0    0    0    0 -0.00000000000E+00 -0.00000000000E+00 -0.45593999997E+02  0.45594000000E+02  0.51100000000E-03 0.  1.
         23    2    1    2    0    0 -0.35527136788E-14 -0.35527136788E-14  0.35527136788E-14  0.91188000000E+02  0.91188000000E+02 0.  0.
    9900012    2    3    3    0    0 -0.15137963001E+02  0.30574259398E+02  0.13850516557E+02  0.54367081076E+02  0.39999992929E+02 0.  0.
         12    1    3    3    0    0  0.15137963001E+02 -0.30574259398E+02 -0.13850516557E+02  0.36820918924E+02  0.00000000000E+00 0. -1.
         11    1    4    4    0    0  0.88080847722E+01  0.13107678569E+02 -0.26892881452E+01  0.16019546367E+02  0.51100000000E-03 0. -1.
        -11    1    4    4    0    0 -0.12633161376E+02  0.11420280553E+02 -0.47823316530E+00  0.17036674602E+02  0.51100000000E-03 0.  1.
         12    1    4    4    0    0 -0.11312886397E+02  0.60463002756E+01  0.17018037867E+02  0.21310860107E+02  0.00000000000E+00 0. -1.
</event>
<event>
 8    1  0.1244838E-006  0.9118800E+02  0.7816164E-02  0.1184000E+00
        -11   -1    0    0    0    0  0.00000000000E+00  0.00000000000E+00  0.45593999997E+02  0.45594000000E+02  0.51100000000E-03 0. -1.
         11   -1    0    0    0    0 -0.00000000000E+00 -0.00000000000E+00 -0.45593999997E+02  0.45594000000E+02  0.51100000000E-03 0.  1.
         23    2    1    2    0    0  0.00000000000E+00 -0.71054273576E-14 -0.88817841970E-15  0.91188000000E+02  0.91188000000E+02 0.  0.
    9900012    2    3    3    0    0  0.45383700246E+01 -0.36464044482E+02  0.23571449833E+01  0.54367089162E+02  0.40000011363E+02 0.  0.
         12    1    3    3    0    0 -0.45383700246E+01  0.36464044482E+02 -0.23571449833E+01  0.36820910838E+02  0.00000000000E+00 0. -1.
         11    1    4    4    0    0  0.57997329875E+01 -0.34017238567E+02 -0.50851979919E+01  0.34880777820E+02  0.51100000000E-03 0. -1.
        -11    1    4    4    0    0  0.12625608236E+01 -0.93681986381E+01  0.66557962186E+00  0.94762968532E+01  0.51100000000E-03 0.  1.
         12    1    4    4    0    0 -0.25239237865E+01  0.69213927239E+01  0.67767633533E+01  0.10010014489E+02  0.00000000000E+00 0. -1.
</event>
<event>
 8    1  0.1244838E-006  0.9118800E+02  0.7816164E-02  0.1184000E+00
        -11   -1    0    0    0    0  0.00000000000E+00  0.00000000000E+00  0.45593999997E+02  0.45594000000E+02  0.51100000000E-03 0. -1.
         11   -1    0    0    0    0 -0.00000000000E+00 -0.00000000000E+00 -0.45593999997E+02  0.45594000000E+02  0.51100000000E-03 0.  1.
         23    2    1    2    0    0  0.00000000000E+00  0.00000000000E+00  0.00000000000E+00  0.91188000000E+02  0.91188000000E+02 0.  0.
    9900012    2    3    3    0    0  0.12946267468E+02 -0.52333474812E+01  0.34070305615E+02  0.54367088932E+02  0.40000010837E+02 0.  0.
        -12    1    3    3    0    0 -0.12946267468E+02  0.52333474812E+01 -0.34070305615E+02  0.36820911068E+02  0.00000000000E+00 0.  1.
         11    1    4    4    0    0 -0.24141237580E+01  0.61413449760E+01 -0.24783989259E+01  0.70488703442E+01  0.51100000000E-03 0.  1.
        -11    1    4    4    0    0  0.11705696391E+02  0.36200517116E+01  0.73408587789E+01  0.14283427820E+02  0.51100000000E-03 0. -1.
         12    1    4    4    0    0  0.36546948349E+01 -0.14994744169E+02  0.29207845762E+02  0.33034790768E+02  0.00000000000E+00 0. -1.
</event>
<event>
 8    1  0.1244838E-006  0.9118800E+02  0.7816164E-02  0.1184000E+00
        -11   -1    0    0    0    0  0.00000000000E+00  0.00000000000E+00  0.45593999997E+02  0.45594000000E+02  0.51100000000E-03 0.  1.
         11   -1    0    0    0    0 -0.00000000000E+00 -0.00000000000E+00 -0.45593999997E+02  0.45594000000E+02  0.51100000000E-03 0. -1.
         23    2    1    2    0    0 -0.44408920985E-15  0.35527136788E-14  0.35527136788E-14  0.91188000000E+02  0.91188000000E+02 0.  0.
    9900012    2    3    3    0    0  0.23624471184E+01 -0.18157559889E+02  0.31945314929E+02  0.54367064604E+02  0.39999955377E+02 0.  0.
         12    1    3    3    0    0 -0.23624471184E+01  0.18157559889E+02 -0.31945314929E+02  0.36820935396E+02  0.00000000000E+00 0. -1.
         11    1    4    4    0    0 -0.21264778348E+00 -0.14285402098E+02  0.16494218828E+02  0.21821484532E+02  0.51100000000E-03 0.  1.
        -11    1    4    4    0    0 -0.12898869776E+02 -0.15513586210E+01  0.73162773884E+01  0.14910247153E+02  0.51100000000E-03 0. -1.
         12    1    4    4    0    0  0.15473964678E+02 -0.23207991705E+01  0.81348187126E+01  0.17635332918E+02  0.00000000000E+00 0. -1.
</event>
<event>
 8    1  0.1244838E-006  0.9118800E+02  0.7816164E-02  0.1184000E+00
        -11   -1    0    0    0    0  0.00000000000E+00  0.00000000000E+00  0.45593999997E+02  0.45594000000E+02  0.51100000000E-03 0.  1.
         11   -1    0    0    0    0 -0.00000000000E+00 -0.00000000000E+00 -0.45593999997E+02  0.45594000000E+02  0.51100000000E-03 0. -1.
         23    2    1    2    0    0  0.00000000000E+00  0.00000000000E+00  0.00000000000E+00  0.91188000000E+02  0.91188000000E+02 0.  0.
    9900012    2    3    3    0    0 -0.97757593347E+01 -0.34033656053E+02  0.10095768139E+02  0.54367085437E+02  0.40000002871E+02 0.  0.
        -12    1    3    3    0    0  0.97757593347E+01  0.34033656053E+02 -0.10095768139E+02  0.36820914563E+02  0.00000000000E+00 0.  1.
         11    1    4    4    0    0  0.20671733467E+01 -0.10381213457E+02 -0.58114249869E+01  0.12075407204E+02  0.51100000000E-03 0. -1.
        -11    1    4    4    0    0 -0.14802596114E+02  0.52223589082E+00  0.66573865548E+01  0.16239161864E+02  0.51100000000E-03 0.  1.
         12    1    4    4    0    0  0.29596634328E+01 -0.24174678487E+02  0.92498065714E+01  0.26052516369E+02  0.00000000000E+00 0. -1.
</event>
<event>
 8    1  0.1244838E-006  0.9118800E+02  0.7816164E-02  0.1184000E+00
        -11   -1    0    0    0    0  0.00000000000E+00  0.00000000000E+00  0.45593999997E+02  0.45594000000E+02  0.51100000000E-03 0.  1.
         11   -1    0    0    0    0 -0.00000000000E+00 -0.00000000000E+00 -0.45593999997E+02  0.45594000000E+02  0.51100000000E-03 0. -1.
         23    2    1    2    0    0 -0.17763568394E-14  0.00000000000E+00  0.00000000000E+00  0.91188000000E+02  0.91188000000E+02 0.  0.
    9900012    2    3    3    0    0  0.12455884996E+02 -0.22491856074E+02 -0.26358054392E+02  0.54367086214E+02  0.40000004641E+02 0.  0.
        -12    1    3    3    0    0 -0.12455884996E+02  0.22491856074E+02  0.26358054392E+02  0.36820913786E+02  0.00000000000E+00 0.  1.
         11    1    4    4    0    0 -0.43108087164E+00 -0.14435224768E+02 -0.33691420434E-01  0.14441699353E+02  0.51100000000E-03 0. -1.
        -11    1    4    4    0    0 -0.71585265916E+01  0.19503395176E+01 -0.85962648770E+01  0.11355355445E+02  0.51100000000E-03 0.  1.
        -12    1    4    4    0    0  0.20045492460E+02 -0.10006970824E+02 -0.17728098095E+02  0.28570031415E+02  0.00000000000E+00 0.  1.
</event>
<event>
 8    1  0.1244838E-006  0.9118800E+02  0.7816164E-02  0.1184000E+00
        -11   -1    0    0    0    0  0.00000000000E+00  0.00000000000E+00  0.45593999997E+02  0.45594000000E+02  0.51100000000E-03 0. -1.
         11   -1    0    0    0    0 -0.00000000000E+00 -0.00000000000E+00 -0.45593999997E+02  0.45594000000E+02  0.51100000000E-03 0.  1.
         23    2    1    2    0    0 -0.17763568394E-14  0.88817841970E-15  0.00000000000E+00  0.91188000000E+02  0.91188000000E+02 0.  0.
    9900012    2    3    3    0    0  0.10070395727E+02  0.93963856655E+00  0.35404534308E+02  0.54367124939E+02  0.40000092922E+02 0.  0.
        -12    1    3    3    0    0 -0.10070395727E+02 -0.93963856655E+00 -0.35404534308E+02  0.36820875061E+02  0.00000000000E+00 0.  1.
         11    1    4    4    0    0 -0.44006293578E+01  0.15079701012E+02  0.18798677266E+02  0.24498024176E+02  0.51100000000E-03 0.  1.
        -11    1    4    4    0    0  0.34675131715E+01  0.14540340635E+01  0.81873397359E+01  0.90094614081E+01  0.51100000000E-03 0. -1.
        -12    1    4    4    0    0  0.11003511913E+02 -0.15594096509E+02  0.84185173063E+01  0.20859639354E+02  0.00000000000E+00 0.  1.
</event>
<event>
 8    1  0.1244838E-006  0.9118800E+02  0.7816164E-02  0.1184000E+00
        -11   -1    0    0    0    0  0.00000000000E+00  0.00000000000E+00  0.45593999997E+02  0.45594000000E+02  0.51100000000E-03 0.  1.
         11   -1    0    0    0    0 -0.00000000000E+00 -0.00000000000E+00 -0.45593999997E+02  0.45594000000E+02  0.51100000000E-03 0. -1.
         23    2    1    2    0    0 -0.35527136788E-14 -0.17763568394E-14  0.00000000000E+00  0.91188000000E+02  0.91188000000E+02 0.  0.
    9900012    2    3    3    0    0  0.31573130893E+02 -0.93897366272E+01 -0.16454469488E+02  0.54367091342E+02  0.40000016331E+02 0.  0.
         12    1    3    3    0    0 -0.31573130893E+02  0.93897366272E+01  0.16454469488E+02  0.36820908658E+02  0.00000000000E+00 0. -1.
         11    1    4    4    0    0  0.66850078634E+01  0.12833256036E+02 -0.51918834919E+01  0.15373270474E+02  0.51100000000E-03 0. -1.
        -11    1    4    4    0    0  0.24312607142E+02 -0.15352717249E+02 -0.13472430120E+02  0.31753978752E+02  0.51100000000E-03 0.  1.
        -12    1    4    4    0    0  0.57551588746E+00 -0.68702754144E+01  0.22098441241E+01  0.72398421157E+01  0.00000000000E+00 0.  1.
</event>
<event>
 8    1  0.1244838E-006  0.9118800E+02  0.7816164E-02  0.1184000E+00
        -11   -1    0    0    0    0  0.00000000000E+00  0.00000000000E+00  0.45593999997E+02  0.45594000000E+02  0.51100000000E-03 0. -1.
         11   -1    0    0    0    0 -0.00000000000E+00 -0.00000000000E+00 -0.45593999997E+02  0.45594000000E+02  0.51100000000E-03 0.  1.
         23    2    1    2    0    0  0.00000000000E+00  0.00000000000E+00  0.00000000000E+00  0.91188000000E+02  0.91188000000E+02 0.  0.
    9900012    2    3    3    0    0 -0.31143765658E+02 -0.12824577715E+02 -0.14878717677E+02  0.54367079688E+02  0.39999989765E+02 0.  0.
         12    1    3    3    0    0  0.31143765658E+02  0.12824577715E+02  0.14878717677E+02  0.36820920312E+02  0.00000000000E+00 0. -1.
         11    1    4    4    0    0 -0.15604538642E+01  0.24976640735E+01  0.90555551044E+01  0.95224167414E+01  0.51100000000E-03 0. -1.
        -11    1    4    4    0    0 -0.24407965700E+02 -0.64949318035E+01 -0.91478830223E+01  0.26862924130E+02  0.51100000000E-03 0.  1.
        -12    1    4    4    0    0 -0.51753460932E+01 -0.88273099853E+01 -0.14786389759E+02  0.17981738817E+02  0.00000000000E+00 0.  1.
</event>
<event>
 8    1  0.1244838E-006  0.9118800E+02  0.7816164E-02  0.1184000E+00
        -11   -1    0    0    0    0  0.00000000000E+00  0.00000000000E+00  0.45593999997E+02  0.45594000000E+02  0.51100000000E-03 0.  1.
         11   -1    0    0    0    0 -0.00000000000E+00 -0.00000000000E+00 -0.45593999997E+02  0.45594000000E+02  0.51100000000E-03 0. -1.
         23    2    1    2    0    0  0.00000000000E+00  0.00000000000E+00  0.71054273576E-14  0.91188000000E+02  0.91188000000E+02 0.  0.
    9900012    2    3    3    0    0 -0.72389161969E+01 -0.19735939645E+02  0.30230306948E+02  0.54367072805E+02  0.39999974073E+02 0.  0.
        -12    1    3    3    0    0  0.72389161969E+01  0.19735939645E+02 -0.30230306948E+02  0.36820927195E+02  0.00000000000E+00 0.  1.
         11    1    4    4    0    0  0.33316410651E+01 -0.24125187931E+02  0.20279206690E+02  0.31691808864E+02  0.51100000000E-03 0. -1.
        -11    1    4    4    0    0 -0.32855722627E+00 -0.69215797462E+00 -0.43209568223E+01  0.43883596746E+01  0.51100000000E-03 0.  1.
        -12    1    4    4    0    0 -0.10242000036E+02  0.50814062607E+01  0.14272057080E+02  0.18286904266E+02  0.00000000000E+00 0.  1.
</event>
<event>
 8    1  0.1244838E-006  0.9118800E+02  0.7816164E-02  0.1184000E+00
        -11   -1    0    0    0    0  0.00000000000E+00  0.00000000000E+00  0.45593999997E+02  0.45594000000E+02  0.51100000000E-03 0. -1.
         11   -1    0    0    0    0 -0.00000000000E+00 -0.00000000000E+00 -0.45593999997E+02  0.45594000000E+02  0.51100000000E-03 0.  1.
         23    2    1    2    0    0 -0.35527136788E-14  0.00000000000E+00  0.00000000000E+00  0.91188000000E+02  0.91188000000E+02 0.  0.
    9900012    2    3    3    0    0 -0.13854644405E+02  0.72619981533E+01  0.33333054473E+02  0.54367077833E+02  0.39999985535E+02 0.  0.
        -12    1    3    3    0    0  0.13854644405E+02 -0.72619981533E+01 -0.33333054473E+02  0.36820922167E+02  0.00000000000E+00 0.  1.
         11    1    4    4    0    0 -0.29483812446E+01  0.29295156969E+00  0.14421240085E+02  0.14722463736E+02  0.51100000000E-03 0. -1.
        -11    1    4    4    0    0 -0.14555839112E+02  0.17882181378E+02  0.14924898277E+02  0.27466296654E+02  0.51100000000E-03 0.  1.
         12    1    4    4    0    0  0.36495759522E+01 -0.10913134794E+02  0.39869161112E+01  0.12178317443E+02  0.00000000000E+00 0. -1.
</event>
<event>
 8    1  0.1244838E-006  0.9118800E+02  0.7816164E-02  0.1184000E+00
        -11   -1    0    0    0    0  0.00000000000E+00  0.00000000000E+00  0.45593999997E+02  0.45594000000E+02  0.51100000000E-03 0.  1.
         11   -1    0    0    0    0 -0.00000000000E+00 -0.00000000000E+00 -0.45593999997E+02  0.45594000000E+02  0.51100000000E-03 0. -1.
         23    2    1    2    0    0 -0.35527136788E-14  0.35527136788E-14 -0.22204460493E-15  0.91188000000E+02  0.91188000000E+02 0.  0.
    9900012    2    3    3    0    0 -0.28298905585E+02 -0.23516428500E+02  0.13892465071E+01  0.54367075615E+02  0.39999980479E+02 0.  0.
        -12    1    3    3    0    0  0.28298905585E+02  0.23516428500E+02 -0.13892465071E+01  0.36820924385E+02  0.00000000000E+00 0.  1.
         11    1    4    4    0    0 -0.87821924117E+01 -0.68192760293E+01  0.10647831236E+02  0.15394990724E+02  0.51100000000E-03 0. -1.
        -11    1    4    4    0    0 -0.17758943515E+02  0.61927245139E+00 -0.11873192138E+02  0.21371388934E+02  0.51100000000E-03 0.  1.
        -12    1    4    4    0    0 -0.17577696583E+01 -0.17316424922E+02  0.26146074097E+01  0.17600695957E+02  0.00000000000E+00 0.  1.
</event>
<event>
 8    1  0.1244838E-006  0.9118800E+02  0.7816164E-02  0.1184000E+00
        -11   -1    0    0    0    0  0.00000000000E+00  0.00000000000E+00  0.45593999997E+02  0.45594000000E+02  0.51100000000E-03 0.  1.
         11   -1    0    0    0    0 -0.00000000000E+00 -0.00000000000E+00 -0.45593999997E+02  0.45594000000E+02  0.51100000000E-03 0. -1.
         23    2    1    2    0    0  0.00000000000E+00  0.26645352591E-14  0.00000000000E+00  0.91188000000E+02  0.91188000000E+02 0.  0.
    9900012    2    3    3    0    0 -0.36076838212E+02 -0.69928688540E+01 -0.23113141341E+01  0.54367073297E+02  0.39999975196E+02 0.  0.
        -12    1    3    3    0    0  0.36076838212E+02  0.69928688540E+01  0.23113141341E+01  0.36820926703E+02  0.00000000000E+00 0.  1.
         11    1    4    4    0    0  0.63751612474E+00  0.48209017734E+01 -0.65245771021E+01  0.81374214184E+01  0.51100000000E-03 0. -1.
        -11    1    4    4    0    0 -0.16073119974E+02 -0.15664531231E+02 -0.54796457700E+01  0.23103013709E+02  0.51100000000E-03 0.  1.
        -12    1    4    4    0    0 -0.20641234363E+02  0.38507606036E+01  0.96929087381E+01  0.23126638170E+02  0.00000000000E+00 0.  1.
</event>
<event>
 8    1  0.1244838E-006  0.9118800E+02  0.7816164E-02  0.1184000E+00
        -11   -1    0    0    0    0  0.00000000000E+00  0.00000000000E+00  0.45593999997E+02  0.45594000000E+02  0.51100000000E-03 0.  1.
         11   -1    0    0    0    0 -0.00000000000E+00 -0.00000000000E+00 -0.45593999997E+02  0.45594000000E+02  0.51100000000E-03 0. -1.
         23    2    1    2    0    0  0.00000000000E+00  0.00000000000E+00 -0.35527136788E-14  0.91188000000E+02  0.91188000000E+02 0.  0.
    9900012    2    3    3    0    0  0.17653750550E+02  0.19496195612E+02  0.25768530657E+02  0.54367167255E+02  0.40000189390E+02 0.  0.
         12    1    3    3    0    0 -0.17653750550E+02 -0.19496195612E+02 -0.25768530657E+02  0.36820832745E+02  0.00000000000E+00 0. -1.
         11    1    4    4    0    0 -0.87914130505E+01  0.17396030745E+01  0.13282336585E+01  0.90597663985E+01  0.51100000000E-03 0. -1.
        -11    1    4    4    0    0  0.91820682037E+01  0.15986539146E+02  0.47033519533E+01  0.19026332548E+02  0.51100000000E-03 0.  1.
        -12    1    4    4    0    0  0.17263095397E+02  0.17700533916E+01  0.19736945045E+02  0.26281068308E+02  0.00000000000E+00 0.  1.
</event>
<event>
 8    1  0.1244838E-006  0.9118800E+02  0.7816164E-02  0.1184000E+00
        -11   -1    0    0    0    0  0.00000000000E+00  0.00000000000E+00  0.45593999997E+02  0.45594000000E+02  0.51100000000E-03 0.  1.
         11   -1    0    0    0    0 -0.00000000000E+00 -0.00000000000E+00 -0.45593999997E+02  0.45594000000E+02  0.51100000000E-03 0. -1.
         23    2    1    2    0    0 -0.10269562978E-14  0.35527136788E-14  0.35527136788E-14  0.91188000000E+02  0.91188000000E+02 0.  0.
    9900012    2    3    3    0    0  0.15945092044E+00  0.27374858844E+02  0.24624579588E+02  0.54367105915E+02  0.40000049555E+02 0.  0.
         12    1    3    3    0    0 -0.15945092044E+00 -0.27374858844E+02 -0.24624579588E+02  0.36820894085E+02  0.00000000000E+00 0. -1.
         11    1    4    4    0    0 -0.84284092022E+01  0.22691468125E+02  0.17982685435E+02  0.30154896503E+02  0.51100000000E-03 0. -1.
        -11    1    4    4    0    0 -0.17850248565E+01  0.12990744467E+01  0.11898066772E+02  0.12101152893E+02  0.51100000000E-03 0.  1.
        -12    1    4    4    0    0  0.10372884979E+02  0.33843162723E+01 -0.52561726197E+01  0.12111056520E+02  0.00000000000E+00 0.  1.
</event>
<event>
 8    1  0.1244838E-006  0.9118800E+02  0.7816164E-02  0.1184000E+00
        -11   -1    0    0    0    0  0.00000000000E+00  0.00000000000E+00  0.45593999997E+02  0.45594000000E+02  0.51100000000E-03 0.  1.
         11   -1    0    0    0    0 -0.00000000000E+00 -0.00000000000E+00 -0.45593999997E+02  0.45594000000E+02  0.51100000000E-03 0. -1.
         23    2    1    2    0    0  0.71054273576E-14  0.88817841970E-15  0.35527136788E-14  0.91188000000E+02  0.91188000000E+02 0.  0.
    9900012    2    3    3    0    0 -0.35103715963E+02 -0.55470190588E+01 -0.96301994987E+01  0.54367067947E+02  0.39999962999E+02 0.  0.
         12    1    3    3    0    0  0.35103715963E+02  0.55470190588E+01  0.96301994987E+01  0.36820932053E+02  0.00000000000E+00 0. -1.
         11    1    4    4    0    0 -0.91831143321E+01 -0.56708044094E+01  0.32964693159E+01  0.11285137203E+02  0.51100000000E-03 0. -1.
        -11    1    4    4    0    0 -0.32196009968E+02 -0.66629620868E+00 -0.44549967830E+01  0.32509598661E+02  0.51100000000E-03 0.  1.
         12    1    4    4    0    0  0.62754083370E+01  0.79008155927E+00 -0.84716720315E+01  0.10572332083E+02  0.00000000000E+00 0. -1.
</event>
<event>
 8    1  0.1244838E-006  0.9118800E+02  0.7816164E-02  0.1184000E+00
        -11   -1    0    0    0    0  0.00000000000E+00  0.00000000000E+00  0.45593999997E+02  0.45594000000E+02  0.51100000000E-03 0.  1.
         11   -1    0    0    0    0 -0.00000000000E+00 -0.00000000000E+00 -0.45593999997E+02  0.45594000000E+02  0.51100000000E-03 0. -1.
         23    2    1    2    0    0 -0.17763568394E-14  0.35527136788E-14 -0.35527136788E-14  0.91188000000E+02  0.91188000000E+02 0.  0.
    9900012    2    3    3    0    0 -0.15409889558E+02 -0.28839988582E+02  0.16928404018E+02  0.54367075239E+02  0.39999979623E+02 0.  0.
         12    1    3    3    0    0  0.15409889558E+02  0.28839988582E+02 -0.16928404018E+02  0.36820924761E+02  0.00000000000E+00 0. -1.
         11    1    4    4    0    0 -0.13171644122E+02 -0.74928613797E+01 -0.11005082044E+02  0.18728241017E+02  0.51100000000E-03 0. -1.
        -11    1    4    4    0    0 -0.98776687537E+00 -0.81332138378E+01  0.15081968716E+02  0.17163642718E+02  0.51100000000E-03 0.  1.
         12    1    4    4    0    0 -0.12504785613E+01 -0.13213913365E+02  0.12851517346E+02  0.18475191505E+02  0.00000000000E+00 0. -1.
</event>
<event>
 8    1  0.1244838E-006  0.9118800E+02  0.7816164E-02  0.1184000E+00
        -11   -1    0    0    0    0  0.00000000000E+00  0.00000000000E+00  0.45593999997E+02  0.45594000000E+02  0.51100000000E-03 0. -1.
         11   -1    0    0    0    0 -0.00000000000E+00 -0.00000000000E+00 -0.45593999997E+02  0.45594000000E+02  0.51100000000E-03 0.  1.
         23    2    1    2    0    0  0.22204460493E-15  0.00000000000E+00  0.00000000000E+00  0.91188000000E+02  0.91188000000E+02 0.  0.
    9900012    2    3    3    0    0  0.15371259664E+01 -0.28552250337E+02 -0.23198800988E+02  0.54367107522E+02  0.40000053219E+02 0.  0.
         12    1    3    3    0    0 -0.15371259664E+01  0.28552250337E+02  0.23198800988E+02  0.36820892478E+02  0.00000000000E+00 0. -1.
         11    1    4    4    0    0 -0.46110437633E+01 -0.13042885656E+02  0.80143595110E+01  0.15987762491E+02  0.51100000000E-03 0. -1.
        -11    1    4    4    0    0 -0.32220711686E+01 -0.44694632055E+01 -0.17828860612E+02  0.18660817638E+02  0.51100000000E-03 0.  1.
         12    1    4    4    0    0  0.93702408983E+01 -0.11039901475E+02 -0.13384299888E+02  0.19718527393E+02  0.00000000000E+00 0. -1.
</event>
<event>
 8    1  0.1244838E-006  0.9118800E+02  0.7816164E-02  0.1184000E+00
        -11   -1    0    0    0    0  0.00000000000E+00  0.00000000000E+00  0.45593999997E+02  0.45594000000E+02  0.51100000000E-03 0.  1.
         11   -1    0    0    0    0 -0.00000000000E+00 -0.00000000000E+00 -0.45593999997E+02  0.45594000000E+02  0.51100000000E-03 0. -1.
         23    2    1    2    0    0  0.00000000000E+00  0.00000000000E+00  0.17763568394E-14  0.91188000000E+02  0.91188000000E+02 0.  0.
    9900012    2    3    3    0    0  0.17196544966E+02 -0.30344084196E+02  0.11802323163E+02  0.54367089684E+02  0.40000012553E+02 0.  0.
        -12    1    3    3    0    0 -0.17196544966E+02  0.30344084196E+02 -0.11802323163E+02  0.36820910316E+02  0.00000000000E+00 0.  1.
         11    1    4    4    0    0  0.23673401300E+02 -0.43240657617E+01  0.10680467466E+01  0.24088756671E+02  0.51100000000E-03 0. -1.
        -11    1    4    4    0    0 -0.50097535200E+01 -0.44813894908E+01  0.24151006462E+01  0.71423520980E+01  0.51100000000E-03 0.  1.
         12    1    4    4    0    0 -0.14671028147E+01 -0.21538628943E+02  0.83191757698E+01  0.23135980915E+02  0.00000000000E+00 0. -1.
</event>
<event>
 8    1  0.1244838E-006  0.9118800E+02  0.7816164E-02  0.1184000E+00
        -11   -1    0    0    0    0  0.00000000000E+00  0.00000000000E+00  0.45593999997E+02  0.45594000000E+02  0.51100000000E-03 0. -1.
         11   -1    0    0    0    0 -0.00000000000E+00 -0.00000000000E+00 -0.45593999997E+02  0.45594000000E+02  0.51100000000E-03 0.  1.
         23    2    1    2    0    0  0.00000000000E+00 -0.35527136788E-14  0.00000000000E+00  0.91188000000E+02  0.91188000000E+02 0.  0.
    9900012    2    3    3    0    0 -0.21139217106E+02 -0.24937438870E+02 -0.16942178752E+02  0.54367085045E+02  0.40000001977E+02 0.  0.
         12    1    3    3    0    0  0.21139217106E+02  0.24937438870E+02  0.16942178752E+02  0.36820914955E+02  0.00000000000E+00 0. -1.
         11    1    4    4    0    0 -0.74359408052E+01  0.45909247265E+01 -0.15004146833E+02  0.17363589144E+02  0.51100000000E-03 0. -1.
        -11    1    4    4    0    0 -0.70913070997E+01 -0.49245699322E+00  0.49133365977E+00  0.71253462582E+01  0.51100000000E-03 0.  1.
         12    1    4    4    0    0 -0.66119692010E+01 -0.29035906603E+02 -0.24293655787E+01  0.29878149643E+02  0.00000000000E+00 0. -1.
</event>
<event>
 8    1  0.1244838E-006  0.9118800E+02  0.7816164E-02  0.1184000E+00
        -11   -1    0    0    0    0  0.00000000000E+00  0.00000000000E+00  0.45593999997E+02  0.45594000000E+02  0.51100000000E-03 0.  1.
         11   -1    0    0    0    0 -0.00000000000E+00 -0.00000000000E+00 -0.45593999997E+02  0.45594000000E+02  0.51100000000E-03 0. -1.
         23    2    1    2    0    0  0.00000000000E+00  0.00000000000E+00  0.00000000000E+00  0.91188000000E+02  0.91188000000E+02 0.  0.
    9900012    2    3    3    0    0  0.35553616060E+02 -0.46490732194E+01  0.83726145785E+01  0.54367161178E+02  0.40000175536E+02 0.  0.
        -12    1    3    3    0    0 -0.35553616060E+02  0.46490732194E+01 -0.83726145785E+01  0.36820838822E+02  0.00000000000E+00 0.  1.
         11    1    4    4    0    0  0.16352536077E+02  0.47114331144E+00 -0.63498089683E+01  0.17548432590E+02  0.51100000000E-03 0. -1.
        -11    1    4    4    0    0 -0.58810090352E+01  0.98603242389E+00  0.82949605446E+01  0.10215913954E+02  0.51100000000E-03 0.  1.
        -12    1    4    4    0    0  0.25082089018E+02 -0.61062489547E+01  0.64274630022E+01  0.26602814634E+02  0.00000000000E+00 0.  1.
</event>
<event>
 8    1  0.1244838E-006  0.9118800E+02  0.7816164E-02  0.1184000E+00
        -11   -1    0    0    0    0  0.00000000000E+00  0.00000000000E+00  0.45593999997E+02  0.45594000000E+02  0.51100000000E-03 0.  1.
         11   -1    0    0    0    0 -0.00000000000E+00 -0.00000000000E+00 -0.45593999997E+02  0.45594000000E+02  0.51100000000E-03 0. -1.
         23    2    1    2    0    0 -0.71054273576E-14  0.00000000000E+00 -0.88817841970E-15  0.91188000000E+02  0.91188000000E+02 0.  0.
    9900012    2    3    3    0    0 -0.35608542141E+02 -0.84285638261E+01 -0.40953697819E+01  0.54367068246E+02  0.39999963680E+02 0.  0.
         12    1    3    3    0    0  0.35608542141E+02  0.84285638261E+01  0.40953697819E+01  0.36820931754E+02  0.00000000000E+00 0. -1.
         11    1    4    4    0    0  0.51218306809E+01 -0.42527484321E+01 -0.16343048110E+01  0.68549231379E+01  0.51100000000E-03 0. -1.
        -11    1    4    4    0    0 -0.24797853534E+02  0.98252724219E+00  0.98776094627E+01  0.26710785623E+02  0.51100000000E-03 0.  1.
        -12    1    4    4    0    0 -0.15932519288E+02 -0.51583426362E+01 -0.12338674434E+02  0.20801359485E+02  0.00000000000E+00 0.  1.
</event>
<event>
 8    1  0.1244838E-006  0.9118800E+02  0.7816164E-02  0.1184000E+00
        -11   -1    0    0    0    0  0.00000000000E+00  0.00000000000E+00  0.45593999997E+02  0.45594000000E+02  0.51100000000E-03 0.  1.
         11   -1    0    0    0    0 -0.00000000000E+00 -0.00000000000E+00 -0.45593999997E+02  0.45594000000E+02  0.51100000000E-03 0. -1.
         23    2    1    2    0    0 -0.16653345369E-14  0.00000000000E+00 -0.35527136788E-14  0.91188000000E+02  0.91188000000E+02 0.  0.
    9900012    2    3    3    0    0  0.41727088362E+00  0.19196913669E+02  0.31417917369E+02  0.54367066536E+02  0.39999959782E+02 0.  0.
         12    1    3    3    0    0 -0.41727088362E+00 -0.19196913669E+02 -0.31417917369E+02  0.36820933464E+02  0.00000000000E+00 0. -1.
         11    1    4    4    0    0  0.51665841156E+01  0.74368448635E+01  0.13026950774E+02  0.15865109507E+02  0.51100000000E-03 0. -1.
        -11    1    4    4    0    0  0.12073728036E+02  0.11883913107E+02  0.80719139763E+01  0.18765875810E+02  0.51100000000E-03 0.  1.
         12    1    4    4    0    0 -0.16823041268E+02 -0.12384430189E+00  0.10319052618E+02  0.19736081218E+02  0.00000000000E+00 0. -1.
</event>
<event>
 8    1  0.1244838E-006  0.9118800E+02  0.7816164E-02  0.1184000E+00
        -11   -1    0    0    0    0  0.00000000000E+00  0.00000000000E+00  0.45593999997E+02  0.45594000000E+02  0.51100000000E-03 0.  1.
         11   -1    0    0    0    0 -0.00000000000E+00 -0.00000000000E+00 -0.45593999997E+02  0.45594000000E+02  0.51100000000E-03 0. -1.
         23    2    1    2    0    0  0.00000000000E+00  0.00000000000E+00  0.00000000000E+00  0.91188000000E+02  0.91188000000E+02 0.  0.
    9900012    2    3    3    0    0  0.25361736675E+02  0.25548430702E+02 -0.77356468067E+01  0.54367078909E+02  0.39999987988E+02 0.  0.
         12    1    3    3    0    0 -0.25361736675E+02 -0.25548430702E+02  0.77356468067E+01  0.36820921091E+02  0.00000000000E+00 0. -1.
         11    1    4    4    0    0  0.29143493364E+02  0.59701599403E+01 -0.97827874643E+01  0.31315953538E+02  0.51100000000E-03 0. -1.
        -11    1    4    4    0    0 -0.20037595481E+01  0.21416215091E+01 -0.35938337768E+01  0.46386675340E+01  0.51100000000E-03 0.  1.
        -12    1    4    4    0    0 -0.17779971414E+01  0.17436649253E+02  0.56409744344E+01  0.18412457836E+02  0.00000000000E+00 0.  1.
</event>
<event>
 8    1  0.1244838E-006  0.9118800E+02  0.7816164E-02  0.1184000E+00
        -11   -1    0    0    0    0  0.00000000000E+00  0.00000000000E+00  0.45593999997E+02  0.45594000000E+02  0.51100000000E-03 0. -1.
         11   -1    0    0    0    0 -0.00000000000E+00 -0.00000000000E+00 -0.45593999997E+02  0.45594000000E+02  0.51100000000E-03 0.  1.
         23    2    1    2    0    0  0.00000000000E+00 -0.35527136788E-14  0.17763568394E-14  0.91188000000E+02  0.91188000000E+02 0.  0.
    9900012    2    3    3    0    0 -0.20966419599E+02  0.28286523251E+02  0.10773164963E+02  0.54367092464E+02  0.40000018891E+02 0.  0.
         12    1    3    3    0    0  0.20966419599E+02 -0.28286523251E+02 -0.10773164963E+02  0.36820907536E+02  0.00000000000E+00 0. -1.
         11    1    4    4    0    0 -0.20038660834E+02  0.32330498277E+02  0.20149278706E+02  0.43044192169E+02  0.51100000000E-03 0. -1.
        -11    1    4    4    0    0 -0.25816518828E+01 -0.15620567765E+01 -0.65612336809E+01  0.72218235574E+01  0.51100000000E-03 0.  1.
         12    1    4    4    0    0  0.16538931176E+01 -0.24819182501E+01 -0.28148800622E+01  0.41010767377E+01  0.00000000000E+00 0. -1.
</event>
<event>
 8    1  0.1244838E-006  0.9118800E+02  0.7816164E-02  0.1184000E+00
        -11   -1    0    0    0    0  0.00000000000E+00  0.00000000000E+00  0.45593999997E+02  0.45594000000E+02  0.51100000000E-03 0. -1.
         11   -1    0    0    0    0 -0.00000000000E+00 -0.00000000000E+00 -0.45593999997E+02  0.45594000000E+02  0.51100000000E-03 0.  1.
         23    2    1    2    0    0 -0.83266726847E-16  0.35527136788E-14 -0.35527136788E-14  0.91188000000E+02  0.91188000000E+02 0.  0.
    9900012    2    3    3    0    0 -0.12082095813E+00 -0.21079863602E+02 -0.30189461450E+02  0.54367097922E+02  0.40000031332E+02 0.  0.
         12    1    3    3    0    0  0.12082095813E+00  0.21079863602E+02  0.30189461450E+02  0.36820902078E+02  0.00000000000E+00 0. -1.
         11    1    4    4    0    0  0.94131663071E+01  0.14036382277E+01  0.38380565142E+01  0.10261996797E+02  0.51100000000E-03 0. -1.
        -11    1    4    4    0    0  0.32544878559E+01 -0.62877475752E+01 -0.11910608672E+02  0.13856047776E+02  0.51100000000E-03 0.  1.
         12    1    4    4    0    0 -0.12788475121E+02 -0.16195754255E+02 -0.22116909293E+02  0.30249053348E+02  0.00000000000E+00 0. -1.
</event>
<event>
 8    1  0.1244838E-006  0.9118800E+02  0.7816164E-02  0.1184000E+00
        -11   -1    0    0    0    0  0.00000000000E+00  0.00000000000E+00  0.45593999997E+02  0.45594000000E+02  0.51100000000E-03 0.  1.
         11   -1    0    0    0    0 -0.00000000000E+00 -0.00000000000E+00 -0.45593999997E+02  0.45594000000E+02  0.51100000000E-03 0. -1.
         23    2    1    2    0    0 -0.35527136788E-14  0.35527136788E-14  0.35527136788E-14  0.91188000000E+02  0.91188000000E+02 0.  0.
    9900012    2    3    3    0    0 -0.15784335694E+02  0.21166163729E+02  0.25663742100E+02  0.54367090195E+02  0.40000013717E+02 0.  0.
         12    1    3    3    0    0  0.15784335694E+02 -0.21166163729E+02 -0.25663742100E+02  0.36820909805E+02  0.00000000000E+00 0. -1.
         11    1    4    4    0    0 -0.90874880472E+01 -0.10840608397E+02  0.11947522736E+02  0.18516061385E+02  0.51100000000E-03 0. -1.
        -11    1    4    4    0    0 -0.58822293871E+01  0.19487459863E+02  0.64519276414E+01  0.21353900932E+02  0.51100000000E-03 0.  1.
         12    1    4    4    0    0 -0.81461825984E+00  0.12519312263E+02  0.72642917224E+01  0.14497127877E+02  0.00000000000E+00 0. -1.
</event>
<event>
 8    1  0.1244838E-006  0.9118800E+02  0.7816164E-02  0.1184000E+00
        -11   -1    0    0    0    0  0.00000000000E+00  0.00000000000E+00  0.45593999997E+02  0.45594000000E+02  0.51100000000E-03 0.  1.
         11   -1    0    0    0    0 -0.00000000000E+00 -0.00000000000E+00 -0.45593999997E+02  0.45594000000E+02  0.51100000000E-03 0. -1.
         23    2    1    2    0    0  0.35527136788E-14  0.17763568394E-14  0.00000000000E+00  0.91188000000E+02  0.91188000000E+02 0.  0.
    9900012    2    3    3    0    0  0.22045789299E+02  0.10164937344E+02 -0.27684461541E+02  0.54367188116E+02  0.40000236947E+02 0.  0.
        -12    1    3    3    0    0 -0.22045789299E+02 -0.10164937344E+02  0.27684461541E+02  0.36820811884E+02  0.00000000000E+00 0.  1.
         11    1    4    4    0    0  0.18678967614E+02 -0.54401554959E+01 -0.35168241265E+01  0.19770361027E+02  0.51100000000E-03 0. -1.
        -11    1    4    4    0    0 -0.26045723059E+01  0.79533712210E+00 -0.16785033992E+02  0.17004520705E+02  0.51100000000E-03 0.  1.
         12    1    4    4    0    0  0.59713939907E+01  0.14809755718E+02 -0.73826034224E+01  0.17592306384E+02  0.00000000000E+00 0. -1.
</event>
<event>
 8    1  0.1244838E-006  0.9118800E+02  0.7816164E-02  0.1184000E+00
        -11   -1    0    0    0    0  0.00000000000E+00  0.00000000000E+00  0.45593999997E+02  0.45594000000E+02  0.51100000000E-03 0.  1.
         11   -1    0    0    0    0 -0.00000000000E+00 -0.00000000000E+00 -0.45593999997E+02  0.45594000000E+02  0.51100000000E-03 0. -1.
         23    2    1    2    0    0  0.00000000000E+00  0.00000000000E+00  0.17763568394E-14  0.91188000000E+02  0.91188000000E+02 0.  0.
    9900012    2    3    3    0    0  0.16988022970E+02 -0.30152981909E+02 -0.12569178454E+02  0.54367088965E+02  0.40000010915E+02 0.  0.
        -12    1    3    3    0    0 -0.16988022970E+02  0.30152981909E+02  0.12569178454E+02  0.36820911035E+02  0.00000000000E+00 0.  1.
         11    1    4    4    0    0  0.14923067430E+02 -0.30847618827E+02 -0.78655146852E+01  0.35158780558E+02  0.51100000000E-03 0. -1.
        -11    1    4    4    0    0 -0.39065262113E+00  0.21344698036E+01  0.69142449058E+01  0.72467478010E+01  0.51100000000E-03 0.  1.
         12    1    4    4    0    0  0.24556081612E+01 -0.14398328857E+01 -0.11617908674E+02  0.11961560607E+02  0.00000000000E+00 0. -1.
</event>
<event>
 8    1  0.1244838E-006  0.9118800E+02  0.7816164E-02  0.1184000E+00
        -11   -1    0    0    0    0  0.00000000000E+00  0.00000000000E+00  0.45593999997E+02  0.45594000000E+02  0.51100000000E-03 0.  1.
         11   -1    0    0    0    0 -0.00000000000E+00 -0.00000000000E+00 -0.45593999997E+02  0.45594000000E+02  0.51100000000E-03 0. -1.
         23    2    1    2    0    0  0.00000000000E+00 -0.53290705182E-14  0.35527136788E-14  0.91188000000E+02  0.91188000000E+02 0.  0.
    9900012    2    3    3    0    0  0.19607635706E+02 -0.12528829895E+02  0.28536821794E+02  0.54367066353E+02  0.39999959365E+02 0.  0.
         12    1    3    3    0    0 -0.19607635706E+02  0.12528829895E+02 -0.28536821794E+02  0.36820933647E+02  0.00000000000E+00 0. -1.
         11    1    4    4    0    0  0.15983363778E+01  0.69327930504E+01  0.19226509455E+02  0.20500657666E+02  0.51100000000E-03 0.  1.
        -11    1    4    4    0    0  0.21576340423E+01  0.28462681798E+01  0.50273699100E+01  0.61669340588E+01  0.51100000000E-03 0. -1.
         12    1    4    4    0    0  0.15851665286E+02 -0.22307891126E+02  0.42829424289E+01  0.27699474628E+02  0.00000000000E+00 0. -1.
</event>
<event>
 8    1  0.1244838E-006  0.9118800E+02  0.7816164E-02  0.1184000E+00
        -11   -1    0    0    0    0  0.00000000000E+00  0.00000000000E+00  0.45593999997E+02  0.45594000000E+02  0.51100000000E-03 0.  1.
         11   -1    0    0    0    0 -0.00000000000E+00 -0.00000000000E+00 -0.45593999997E+02  0.45594000000E+02  0.51100000000E-03 0. -1.
         23    2    1    2    0    0  0.00000000000E+00  0.00000000000E+00  0.00000000000E+00  0.91188000000E+02  0.91188000000E+02 0.  0.
    9900012    2    3    3    0    0 -0.11927329421E+02  0.15187592178E+02  0.31350591306E+02  0.54367031538E+02  0.39999879996E+02 0.  0.
         12    1    3    3    0    0  0.11927329421E+02 -0.15187592178E+02 -0.31350591306E+02  0.36820968462E+02  0.00000000000E+00 0. -1.
         11    1    4    4    0    0  0.31949332003E+01  0.12993837243E+02  0.96230808628E+00  0.13415418054E+02  0.51100000000E-03 0. -1.
        -11    1    4    4    0    0 -0.69352021437E+01  0.12489204791E+02  0.16427797892E+02  0.21770388350E+02  0.51100000000E-03 0.  1.
         12    1    4    4    0    0 -0.81870604774E+01 -0.10295449857E+02  0.13960485328E+02  0.19181225133E+02  0.00000000000E+00 0. -1.
</event>
<event>
 8    1  0.1244838E-006  0.9118800E+02  0.7816164E-02  0.1184000E+00
        -11   -1    0    0    0    0  0.00000000000E+00  0.00000000000E+00  0.45593999997E+02  0.45594000000E+02  0.51100000000E-03 0. -1.
         11   -1    0    0    0    0 -0.00000000000E+00 -0.00000000000E+00 -0.45593999997E+02  0.45594000000E+02  0.51100000000E-03 0.  1.
         23    2    1    2    0    0  0.00000000000E+00  0.35527136788E-14 -0.17763568394E-14  0.91188000000E+02  0.91188000000E+02 0.  0.
    9900012    2    3    3    0    0  0.23466864266E+02 -0.25645123244E+02  0.12141351230E+02  0.54367102749E+02  0.40000042337E+02 0.  0.
         12    1    3    3    0    0 -0.23466864266E+02  0.25645123244E+02 -0.12141351230E+02  0.36820897251E+02  0.00000000000E+00 0. -1.
         11    1    4    4    0    0 -0.92036639935E+01 -0.13040434968E+02  0.85865368024E+01  0.18124265215E+02  0.51100000000E-03 0. -1.
        -11    1    4    4    0    0  0.17012516633E+02 -0.61306770356E+01 -0.24882272245E+01  0.18253826943E+02  0.51100000000E-03 0.  1.
         12    1    4    4    0    0  0.15658011627E+02 -0.64740112404E+01  0.60430416526E+01  0.17989010591E+02  0.00000000000E+00 0. -1.
</event>
<event>
 8    1  0.1244838E-006  0.9118800E+02  0.7816164E-02  0.1184000E+00
        -11   -1    0    0    0    0  0.00000000000E+00  0.00000000000E+00  0.45593999997E+02  0.45594000000E+02  0.51100000000E-03 0. -1.
         11   -1    0    0    0    0 -0.00000000000E+00 -0.00000000000E+00 -0.45593999997E+02  0.45594000000E+02  0.51100000000E-03 0.  1.
         23    2    1    2    0    0 -0.35527136788E-14  0.00000000000E+00  0.17763568394E-14  0.91188000000E+02  0.91188000000E+02 0.  0.
    9900012    2    3    3    0    0  0.19276067108E+02 -0.29551520189E+02 -0.10532047988E+02  0.54367039346E+02  0.39999897797E+02 0.  0.
        -12    1    3    3    0    0 -0.19276067108E+02  0.29551520189E+02  0.10532047988E+02  0.36820960654E+02  0.00000000000E+00 0.  1.
         11    1    4    4    0    0  0.90617865951E+01 -0.10105713897E+02  0.10082207950E+01  0.13610949236E+02  0.51100000000E-03 0. -1.
        -11    1    4    4    0    0  0.15033300221E+02 -0.19698659253E+02 -0.19442588165E+02  0.31496849473E+02  0.51100000000E-03 0.  1.
         12    1    4    4    0    0 -0.48190197080E+01  0.25285296151E+00  0.79023193819E+01  0.92592406373E+01  0.00000000000E+00 0. -1.
</event>
<event>
 8    1  0.1244838E-006  0.9118800E+02  0.7816164E-02  0.1184000E+00
        -11   -1    0    0    0    0  0.00000000000E+00  0.00000000000E+00  0.45593999997E+02  0.45594000000E+02  0.51100000000E-03 0.  1.
         11   -1    0    0    0    0 -0.00000000000E+00 -0.00000000000E+00 -0.45593999997E+02  0.45594000000E+02  0.51100000000E-03 0. -1.
         23    2    1    2    0    0  0.00000000000E+00  0.97144514655E-15  0.35527136788E-14  0.91188000000E+02  0.91188000000E+02 0.  0.
    9900012    2    3    3    0    0  0.23364360756E+02 -0.14694808354E+00 -0.28458134190E+02  0.54367077295E+02  0.39999984310E+02 0.  0.
        -12    1    3    3    0    0 -0.23364360756E+02  0.14694808354E+00  0.28458134190E+02  0.36820922705E+02  0.00000000000E+00 0.  1.
         11    1    4    4    0    0  0.19183197833E+00  0.25351235219E+01  0.22927377263E+01  0.34234919777E+01  0.51100000000E-03 0. -1.
        -11    1    4    4    0    0  0.66755985290E+01  0.14812220144E+02 -0.15592423559E+02  0.22518640146E+02  0.51100000000E-03 0.  1.
         12    1    4    4    0    0  0.16496930248E+02 -0.17494291749E+02 -0.15158448357E+02  0.28424945172E+02  0.00000000000E+00 0. -1.
</event>
<event>
 8    1  0.1244838E-006  0.9118800E+02  0.7816164E-02  0.1184000E+00
        -11   -1    0    0    0    0  0.00000000000E+00  0.00000000000E+00  0.45593999997E+02  0.45594000000E+02  0.51100000000E-03 0. -1.
         11   -1    0    0    0    0 -0.00000000000E+00 -0.00000000000E+00 -0.45593999997E+02  0.45594000000E+02  0.51100000000E-03 0.  1.
         23    2    1    2    0    0 -0.35527136788E-14 -0.88817841970E-15  0.35527136788E-14  0.91188000000E+02  0.91188000000E+02 0.  0.
    9900012    2    3    3    0    0  0.31362715742E+02 -0.75292131284E+01 -0.17761475268E+02  0.54367095709E+02  0.40000026289E+02 0.  0.
        -12    1    3    3    0    0 -0.31362715742E+02  0.75292131284E+01  0.17761475268E+02  0.36820904291E+02  0.00000000000E+00 0.  1.
         11    1    4    4    0    0  0.17782134838E+01  0.52464234784E+01  0.43173909515E+01  0.70233088639E+01  0.51100000000E-03 0. -1.
        -11    1    4    4    0    0 -0.25912642070E+01 -0.44698959118E+00 -0.10758189290E+02  0.11074885414E+02  0.51100000000E-03 0.  1.
         12    1    4    4    0    0  0.32175766466E+02 -0.12328647016E+02 -0.11320676930E+02  0.36268901431E+02  0.00000000000E+00 0. -1.
</event>
<event>
 8    1  0.1244838E-006  0.9118800E+02  0.7816164E-02  0.1184000E+00
        -11   -1    0    0    0    0  0.00000000000E+00  0.00000000000E+00  0.45593999997E+02  0.45594000000E+02  0.51100000000E-03 0. -1.
         11   -1    0    0    0    0 -0.00000000000E+00 -0.00000000000E+00 -0.45593999997E+02  0.45594000000E+02  0.51100000000E-03 0.  1.
         23    2    1    2    0    0  0.00000000000E+00  0.88817841970E-15  0.35527136788E-14  0.91188000000E+02  0.91188000000E+02 0.  0.
    9900012    2    3    3    0    0 -0.25263349831E+02  0.53923310413E+01  0.26238615776E+02  0.54367095115E+02  0.40000024933E+02 0.  0.
        -12    1    3    3    0    0  0.25263349831E+02 -0.53923310413E+01 -0.26238615776E+02  0.36820904885E+02  0.00000000000E+00 0.  1.
         11    1    4    4    0    0 -0.26421905716E+01  0.14104342641E+01  0.22529553767E+02  0.22727764717E+02  0.51100000000E-03 0. -1.
        -11    1    4    4    0    0 -0.23104898938E+02 -0.12129542518E+01 -0.27909318526E+01  0.23304439787E+02  0.51100000000E-03 0.  1.
        -12    1    4    4    0    0  0.48373967790E+00  0.51948510290E+01  0.64999938608E+01  0.83348906099E+01  0.00000000000E+00 0.  1.
</event>
<event>
 8    1  0.1244838E-006  0.9118800E+02  0.7816164E-02  0.1184000E+00
        -11   -1    0    0    0    0  0.00000000000E+00  0.00000000000E+00  0.45593999997E+02  0.45594000000E+02  0.51100000000E-03 0. -1.
         11   -1    0    0    0    0 -0.00000000000E+00 -0.00000000000E+00 -0.45593999997E+02  0.45594000000E+02  0.51100000000E-03 0.  1.
         23    2    1    2    0    0  0.35527136788E-14  0.00000000000E+00 -0.35527136788E-14  0.91188000000E+02  0.91188000000E+02 0.  0.
    9900012    2    3    3    0    0  0.26037029408E+02 -0.19024969944E+02 -0.17773678177E+02  0.54367081791E+02  0.39999994560E+02 0.  0.
         12    1    3    3    0    0 -0.26037029408E+02  0.19024969944E+02  0.17773678177E+02  0.36820918209E+02  0.00000000000E+00 0. -1.
         11    1    4    4    0    0 -0.52404961129E+01 -0.50237391316E+01 -0.32561800665E+01  0.79563473566E+01  0.51100000000E-03 0. -1.
        -11    1    4    4    0    0  0.11800823025E+02 -0.15618120063E+02  0.34336363919E+01  0.19873976892E+02  0.51100000000E-03 0.  1.
        -12    1    4    4    0    0  0.19476702497E+02  0.16168892503E+01 -0.17951134503E+02  0.26536757543E+02  0.00000000000E+00 0.  1.
</event>
<event>
 8    1  0.1244838E-006  0.9118800E+02  0.7816164E-02  0.1184000E+00
        -11   -1    0    0    0    0  0.00000000000E+00  0.00000000000E+00  0.45593999997E+02  0.45594000000E+02  0.51100000000E-03 0. -1.
         11   -1    0    0    0    0 -0.00000000000E+00 -0.00000000000E+00 -0.45593999997E+02  0.45594000000E+02  0.51100000000E-03 0.  1.
         23    2    1    2    0    0  0.00000000000E+00  0.00000000000E+00  0.35527136788E-14  0.91188000000E+02  0.91188000000E+02 0.  0.
    9900012    2    3    3    0    0  0.20071259550E+02 -0.93145537677E+01  0.29430661037E+02  0.54367079576E+02  0.39999989509E+02 0.  0.
        -12    1    3    3    0    0 -0.20071259550E+02  0.93145537677E+01 -0.29430661037E+02  0.36820920424E+02  0.00000000000E+00 0.  1.
         11    1    4    4    0    0  0.99928786620E+01  0.82639810673E+01  0.10692760980E+02  0.16807324138E+02  0.51100000000E-03 0. -1.
        -11    1    4    4    0    0 -0.62660400505E+01  0.15653548625E+01  0.77654061243E+01  0.10100253774E+02  0.51100000000E-03 0.  1.
         12    1    4    4    0    0  0.16344420938E+02 -0.19143889698E+02  0.10972493932E+02  0.27459501664E+02  0.00000000000E+00 0. -1.
</event>
<event>
 8    1  0.1244838E-006  0.9118800E+02  0.7816164E-02  0.1184000E+00
        -11   -1    0    0    0    0  0.00000000000E+00  0.00000000000E+00  0.45593999997E+02  0.45594000000E+02  0.51100000000E-03 0. -1.
         11   -1    0    0    0    0 -0.00000000000E+00 -0.00000000000E+00 -0.45593999997E+02  0.45594000000E+02  0.51100000000E-03 0.  1.
         23    2    1    2    0    0  0.00000000000E+00  0.00000000000E+00  0.00000000000E+00  0.91188000000E+02  0.91188000000E+02 0.  0.
    9900012    2    3    3    0    0  0.15178143387E+02  0.33200945212E+02 -0.48063235000E+01  0.54367088207E+02  0.40000009187E+02 0.  0.
         12    1    3    3    0    0 -0.15178143387E+02 -0.33200945212E+02  0.48063235000E+01  0.36820911793E+02  0.00000000000E+00 0. -1.
         11    1    4    4    0    0 -0.15196852893E+01  0.22890952650E+02 -0.38357472019E+01  0.23259796075E+02  0.51100000000E-03 0. -1.
        -11    1    4    4    0    0  0.17349458057E+02  0.17006874337E+02 -0.16123354832E+01  0.24348246252E+02  0.51100000000E-03 0.  1.
         12    1    4    4    0    0 -0.65162938002E+00 -0.66968817752E+01  0.64175918512E+00  0.67590458802E+01  0.00000000000E+00 0. -1.
</event>
<event>
 8    1  0.1244838E-006  0.9118800E+02  0.7816164E-02  0.1184000E+00
        -11   -1    0    0    0    0  0.00000000000E+00  0.00000000000E+00  0.45593999997E+02  0.45594000000E+02  0.51100000000E-03 0.  1.
         11   -1    0    0    0    0 -0.00000000000E+00 -0.00000000000E+00 -0.45593999997E+02  0.45594000000E+02  0.51100000000E-03 0. -1.
         23    2    1    2    0    0  0.00000000000E+00  0.00000000000E+00  0.17208456882E-14  0.91188000000E+02  0.91188000000E+02 0.  0.
    9900012    2    3    3    0    0  0.25669461638E+02  0.26394250751E+02 -0.45542078210E+00  0.54367012213E+02  0.39999835942E+02 0.  0.
        -12    1    3    3    0    0 -0.25669461638E+02 -0.26394250751E+02  0.45542078210E+00  0.36820987787E+02  0.00000000000E+00 0.  1.
         11    1    4    4    0    0  0.84377907432E+01  0.69628741675E+01 -0.91261762900E+01  0.14246579352E+02  0.51100000000E-03 0. -1.
        -11    1    4    4    0    0 -0.83739322378E+01  0.44900233375E+01  0.14996469581E+01  0.96193550696E+01  0.51100000000E-03 0.  1.
         12    1    4    4    0    0  0.25605603133E+02  0.14941353246E+02  0.71711085498E+01  0.30501077792E+02  0.00000000000E+00 0. -1.
</event>
<event>
 8    1  0.1244838E-006  0.9118800E+02  0.7816164E-02  0.1184000E+00
        -11   -1    0    0    0    0  0.00000000000E+00  0.00000000000E+00  0.45593999997E+02  0.45594000000E+02  0.51100000000E-03 0. -1.
         11   -1    0    0    0    0 -0.00000000000E+00 -0.00000000000E+00 -0.45593999997E+02  0.45594000000E+02  0.51100000000E-03 0.  1.
         23    2    1    2    0    0 -0.71054273576E-14  0.00000000000E+00 -0.88817841970E-15  0.91188000000E+02  0.91188000000E+02 0.  0.
    9900012    2    3    3    0    0 -0.34013370630E+02 -0.12810513750E+02  0.58958803503E+01  0.54367081363E+02  0.39999993583E+02 0.  0.
        -12    1    3    3    0    0  0.34013370630E+02  0.12810513750E+02 -0.58958803503E+01  0.36820918637E+02  0.00000000000E+00 0.  1.
         11    1    4    4    0    0 -0.12985395366E+02 -0.25349867272E+01  0.23246510188E+01  0.13433192217E+02  0.51100000000E-03 0. -1.
        -11    1    4    4    0    0 -0.15690734451E+02  0.18759070508E+01  0.16187748170E+02  0.22622143267E+02  0.51100000000E-03 0.  1.
         12    1    4    4    0    0 -0.53372408123E+01 -0.12151434074E+02 -0.12616518839E+02  0.18311745879E+02  0.00000000000E+00 0. -1.
</event>
<event>
 8    1  0.1244838E-006  0.9118800E+02  0.7816164E-02  0.1184000E+00
        -11   -1    0    0    0    0  0.00000000000E+00  0.00000000000E+00  0.45593999997E+02  0.45594000000E+02  0.51100000000E-03 0. -1.
         11   -1    0    0    0    0 -0.00000000000E+00 -0.00000000000E+00 -0.45593999997E+02  0.45594000000E+02  0.51100000000E-03 0.  1.
         23    2    1    2    0    0  0.00000000000E+00 -0.88817841970E-15  0.00000000000E+00  0.91188000000E+02  0.91188000000E+02 0.  0.
    9900012    2    3    3    0    0 -0.35396462500E+02  0.26927162834E+01 -0.97785251865E+01  0.54367084295E+02  0.40000000268E+02 0.  0.
         12    1    3    3    0    0  0.35396462500E+02 -0.26927162834E+01  0.97785251865E+01  0.36820915705E+02  0.00000000000E+00 0. -1.
         11    1    4    4    0    0  0.10608668016E+01 -0.41322779464E+01  0.17681464619E+00  0.42699441538E+01  0.51100000000E-03 0. -1.
        -11    1    4    4    0    0 -0.31917525780E+02 -0.47989875794E+01  0.26180106371E+01  0.32382290124E+02  0.51100000000E-03 0.  1.
         12    1    4    4    0    0 -0.45398035222E+01  0.11623981809E+02 -0.12573350470E+02  0.17714850018E+02  0.00000000000E+00 0. -1.
</event>
<event>
 8    1  0.1244838E-006  0.9118800E+02  0.7816164E-02  0.1184000E+00
        -11   -1    0    0    0    0  0.00000000000E+00  0.00000000000E+00  0.45593999997E+02  0.45594000000E+02  0.51100000000E-03 0.  1.
         11   -1    0    0    0    0 -0.00000000000E+00 -0.00000000000E+00 -0.45593999997E+02  0.45594000000E+02  0.51100000000E-03 0. -1.
         23    2    1    2    0    0  0.17763568394E-14  0.00000000000E+00 -0.35527136788E-14  0.91188000000E+02  0.91188000000E+02 0.  0.
    9900012    2    3    3    0    0  0.14507756590E+02  0.28500434637E+02  0.18249042864E+02  0.54367118137E+02  0.40000077416E+02 0.  0.
         12    1    3    3    0    0 -0.14507756590E+02 -0.28500434637E+02 -0.18249042864E+02  0.36820881863E+02  0.00000000000E+00 0. -1.
         11    1    4    4    0    0 -0.27167012703E+01  0.10400766756E+02 -0.13112119725E+01  0.10829390196E+02  0.51100000000E-03 0. -1.
        -11    1    4    4    0    0  0.17022382696E+02  0.72380137825E+01 -0.27715209516E+01  0.18703787981E+02  0.51100000000E-03 0.  1.
        -12    1    4    4    0    0  0.20207516395E+00  0.10861654098E+02  0.22331775788E+02  0.24833939960E+02  0.00000000000E+00 0.  1.
</event>
<event>
 8    1  0.1244838E-006  0.9118800E+02  0.7816164E-02  0.1184000E+00
        -11   -1    0    0    0    0  0.00000000000E+00  0.00000000000E+00  0.45593999997E+02  0.45594000000E+02  0.51100000000E-03 0. -1.
         11   -1    0    0    0    0 -0.00000000000E+00 -0.00000000000E+00 -0.45593999997E+02  0.45594000000E+02  0.51100000000E-03 0.  1.
         23    2    1    2    0    0  0.00000000000E+00  0.00000000000E+00  0.00000000000E+00  0.91188000000E+02  0.91188000000E+02 0.  0.
    9900012    2    3    3    0    0 -0.23019851441E+02  0.15775347755E+02  0.24020932946E+02  0.54367076916E+02  0.39999983445E+02 0.  0.
        -12    1    3    3    0    0  0.23019851441E+02 -0.15775347755E+02 -0.24020932946E+02  0.36820923084E+02  0.00000000000E+00 0.  1.
         11    1    4    4    0    0 -0.13608569352E+02  0.16057939874E+02  0.16180756359E+02  0.26549340282E+02  0.51100000000E-03 0. -1.
        -11    1    4    4    0    0 -0.25296235847E+01 -0.39369269281E+01  0.15919686575E+02  0.16593215783E+02  0.51100000000E-03 0.  1.
        -12    1    4    4    0    0 -0.68816585048E+01  0.36543348091E+01 -0.80795099882E+01  0.11224520851E+02  0.00000000000E+00 0.  1.
</event>
<event>
 8    1  0.1244838E-006  0.9118800E+02  0.7816164E-02  0.1184000E+00
        -11   -1    0    0    0    0  0.00000000000E+00  0.00000000000E+00  0.45593999997E+02  0.45594000000E+02  0.51100000000E-03 0.  1.
         11   -1    0    0    0    0 -0.00000000000E+00 -0.00000000000E+00 -0.45593999997E+02  0.45594000000E+02  0.51100000000E-03 0. -1.
         23    2    1    2    0    0  0.17763568394E-14  0.00000000000E+00  0.35527136788E-14  0.91188000000E+02  0.91188000000E+02 0.  0.
    9900012    2    3    3    0    0 -0.15113741618E+02  0.13688025787E+02 -0.30659299947E+02  0.54367083270E+02  0.39999997930E+02 0.  0.
        -12    1    3    3    0    0  0.15113741618E+02 -0.13688025787E+02  0.30659299947E+02  0.36820916730E+02  0.00000000000E+00 0.  1.
         11    1    4    4    0    0 -0.12296965169E+01  0.60073472148E+01 -0.36625489246E+01  0.71424532878E+01  0.51100000000E-03 0. -1.
        -11    1    4    4    0    0 -0.57734534005E+01  0.81552756849E+01  0.70455663220E+01  0.12226254157E+02  0.51100000000E-03 0.  1.
        -12    1    4    4    0    0 -0.81105917002E+01 -0.47459711286E+00 -0.34042317345E+02  0.34998375824E+02  0.00000000000E+00 0.  1.
</event>
<event>
 8    1  0.1244838E-006  0.9118800E+02  0.7816164E-02  0.1184000E+00
        -11   -1    0    0    0    0  0.00000000000E+00  0.00000000000E+00  0.45593999997E+02  0.45594000000E+02  0.51100000000E-03 0.  1.
         11   -1    0    0    0    0 -0.00000000000E+00 -0.00000000000E+00 -0.45593999997E+02  0.45594000000E+02  0.51100000000E-03 0. -1.
         23    2    1    2    0    0  0.00000000000E+00  0.35527136788E-14  0.00000000000E+00  0.91188000000E+02  0.91188000000E+02 0.  0.
    9900012    2    3    3    0    0 -0.13497585874E+02 -0.28027930568E+02  0.19698554912E+02  0.54367044255E+02  0.39999908987E+02 0.  0.
         12    1    3    3    0    0  0.13497585874E+02  0.28027930568E+02 -0.19698554912E+02  0.36820955745E+02  0.00000000000E+00 0. -1.
         11    1    4    4    0    0  0.30933857669E+01 -0.21668428208E+02  0.88186129289E+01  0.23597833603E+02  0.51100000000E-03 0. -1.
        -11    1    4    4    0    0 -0.10029161122E+02 -0.13636546241E+02  0.11596491071E+01  0.16967152163E+02  0.51100000000E-03 0.  1.
         12    1    4    4    0    0 -0.65618105188E+01  0.72770438810E+01  0.97202928760E+01  0.13802058489E+02  0.00000000000E+00 0. -1.
</event>
<event>
 8    1  0.1244838E-006  0.9118800E+02  0.7816164E-02  0.1184000E+00
        -11   -1    0    0    0    0  0.00000000000E+00  0.00000000000E+00  0.45593999997E+02  0.45594000000E+02  0.51100000000E-03 0. -1.
         11   -1    0    0    0    0 -0.00000000000E+00 -0.00000000000E+00 -0.45593999997E+02  0.45594000000E+02  0.51100000000E-03 0.  1.
         23    2    1    2    0    0  0.00000000000E+00 -0.35527136788E-14  0.00000000000E+00  0.91188000000E+02  0.91188000000E+02 0.  0.
    9900012    2    3    3    0    0 -0.17406807641E+02  0.28300114799E+02  0.15870817095E+02  0.54367132477E+02  0.40000110107E+02 0.  0.
        -12    1    3    3    0    0  0.17406807641E+02 -0.28300114799E+02 -0.15870817095E+02  0.36820867523E+02  0.00000000000E+00 0.  1.
         11    1    4    4    0    0 -0.24321858397E+02  0.22399154240E+02  0.22794442663E+01  0.33143185921E+02  0.51100000000E-03 0.  1.
        -11    1    4    4    0    0  0.73516977866E+00 -0.40356436535E+01  0.60262056638E+01  0.72898593447E+01  0.51100000000E-03 0. -1.
        -12    1    4    4    0    0  0.61798809774E+01  0.99366042128E+01  0.75651671650E+01  0.13934087211E+02  0.00000000000E+00 0.  1.
</event>
<event>
 8    1  0.1244838E-006  0.9118800E+02  0.7816164E-02  0.1184000E+00
        -11   -1    0    0    0    0  0.00000000000E+00  0.00000000000E+00  0.45593999997E+02  0.45594000000E+02  0.51100000000E-03 0.  1.
         11   -1    0    0    0    0 -0.00000000000E+00 -0.00000000000E+00 -0.45593999997E+02  0.45594000000E+02  0.51100000000E-03 0. -1.
         23    2    1    2    0    0  0.00000000000E+00 -0.17763568394E-14  0.17763568394E-14  0.91188000000E+02  0.91188000000E+02 0.  0.
    9900012    2    3    3    0    0  0.35319112102E+02  0.15928127803E+01  0.10286027867E+02  0.54367094233E+02  0.40000022923E+02 0.  0.
        -12    1    3    3    0    0 -0.35319112102E+02 -0.15928127803E+01 -0.10286027867E+02  0.36820905767E+02  0.00000000000E+00 0.  1.
         11    1    4    4    0    0  0.20311304003E+02 -0.12313555781E+02 -0.72482521301E+01  0.24833644225E+02  0.51100000000E-03 0. -1.
        -11    1    4    4    0    0 -0.16836755799E+01 -0.36911436517E+00  0.19506573307E+01  0.26030891564E+01  0.51100000000E-03 0.  1.
         12    1    4    4    0    0  0.16691483679E+02  0.14275482927E+02  0.15583622667E+02  0.26930360852E+02  0.00000000000E+00 0. -1.
</event>
<event>
 8    1  0.1244838E-006  0.9118800E+02  0.7816164E-02  0.1184000E+00
        -11   -1    0    0    0    0  0.00000000000E+00  0.00000000000E+00  0.45593999997E+02  0.45594000000E+02  0.51100000000E-03 0.  1.
         11   -1    0    0    0    0 -0.00000000000E+00 -0.00000000000E+00 -0.45593999997E+02  0.45594000000E+02  0.51100000000E-03 0. -1.
         23    2    1    2    0    0 -0.44408920985E-14  0.00000000000E+00  0.00000000000E+00  0.91188000000E+02  0.91188000000E+02 0.  0.
    9900012    2    3    3    0    0  0.42738842437E+01  0.10061060158E+02 -0.35160886427E+02  0.54367096258E+02  0.40000027539E+02 0.  0.
        -12    1    3    3    0    0 -0.42738842437E+01 -0.10061060158E+02  0.35160886427E+02  0.36820903742E+02  0.00000000000E+00 0.  1.
         11    1    4    4    0    0 -0.34534248032E+01  0.70855392863E+01 -0.46213341694E+01  0.91371625582E+01  0.51100000000E-03 0. -1.
        -11    1    4    4    0    0  0.20272120563E+02  0.20423059169E+00 -0.21297115175E+02  0.29403532055E+02  0.51100000000E-03 0.  1.
         12    1    4    4    0    0 -0.12544811516E+02  0.27712902802E+01 -0.92424370826E+01  0.15826401645E+02  0.00000000000E+00 0. -1.
</event>
<event>
 8    1  0.1244838E-006  0.9118800E+02  0.7816164E-02  0.1184000E+00
        -11   -1    0    0    0    0  0.00000000000E+00  0.00000000000E+00  0.45593999997E+02  0.45594000000E+02  0.51100000000E-03 0.  1.
         11   -1    0    0    0    0 -0.00000000000E+00 -0.00000000000E+00 -0.45593999997E+02  0.45594000000E+02  0.51100000000E-03 0. -1.
         23    2    1    2    0    0 -0.17763568394E-14  0.17763568394E-14  0.00000000000E+00  0.91188000000E+02  0.91188000000E+02 0.  0.
    9900012    2    3    3    0    0 -0.90512777022E+01  0.12753370664E+02  0.33334754377E+02  0.54367082838E+02  0.39999996945E+02 0.  0.
         12    1    3    3    0    0  0.90512777022E+01 -0.12753370664E+02 -0.33334754377E+02  0.36820917162E+02  0.00000000000E+00 0. -1.
         11    1    4    4    0    0  0.85711573530E+00 -0.85136763755E+00 -0.41596587433E+01  0.43315396062E+01  0.51100000000E-03 0. -1.
        -11    1    4    4    0    0 -0.77332978640E+01 -0.62890802324E+01  0.34558222868E+01  0.10549840471E+02  0.51100000000E-03 0.  1.
         12    1    4    4    0    0 -0.21750955735E+01  0.19893818534E+02  0.34038590833E+02  0.39485702761E+02  0.00000000000E+00 0. -1.
</event>
<event>
 8    1  0.1244838E-006  0.9118800E+02  0.7816164E-02  0.1184000E+00
        -11   -1    0    0    0    0  0.00000000000E+00  0.00000000000E+00  0.45593999997E+02  0.45594000000E+02  0.51100000000E-03 0. -1.
         11   -1    0    0    0    0 -0.00000000000E+00 -0.00000000000E+00 -0.45593999997E+02  0.45594000000E+02  0.51100000000E-03 0.  1.
         23    2    1    2    0    0  0.00000000000E+00  0.00000000000E+00  0.00000000000E+00  0.91188000000E+02  0.91188000000E+02 0.  0.
    9900012    2    3    3    0    0 -0.82556812481E+01  0.41463426452E+01  0.35643098954E+02  0.54367096518E+02  0.40000028132E+02 0.  0.
        -12    1    3    3    0    0  0.82556812481E+01 -0.41463426452E+01 -0.35643098954E+02  0.36820903482E+02  0.00000000000E+00 0.  1.
         11    1    4    4    0    0  0.60109081221E+01  0.81462206667E+01  0.22166042159E+02  0.24368532021E+02  0.51100000000E-03 0.  1.
        -11    1    4    4    0    0 -0.14143559290E+02 -0.25824174784E+01  0.19264894842E+02  0.24038413487E+02  0.51100000000E-03 0. -1.
        -12    1    4    4    0    0 -0.12303008021E+00 -0.14174605431E+01 -0.57878380477E+01  0.59601510097E+01  0.00000000000E+00 0.  1.
</event>
<event>
 8    1  0.1244838E-006  0.9118800E+02  0.7816164E-02  0.1184000E+00
        -11   -1    0    0    0    0  0.00000000000E+00  0.00000000000E+00  0.45593999997E+02  0.45594000000E+02  0.51100000000E-03 0.  1.
         11   -1    0    0    0    0 -0.00000000000E+00 -0.00000000000E+00 -0.45593999997E+02  0.45594000000E+02  0.51100000000E-03 0. -1.
         23    2    1    2    0    0  0.17763568394E-14  0.35527136788E-14  0.00000000000E+00  0.91188000000E+02  0.91188000000E+02 0.  0.
    9900012    2    3    3    0    0 -0.15057928557E+02 -0.29622023864E+02 -0.15861098070E+02  0.54367082817E+02  0.39999996899E+02 0.  0.
        -12    1    3    3    0    0  0.15057928557E+02  0.29622023864E+02  0.15861098070E+02  0.36820917183E+02  0.00000000000E+00 0.  1.
         11    1    4    4    0    0 -0.91441747279E+01 -0.16687024931E+01 -0.36796556718E+01  0.99970178348E+01  0.51100000000E-03 0. -1.
        -11    1    4    4    0    0  0.50514746615E+01  0.53608750311E+01 -0.41896529123E+00  0.73777984204E+01  0.51100000000E-03 0.  1.
         12    1    4    4    0    0 -0.10965228490E+02 -0.33314196402E+02 -0.11762477107E+02  0.36992266562E+02  0.00000000000E+00 0. -1.
</event>
<event>
 8    1  0.1244838E-006  0.9118800E+02  0.7816164E-02  0.1184000E+00
        -11   -1    0    0    0    0  0.00000000000E+00  0.00000000000E+00  0.45593999997E+02  0.45594000000E+02  0.51100000000E-03 0. -1.
         11   -1    0    0    0    0 -0.00000000000E+00 -0.00000000000E+00 -0.45593999997E+02  0.45594000000E+02  0.51100000000E-03 0.  1.
         23    2    1    2    0    0  0.00000000000E+00  0.88817841970E-15  0.35527136788E-14  0.91188000000E+02  0.91188000000E+02 0.  0.
    9900012    2    3    3    0    0  0.23968212454E+02  0.61457444009E+01  0.27267864952E+02  0.54367057025E+02  0.39999938101E+02 0.  0.
        -12    1    3    3    0    0 -0.23968212454E+02 -0.61457444009E+01 -0.27267864952E+02  0.36820942975E+02  0.00000000000E+00 0.  1.
         11    1    4    4    0    0  0.38903759441E+00  0.11656436456E+01  0.39905274098E+01  0.41754502306E+01  0.51100000000E-03 0. -1.
        -11    1    4    4    0    0 -0.64706244208E+01  0.11658686632E+02  0.42147781855E+01  0.13984216453E+02  0.51100000000E-03 0.  1.
        -12    1    4    4    0    0  0.30049799281E+02 -0.66785858772E+01  0.19062559357E+02  0.36207390342E+02  0.00000000000E+00 0.  1.
</event>
<event>
 8    1  0.1244838E-006  0.9118800E+02  0.7816164E-02  0.1184000E+00
        -11   -1    0    0    0    0  0.00000000000E+00  0.00000000000E+00  0.45593999997E+02  0.45594000000E+02  0.51100000000E-03 0.  1.
         11   -1    0    0    0    0 -0.00000000000E+00 -0.00000000000E+00 -0.45593999997E+02  0.45594000000E+02  0.51100000000E-03 0. -1.
         23    2    1    2    0    0  0.00000000000E+00  0.35527136788E-14 -0.44408920985E-15  0.91188000000E+02  0.91188000000E+02 0.  0.
    9900012    2    3    3    0    0  0.31570310443E+02  0.18912255922E+02  0.11922858654E+01  0.54367089214E+02  0.40000011481E+02 0.  0.
        -12    1    3    3    0    0 -0.31570310443E+02 -0.18912255922E+02 -0.11922858654E+01  0.36820910786E+02  0.00000000000E+00 0.  1.
         11    1    4    4    0    0  0.10774429430E+02 -0.96737845860E+01  0.53570420011E+01  0.15439181877E+02  0.51100000000E-03 0. -1.
        -11    1    4    4    0    0  0.15124405412E+02  0.76609535028E+01 -0.66367775081E+00  0.16966977222E+02  0.51100000000E-03 0.  1.
         12    1    4    4    0    0  0.56714756010E+01  0.20925087005E+02 -0.35010783849E+01  0.21960930115E+02  0.00000000000E+00 0. -1.
</event>
<event>
 8    1  0.1244838E-006  0.9118800E+02  0.7816164E-02  0.1184000E+00
        -11   -1    0    0    0    0  0.00000000000E+00  0.00000000000E+00  0.45593999997E+02  0.45594000000E+02  0.51100000000E-03 0. -1.
         11   -1    0    0    0    0 -0.00000000000E+00 -0.00000000000E+00 -0.45593999997E+02  0.45594000000E+02  0.51100000000E-03 0.  1.
         23    2    1    2    0    0  0.00000000000E+00  0.17763568394E-14  0.00000000000E+00  0.91188000000E+02  0.91188000000E+02 0.  0.
    9900012    2    3    3    0    0  0.35515695837E+02 -0.85670609539E+01 -0.45849215964E+01  0.54367072659E+02  0.39999973741E+02 0.  0.
        -12    1    3    3    0    0 -0.35515695837E+02  0.85670609539E+01  0.45849215964E+01  0.36820927341E+02  0.00000000000E+00 0.  1.
         11    1    4    4    0    0  0.20144146847E+02  0.65326057351E-01 -0.10480491258E+01  0.20171497885E+02  0.51100000000E-03 0. -1.
        -11    1    4    4    0    0 -0.52159498325E+01 -0.34204539227E+01  0.79073381959E+01  0.10071327385E+02  0.51100000000E-03 0.  1.
         12    1    4    4    0    0  0.20587498823E+02 -0.52119330886E+01 -0.11444210666E+02  0.24124247389E+02  0.00000000000E+00 0. -1.
</event>
<event>
 8    1  0.1244838E-006  0.9118800E+02  0.7816164E-02  0.1184000E+00
        -11   -1    0    0    0    0  0.00000000000E+00  0.00000000000E+00  0.45593999997E+02  0.45594000000E+02  0.51100000000E-03 0. -1.
         11   -1    0    0    0    0 -0.00000000000E+00 -0.00000000000E+00 -0.45593999997E+02  0.45594000000E+02  0.51100000000E-03 0.  1.
         23    2    1    2    0    0  0.00000000000E+00 -0.35527136788E-14  0.17763568394E-14  0.91188000000E+02  0.91188000000E+02 0.  0.
    9900012    2    3    3    0    0  0.33226739447E+02 -0.95786696645E+01  0.12649614428E+02  0.54367083771E+02  0.39999999072E+02 0.  0.
         12    1    3    3    0    0 -0.33226739447E+02  0.95786696645E+01 -0.12649614428E+02  0.36820916229E+02  0.00000000000E+00 0. -1.
         11    1    4    4    0    0  0.92155046241E+01  0.35516278614E+01  0.11431299770E+01  0.99421492821E+01  0.51100000000E-03 0. -1.
        -11    1    4    4    0    0 -0.49849124753E+01 -0.10533495660E+02 -0.28032893090E+01  0.11985921509E+02  0.51100000000E-03 0.  1.
         12    1    4    4    0    0  0.28996147298E+02 -0.25968018663E+01  0.14309773760E+02  0.32439012980E+02  0.00000000000E+00 0. -1.
</event>
<event>
 8    1  0.1244838E-006  0.9118800E+02  0.7816164E-02  0.1184000E+00
        -11   -1    0    0    0    0  0.00000000000E+00  0.00000000000E+00  0.45593999997E+02  0.45594000000E+02  0.51100000000E-03 0.  1.
         11   -1    0    0    0    0 -0.00000000000E+00 -0.00000000000E+00 -0.45593999997E+02  0.45594000000E+02  0.51100000000E-03 0. -1.
         23    2    1    2    0    0  0.00000000000E+00  0.00000000000E+00  0.00000000000E+00  0.91188000000E+02  0.91188000000E+02 0.  0.
    9900012    2    3    3    0    0 -0.33125988387E+02  0.15297448660E+02 -0.49432771282E+01  0.54367095192E+02  0.40000025109E+02 0.  0.
         12    1    3    3    0    0  0.33125988387E+02 -0.15297448660E+02  0.49432771282E+01  0.36820904808E+02  0.00000000000E+00 0. -1.
         11    1    4    4    0    0  0.12189226215E+00  0.10356565598E+02  0.10118932606E+02  0.14479851728E+02  0.51100000000E-03 0. -1.
        -11    1    4    4    0    0 -0.33024240331E+02  0.55831928381E+01 -0.10248560392E+02  0.35025783105E+02  0.51100000000E-03 0.  1.
        -12    1    4    4    0    0 -0.22364031775E+00 -0.64230977625E+00 -0.48136493417E+01  0.48614603593E+01  0.00000000000E+00 0.  1.
</event>
<event>
 8    1  0.1244838E-006  0.9118800E+02  0.7816164E-02  0.1184000E+00
        -11   -1    0    0    0    0  0.00000000000E+00  0.00000000000E+00  0.45593999997E+02  0.45594000000E+02  0.51100000000E-03 0. -1.
         11   -1    0    0    0    0 -0.00000000000E+00 -0.00000000000E+00 -0.45593999997E+02  0.45594000000E+02  0.51100000000E-03 0.  1.
         23    2    1    2    0    0 -0.35527136788E-14  0.00000000000E+00  0.00000000000E+00  0.91188000000E+02  0.91188000000E+02 0.  0.
    9900012    2    3    3    0    0  0.30007520760E+02 -0.12418749387E+02 -0.17352317383E+02  0.54367088047E+02  0.40000008821E+02 0.  0.
         12    1    3    3    0    0 -0.30007520760E+02  0.12418749387E+02  0.17352317383E+02  0.36820911953E+02  0.00000000000E+00 0. -1.
         11    1    4    4    0    0  0.68129246921E+01 -0.11810474527E+02  0.90024671507E+01  0.16338533180E+02  0.51100000000E-03 0. -1.
        -11    1    4    4    0    0  0.48339833549E+01 -0.46426639391E+01 -0.14033415051E+02  0.15551799310E+02  0.51100000000E-03 0.  1.
        -12    1    4    4    0    0  0.18360612713E+02  0.40343890791E+01 -0.12321369483E+02  0.22476755557E+02  0.00000000000E+00 0.  1.
</event>
<event>
 8    1  0.1244838E-006  0.9118800E+02  0.7816164E-02  0.1184000E+00
        -11   -1    0    0    0    0  0.00000000000E+00  0.00000000000E+00  0.45593999997E+02  0.45594000000E+02  0.51100000000E-03 0.  1.
         11   -1    0    0    0    0 -0.00000000000E+00 -0.00000000000E+00 -0.45593999997E+02  0.45594000000E+02  0.51100000000E-03 0. -1.
         23    2    1    2    0    0 -0.44408920985E-15 -0.17763568394E-14  0.00000000000E+00  0.91188000000E+02  0.91188000000E+02 0.  0.
    9900012    2    3    3    0    0  0.35831014802E+01 -0.15846986709E+02  0.33042593109E+02  0.54367101541E+02  0.40000039582E+02 0.  0.
         12    1    3    3    0    0 -0.35831014802E+01  0.15846986709E+02 -0.33042593109E+02  0.36820898459E+02  0.00000000000E+00 0. -1.
         11    1    4    4    0    0 -0.14940362818E+01 -0.12355598613E+02 -0.62749674535E+01  0.13938011992E+02  0.51100000000E-03 0. -1.
        -11    1    4    4    0    0  0.74594537239E+00  0.21430679690E+01  0.80234120394E+01  0.83381242395E+01  0.51100000000E-03 0.  1.
         12    1    4    4    0    0  0.43311923896E+01 -0.56344560654E+01  0.31294148523E+02  0.32090965309E+02  0.00000000000E+00 0. -1.
</event>
<event>
 8    1  0.1244838E-006  0.9118800E+02  0.7816164E-02  0.1184000E+00
        -11   -1    0    0    0    0  0.00000000000E+00  0.00000000000E+00  0.45593999997E+02  0.45594000000E+02  0.51100000000E-03 0. -1.
         11   -1    0    0    0    0 -0.00000000000E+00 -0.00000000000E+00 -0.45593999997E+02  0.45594000000E+02  0.51100000000E-03 0.  1.
         23    2    1    2    0    0 -0.35527136788E-14  0.00000000000E+00  0.35527136788E-14  0.91188000000E+02  0.91188000000E+02 0.  0.
    9900012    2    3    3    0    0 -0.18979266401E+02 -0.77125621862E+01  0.30595514219E+02  0.54367059506E+02  0.39999943755E+02 0.  0.
        -12    1    3    3    0    0  0.18979266401E+02  0.77125621862E+01 -0.30595514219E+02  0.36820940494E+02  0.00000000000E+00 0.  1.
         11    1    4    4    0    0 -0.17930512740E+02 -0.82117152855E+01  0.21485871010E+02  0.29164673981E+02  0.51100000000E-03 0. -1.
        -11    1    4    4    0    0  0.45437096559E+00  0.65526008249E+01  0.15154391246E+02  0.16516616023E+02  0.51100000000E-03 0.  1.
        -12    1    4    4    0    0 -0.15031246260E+01 -0.60534477256E+01 -0.60447480378E+01  0.86857695023E+01  0.00000000000E+00 0.  1.
</event>
<event>
 8    1  0.1244838E-006  0.9118800E+02  0.7816164E-02  0.1184000E+00
        -11   -1    0    0    0    0  0.00000000000E+00  0.00000000000E+00  0.45593999997E+02  0.45594000000E+02  0.51100000000E-03 0. -1.
         11   -1    0    0    0    0 -0.00000000000E+00 -0.00000000000E+00 -0.45593999997E+02  0.45594000000E+02  0.51100000000E-03 0.  1.
         23    2    1    2    0    0  0.35527136788E-14  0.00000000000E+00 -0.17763568394E-14  0.91188000000E+02  0.91188000000E+02 0.  0.
    9900012    2    3    3    0    0 -0.30938851416E+02 -0.19614913283E+02 -0.37177445486E+01  0.54367095957E+02  0.40000026853E+02 0.  0.
         12    1    3    3    0    0  0.30938851416E+02  0.19614913283E+02  0.37177445486E+01  0.36820904043E+02  0.00000000000E+00 0. -1.
         11    1    4    4    0    0 -0.15648764924E+02 -0.29005757157E+01 -0.12552826653E+02  0.20269944262E+02  0.51100000000E-03 0. -1.
        -11    1    4    4    0    0 -0.70568948485E+01 -0.15757838215E+02 -0.49947099045E+01  0.17973768592E+02  0.51100000000E-03 0.  1.
         12    1    4    4    0    0 -0.82331916433E+01 -0.95649935164E+00  0.13829792009E+02  0.16123383102E+02  0.00000000000E+00 0. -1.
</event>
<event>
 8    1  0.1244838E-006  0.9118800E+02  0.7816164E-02  0.1184000E+00
        -11   -1    0    0    0    0  0.00000000000E+00  0.00000000000E+00  0.45593999997E+02  0.45594000000E+02  0.51100000000E-03 0. -1.
         11   -1    0    0    0    0 -0.00000000000E+00 -0.00000000000E+00 -0.45593999997E+02  0.45594000000E+02  0.51100000000E-03 0.  1.
         23    2    1    2    0    0  0.00000000000E+00  0.00000000000E+00  0.00000000000E+00  0.91188000000E+02  0.91188000000E+02 0.  0.
    9900012    2    3    3    0    0  0.14633337902E+02 -0.28686854669E+02  0.17852459359E+02  0.54367075050E+02  0.39999979192E+02 0.  0.
        -12    1    3    3    0    0 -0.14633337902E+02  0.28686854669E+02 -0.17852459359E+02  0.36820924950E+02  0.00000000000E+00 0.  1.
         11    1    4    4    0    0  0.34187455676E+01  0.63264426678E+01  0.41334441264E+00  0.72029543903E+01  0.51100000000E-03 0. -1.
        -11    1    4    4    0    0 -0.45349826788E+01 -0.24110977523E+02  0.79649689113E+01  0.25794302375E+02  0.51100000000E-03 0.  1.
        -12    1    4    4    0    0  0.15749575013E+02 -0.10902319814E+02  0.94741460351E+01  0.21369818285E+02  0.00000000000E+00 0.  1.
</event>
<event>
 8    1  0.1244838E-006  0.9118800E+02  0.7816164E-02  0.1184000E+00
        -11   -1    0    0    0    0  0.00000000000E+00  0.00000000000E+00  0.45593999997E+02  0.45594000000E+02  0.51100000000E-03 0.  1.
         11   -1    0    0    0    0 -0.00000000000E+00 -0.00000000000E+00 -0.45593999997E+02  0.45594000000E+02  0.51100000000E-03 0. -1.
         23    2    1    2    0    0  0.55511151231E-15 -0.17763568394E-14 -0.71054273576E-14  0.91188000000E+02  0.91188000000E+02 0.  0.
    9900012    2    3    3    0    0 -0.51022026977E+00  0.42916022960E+01  0.36566411241E+02  0.54367073803E+02  0.39999976348E+02 0.  0.
         12    1    3    3    0    0  0.51022026977E+00 -0.42916022960E+01 -0.36566411241E+02  0.36820926197E+02  0.00000000000E+00 0. -1.
         11    1    4    4    0    0 -0.12201960329E+02  0.15473957404E+02  0.19608924043E+02  0.27800019712E+02  0.51100000000E-03 0. -1.
        -11    1    4    4    0    0  0.39336873704E+01  0.23788167429E+01  0.22832344198E+01  0.51328184364E+01  0.51100000000E-03 0.  1.
        -12    1    4    4    0    0  0.77580526885E+01 -0.13561171851E+02  0.14674252778E+02  0.21434235654E+02  0.00000000000E+00 0.  1.
</event>
<event>
 8    1  0.1244838E-006  0.9118800E+02  0.7816164E-02  0.1184000E+00
        -11   -1    0    0    0    0  0.00000000000E+00  0.00000000000E+00  0.45593999997E+02  0.45594000000E+02  0.51100000000E-03 0. -1.
         11   -1    0    0    0    0 -0.00000000000E+00 -0.00000000000E+00 -0.45593999997E+02  0.45594000000E+02  0.51100000000E-03 0.  1.
         23    2    1    2    0    0  0.71054273576E-14  0.88817841970E-15  0.00000000000E+00  0.91188000000E+02  0.91188000000E+02 0.  0.
    9900012    2    3    3    0    0 -0.32220347339E+02 -0.48367992339E+01  0.17153267305E+02  0.54367082186E+02  0.39999995459E+02 0.  0.
        -12    1    3    3    0    0  0.32220347339E+02  0.48367992339E+01 -0.17153267305E+02  0.36820917814E+02  0.00000000000E+00 0.  1.
         11    1    4    4    0    0 -0.13993342080E+01  0.78167091549E+01  0.72531512156E+01  0.10754872433E+02  0.51100000000E-03 0. -1.
        -11    1    4    4    0    0  0.14528002026E+01  0.52589710623E+01  0.25745901027E+00  0.54620225618E+01  0.51100000000E-03 0.  1.
         12    1    4    4    0    0 -0.32273813333E+02 -0.17912479451E+02  0.96426570788E+01  0.38150187191E+02  0.00000000000E+00 0. -1.
</event>
<event>
 8    1  0.1244838E-006  0.9118800E+02  0.7816164E-02  0.1184000E+00
        -11   -1    0    0    0    0  0.00000000000E+00  0.00000000000E+00  0.45593999997E+02  0.45594000000E+02  0.51100000000E-03 0.  1.
         11   -1    0    0    0    0 -0.00000000000E+00 -0.00000000000E+00 -0.45593999997E+02  0.45594000000E+02  0.51100000000E-03 0. -1.
         23    2    1    2    0    0  0.00000000000E+00  0.00000000000E+00  0.00000000000E+00  0.91188000000E+02  0.91188000000E+02 0.  0.
    9900012    2    3    3    0    0  0.20131884230E+02 -0.11053211180E+02 -0.28780439596E+02  0.54367082801E+02  0.39999996862E+02 0.  0.
        -12    1    3    3    0    0 -0.20131884230E+02  0.11053211180E+02  0.28780439596E+02  0.36820917199E+02  0.00000000000E+00 0.  1.
         11    1    4    4    0    0 -0.15210992220E+01  0.14713341492E+01 -0.26026637226E+02  0.26112533630E+02  0.51100000000E-03 0. -1.
        -11    1    4    4    0    0  0.16334437892E+02 -0.66373594068E+01  0.37140410847E+01  0.18018393452E+02  0.51100000000E-03 0.  1.
        -12    1    4    4    0    0  0.53185455598E+01 -0.58871859226E+01 -0.64678434546E+01  0.10236155719E+02  0.00000000000E+00 0.  1.
</event>
<event>
 8    1  0.1244838E-006  0.9118800E+02  0.7816164E-02  0.1184000E+00
        -11   -1    0    0    0    0  0.00000000000E+00  0.00000000000E+00  0.45593999997E+02  0.45594000000E+02  0.51100000000E-03 0.  1.
         11   -1    0    0    0    0 -0.00000000000E+00 -0.00000000000E+00 -0.45593999997E+02  0.45594000000E+02  0.51100000000E-03 0. -1.
         23    2    1    2    0    0  0.88817841970E-15 -0.88817841970E-15  0.71054273576E-14  0.91188000000E+02  0.91188000000E+02 0.  0.
    9900012    2    3    3    0    0 -0.33399271106E+01 -0.17612411358E+01 -0.36626824142E+02  0.54367063969E+02  0.39999953931E+02 0.  0.
        -12    1    3    3    0    0  0.33399271106E+01  0.17612411358E+01  0.36626824142E+02  0.36820936031E+02  0.00000000000E+00 0.  1.
         11    1    4    4    0    0  0.25996549465E+01  0.15488750203E+01 -0.13227005671E+01  0.33025379212E+01  0.51100000000E-03 0. -1.
        -11    1    4    4    0    0  0.87218933697E+01  0.10316764434E+02 -0.43314228552E+01  0.14186905108E+02  0.51100000000E-03 0.  1.
         12    1    4    4    0    0 -0.14661475427E+02 -0.13626880590E+02 -0.30972700720E+02  0.36877620940E+02  0.00000000000E+00 0. -1.
</event>
<event>
 8    1  0.1244838E-006  0.9118800E+02  0.7816164E-02  0.1184000E+00
        -11   -1    0    0    0    0  0.00000000000E+00  0.00000000000E+00  0.45593999997E+02  0.45594000000E+02  0.51100000000E-03 0.  1.
         11   -1    0    0    0    0 -0.00000000000E+00 -0.00000000000E+00 -0.45593999997E+02  0.45594000000E+02  0.51100000000E-03 0. -1.
         23    2    1    2    0    0  0.44408920985E-15 -0.88817841970E-15  0.00000000000E+00  0.91188000000E+02  0.91188000000E+02 0.  0.
    9900012    2    3    3    0    0 -0.55912968228E+00  0.30456095408E+01  0.36690478279E+02  0.54367088009E+02  0.40000008735E+02 0.  0.
         12    1    3    3    0    0  0.55912968228E+00 -0.30456095408E+01 -0.36690478279E+02  0.36820911991E+02  0.00000000000E+00 0. -1.
         11    1    4    4    0    0  0.63865947188E+01 -0.50607853009E+01  0.37768617068E+01  0.89813598401E+01  0.51100000000E-03 0. -1.
        -11    1    4    4    0    0 -0.53668788200E+01 -0.59090420934E+00  0.35708938078E+02  0.36114828187E+02  0.51100000000E-03 0.  1.
        -12    1    4    4    0    0 -0.15788455811E+01  0.86972990510E+01 -0.27953215063E+01  0.92708999819E+01  0.00000000000E+00 0.  1.
</event>
<event>
 8    1  0.1244838E-006  0.9118800E+02  0.7816164E-02  0.1184000E+00
        -11   -1    0    0    0    0  0.00000000000E+00  0.00000000000E+00  0.45593999997E+02  0.45594000000E+02  0.51100000000E-03 0. -1.
         11   -1    0    0    0    0 -0.00000000000E+00 -0.00000000000E+00 -0.45593999997E+02  0.45594000000E+02  0.51100000000E-03 0.  1.
         23    2    1    2    0    0  0.35527136788E-14  0.00000000000E+00 -0.35527136788E-14  0.91188000000E+02  0.91188000000E+02 0.  0.
    9900012    2    3    3    0    0  0.22837375132E+02  0.54841462918E+01  0.28357686631E+02  0.54367082649E+02  0.39999996516E+02 0.  0.
        -12    1    3    3    0    0 -0.22837375132E+02 -0.54841462918E+01 -0.28357686631E+02  0.36820917351E+02  0.00000000000E+00 0.  1.
         11    1    4    4    0    0  0.90040303948E+01  0.47295489409E+01  0.14376069356E+02  0.17610013258E+02  0.51100000000E-03 0. -1.
        -11    1    4    4    0    0 -0.61254166128E+01  0.94127459320E+01  0.66660686570E+00  0.11250105761E+02  0.51100000000E-03 0.  1.
        -12    1    4    4    0    0  0.19958761350E+02 -0.86581485810E+01  0.13315010410E+02  0.25506963631E+02  0.00000000000E+00 0.  1.
</event>
<event>
 8    1  0.1244838E-006  0.9118800E+02  0.7816164E-02  0.1184000E+00
        -11   -1    0    0    0    0  0.00000000000E+00  0.00000000000E+00  0.45593999997E+02  0.45594000000E+02  0.51100000000E-03 0.  1.
         11   -1    0    0    0    0 -0.00000000000E+00 -0.00000000000E+00 -0.45593999997E+02  0.45594000000E+02  0.51100000000E-03 0. -1.
         23    2    1    2    0    0  0.00000000000E+00 -0.17763568394E-14  0.35527136788E-14  0.91188000000E+02  0.91188000000E+02 0.  0.
    9900012    2    3    3    0    0 -0.25965000705E+02 -0.11172648058E+02 -0.23595983449E+02  0.54367085275E+02  0.40000002502E+02 0.  0.
        -12    1    3    3    0    0  0.25965000705E+02  0.11172648058E+02  0.23595983449E+02  0.36820914725E+02  0.00000000000E+00 0.  1.
         11    1    4    4    0    0 -0.66452078602E+00  0.62022874665E+01 -0.11199736660E+02  0.12819674692E+02  0.51100000000E-03 0. -1.
        -11    1    4    4    0    0 -0.46975023412E+01 -0.16394371179E+02  0.77972495661E+00  0.17071903991E+02  0.51100000000E-03 0.  1.
        -12    1    4    4    0    0 -0.20602977578E+02 -0.98056434500E+00 -0.13175971746E+02  0.24475506592E+02  0.00000000000E+00 0.  1.
</event>
<event>
 8    1  0.1244838E-006  0.9118800E+02  0.7816164E-02  0.1184000E+00
        -11   -1    0    0    0    0  0.00000000000E+00  0.00000000000E+00  0.45593999997E+02  0.45594000000E+02  0.51100000000E-03 0.  1.
         11   -1    0    0    0    0 -0.00000000000E+00 -0.00000000000E+00 -0.45593999997E+02  0.45594000000E+02  0.51100000000E-03 0. -1.
         23    2    1    2    0    0  0.35527136788E-14  0.35527136788E-14 -0.17763568394E-14  0.91188000000E+02  0.91188000000E+02 0.  0.
    9900012    2    3    3    0    0 -0.19717532924E+02 -0.29122990216E+02  0.10901824560E+02  0.54367089603E+02  0.40000012367E+02 0.  0.
         12    1    3    3    0    0  0.19717532924E+02  0.29122990216E+02 -0.10901824560E+02  0.36820910397E+02  0.00000000000E+00 0. -1.
         11    1    4    4    0    0 -0.16650146188E+02 -0.10705200697E+02  0.43031116556E+01  0.20256985468E+02  0.51100000000E-03 0. -1.
        -11    1    4    4    0    0 -0.11028394019E+02 -0.18984260709E+02 -0.23954265639E+01  0.22085418221E+02  0.51100000000E-03 0.  1.
         12    1    4    4    0    0  0.79610072826E+01  0.56647118985E+00  0.89941394679E+01  0.12024685914E+02  0.00000000000E+00 0. -1.
</event>
<event>
 8    1  0.1244838E-006  0.9118800E+02  0.7816164E-02  0.1184000E+00
        -11   -1    0    0    0    0  0.00000000000E+00  0.00000000000E+00  0.45593999997E+02  0.45594000000E+02  0.51100000000E-03 0.  1.
         11   -1    0    0    0    0 -0.00000000000E+00 -0.00000000000E+00 -0.45593999997E+02  0.45594000000E+02  0.51100000000E-03 0. -1.
         23    2    1    2    0    0 -0.22204460493E-15  0.00000000000E+00  0.26645352591E-14  0.91188000000E+02  0.91188000000E+02 0.  0.
    9900012    2    3    3    0    0 -0.93736898206E+00 -0.36355203469E+02 -0.57619812708E+01  0.54367083281E+02  0.39999997956E+02 0.  0.
         12    1    3    3    0    0  0.93736898206E+00  0.36355203469E+02  0.57619812708E+01  0.36820916719E+02  0.00000000000E+00 0. -1.
         11    1    4    4    0    0  0.51649169602E+00 -0.51473672992E+01 -0.85891150816E+01  0.10026716907E+02  0.51100000000E-03 0. -1.
        -11    1    4    4    0    0 -0.14847795049E+02 -0.20585908654E+02  0.77719073931E+01  0.26545040925E+02  0.51100000000E-03 0.  1.
        -12    1    4    4    0    0  0.13393934371E+02 -0.10621927516E+02 -0.49447735823E+01  0.17795325449E+02  0.00000000000E+00 0.  1.
</event>
<event>
 8    1  0.1244838E-006  0.9118800E+02  0.7816164E-02  0.1184000E+00
        -11   -1    0    0    0    0  0.00000000000E+00  0.00000000000E+00  0.45593999997E+02  0.45594000000E+02  0.51100000000E-03 0.  1.
         11   -1    0    0    0    0 -0.00000000000E+00 -0.00000000000E+00 -0.45593999997E+02  0.45594000000E+02  0.51100000000E-03 0. -1.
         23    2    1    2    0    0  0.00000000000E+00  0.00000000000E+00  0.00000000000E+00  0.91188000000E+02  0.91188000000E+02 0.  0.
    9900012    2    3    3    0    0  0.41005232377E+01  0.16923813353E+02 -0.32443035471E+02  0.54367077962E+02  0.39999985829E+02 0.  0.
        -12    1    3    3    0    0 -0.41005232377E+01 -0.16923813353E+02  0.32443035471E+02  0.36820922038E+02  0.00000000000E+00 0.  1.
         11    1    4    4    0    0 -0.31488307727E+01  0.10767612179E+02  0.12286730368E+01  0.11285665464E+02  0.51100000000E-03 0. -1.
        -11    1    4    4    0    0  0.12254314507E+01 -0.83631899404E+01 -0.36778514163E+01  0.92179834846E+01  0.51100000000E-03 0.  1.
         12    1    4    4    0    0  0.60239225598E+01  0.14519391115E+02 -0.29993857091E+02  0.33863429013E+02  0.00000000000E+00 0. -1.
</event>
<event>
 8    1  0.1244838E-006  0.9118800E+02  0.7816164E-02  0.1184000E+00
        -11   -1    0    0    0    0  0.00000000000E+00  0.00000000000E+00  0.45593999997E+02  0.45594000000E+02  0.51100000000E-03 0. -1.
         11   -1    0    0    0    0 -0.00000000000E+00 -0.00000000000E+00 -0.45593999997E+02  0.45594000000E+02  0.51100000000E-03 0.  1.
         23    2    1    2    0    0 -0.35527136788E-14 -0.17763568394E-14  0.00000000000E+00  0.91188000000E+02  0.91188000000E+02 0.  0.
    9900012    2    3    3    0    0 -0.27778671990E+02 -0.12431454996E+02  0.20726453853E+02  0.54367060574E+02  0.39999946191E+02 0.  0.
        -12    1    3    3    0    0  0.27778671990E+02  0.12431454996E+02 -0.20726453853E+02  0.36820939426E+02  0.00000000000E+00 0.  1.
         11    1    4    4    0    0 -0.10422589939E+02  0.37674367364E+01 -0.21422644490E+01  0.11287748129E+02  0.51100000000E-03 0. -1.
        -11    1    4    4    0    0 -0.31387522920E+01 -0.11097743154E+02 -0.40406947270E+01  0.12220428929E+02  0.51100000000E-03 0.  1.
         12    1    4    4    0    0 -0.14217329759E+02 -0.51011485783E+01  0.26909413029E+02  0.30858883516E+02  0.00000000000E+00 0. -1.
</event>
<event>
 8    1  0.1244838E-006  0.9118800E+02  0.7816164E-02  0.1184000E+00
        -11   -1    0    0    0    0  0.00000000000E+00  0.00000000000E+00  0.45593999997E+02  0.45594000000E+02  0.51100000000E-03 0. -1.
         11   -1    0    0    0    0 -0.00000000000E+00 -0.00000000000E+00 -0.45593999997E+02  0.45594000000E+02  0.51100000000E-03 0.  1.
         23    2    1    2    0    0  0.17763568394E-14 -0.71054273576E-14  0.00000000000E+00  0.91188000000E+02  0.91188000000E+02 0.  0.
    9900012    2    3    3    0    0  0.15366321222E+02 -0.32435407280E+02 -0.82219519045E+01  0.54367082487E+02  0.39999996147E+02 0.  0.
         12    1    3    3    0    0 -0.15366321222E+02  0.32435407280E+02  0.82219519045E+01  0.36820917513E+02  0.00000000000E+00 0. -1.
         11    1    4    4    0    0  0.15014122300E+02  0.40155493305E+01  0.28499575111E+01  0.15800973481E+02  0.51100000000E-03 0. -1.
        -11    1    4    4    0    0  0.25718603148E+01 -0.27364118187E+02 -0.95044408040E+01  0.29081675070E+02  0.51100000000E-03 0.  1.
         12    1    4    4    0    0 -0.22196613931E+01 -0.90868384236E+01 -0.15674686116E+01  0.94844339359E+01  0.00000000000E+00 0. -1.
</event>
<event>
 8    1  0.1244838E-006  0.9118800E+02  0.7816164E-02  0.1184000E+00
        -11   -1    0    0    0    0  0.00000000000E+00  0.00000000000E+00  0.45593999997E+02  0.45594000000E+02  0.51100000000E-03 0.  1.
         11   -1    0    0    0    0 -0.00000000000E+00 -0.00000000000E+00 -0.45593999997E+02  0.45594000000E+02  0.51100000000E-03 0. -1.
         23    2    1    2    0    0  0.35527136788E-14 -0.35527136788E-14  0.00000000000E+00  0.91188000000E+02  0.91188000000E+02 0.  0.
    9900012    2    3    3    0    0 -0.30542088536E+02 -0.20104279366E+02  0.43331366525E+01  0.54367118775E+02  0.40000078871E+02 0.  0.
         12    1    3    3    0    0  0.30542088536E+02  0.20104279366E+02 -0.43331366525E+01  0.36820881225E+02  0.00000000000E+00 0. -1.
         11    1    4    4    0    0  0.24799293319E+01 -0.12862764059E+02  0.86858717937E+01  0.15717668969E+02  0.51100000000E-03 0. -1.
        -11    1    4    4    0    0 -0.15745961444E+01  0.13904546206E+01  0.44076805141E+01  0.48826596078E+01  0.51100000000E-03 0.  1.
        -12    1    4    4    0    0 -0.31447421723E+02 -0.86319699274E+01 -0.87604156554E+01  0.33766790199E+02  0.00000000000E+00 0.  1.
</event>
<event>
 8    1  0.1244838E-006  0.9118800E+02  0.7816164E-02  0.1184000E+00
        -11   -1    0    0    0    0  0.00000000000E+00  0.00000000000E+00  0.45593999997E+02  0.45594000000E+02  0.51100000000E-03 0. -1.
         11   -1    0    0    0    0 -0.00000000000E+00 -0.00000000000E+00 -0.45593999997E+02  0.45594000000E+02  0.51100000000E-03 0.  1.
         23    2    1    2    0    0  0.00000000000E+00 -0.17763568394E-14  0.00000000000E+00  0.91188000000E+02  0.91188000000E+02 0.  0.
    9900012    2    3    3    0    0  0.69265575644E+01 -0.10836036326E+02 -0.34501925537E+02  0.54367085445E+02  0.40000002888E+02 0.  0.
         12    1    3    3    0    0 -0.69265575644E+01  0.10836036326E+02  0.34501925537E+02  0.36820914555E+02  0.00000000000E+00 0. -1.
         11    1    4    4    0    0 -0.30546184075E+01 -0.64833748368E+01 -0.12440471215E+02  0.14357233968E+02  0.51100000000E-03 0. -1.
        -11    1    4    4    0    0  0.10001278973E+02  0.92968959475E+01 -0.22538141816E+02  0.26351958033E+02  0.51100000000E-03 0.  1.
         12    1    4    4    0    0 -0.20103001454E-01 -0.13649557437E+02  0.47668749510E+00  0.13657893444E+02  0.00000000000E+00 0. -1.
</event>
<event>
 8    1  0.1244838E-006  0.9118800E+02  0.7816164E-02  0.1184000E+00
        -11   -1    0    0    0    0  0.00000000000E+00  0.00000000000E+00  0.45593999997E+02  0.45594000000E+02  0.51100000000E-03 0. -1.
         11   -1    0    0    0    0 -0.00000000000E+00 -0.00000000000E+00 -0.45593999997E+02  0.45594000000E+02  0.51100000000E-03 0.  1.
         23    2    1    2    0    0  0.00000000000E+00  0.00000000000E+00  0.00000000000E+00  0.91188000000E+02  0.91188000000E+02 0.  0.
    9900012    2    3    3    0    0  0.85114642916E+01  0.13820540379E+02 -0.33050433899E+02  0.54367033939E+02  0.39999885471E+02 0.  0.
         12    1    3    3    0    0 -0.85114642916E+01 -0.13820540379E+02  0.33050433899E+02  0.36820966061E+02  0.00000000000E+00 0. -1.
         11    1    4    4    0    0  0.38219504207E+01  0.40499679600E-01  0.23401375497E+01  0.44816502825E+01  0.51100000000E-03 0. -1.
        -11    1    4    4    0    0  0.81999614084E+01 -0.89455680501E+01 -0.11298703840E+02  0.16580810100E+02  0.51100000000E-03 0.  1.
         12    1    4    4    0    0 -0.35104475374E+01  0.22725608749E+02 -0.24091867609E+02  0.33304573557E+02  0.00000000000E+00 0. -1.
</event>
<event>
 8    1  0.1244838E-006  0.9118800E+02  0.7816164E-02  0.1184000E+00
        -11   -1    0    0    0    0  0.00000000000E+00  0.00000000000E+00  0.45593999997E+02  0.45594000000E+02  0.51100000000E-03 0.  1.
         11   -1    0    0    0    0 -0.00000000000E+00 -0.00000000000E+00 -0.45593999997E+02  0.45594000000E+02  0.51100000000E-03 0. -1.
         23    2    1    2    0    0  0.35527136788E-14  0.00000000000E+00  0.00000000000E+00  0.91188000000E+02  0.91188000000E+02 0.  0.
    9900012    2    3    3    0    0  0.18524614808E+02  0.17138785397E+02  0.26811926403E+02  0.54367099467E+02  0.40000034854E+02 0.  0.
         12    1    3    3    0    0 -0.18524614808E+02 -0.17138785397E+02 -0.26811926403E+02  0.36820900533E+02  0.00000000000E+00 0. -1.
         11    1    4    4    0    0 -0.47814083589E+01  0.10875048126E+01 -0.55670990811E+01  0.74187010353E+01  0.51100000000E-03 0. -1.
        -11    1    4    4    0    0  0.11587576929E+02  0.61550044657E+01  0.28119149314E+02  0.31029704760E+02  0.51100000000E-03 0.  1.
        -12    1    4    4    0    0  0.11718446237E+02  0.98962761183E+01  0.42598761698E+01  0.15918693671E+02  0.00000000000E+00 0.  1.
</event>
<event>
 8    1  0.1244838E-006  0.9118800E+02  0.7816164E-02  0.1184000E+00
        -11   -1    0    0    0    0  0.00000000000E+00  0.00000000000E+00  0.45593999997E+02  0.45594000000E+02  0.51100000000E-03 0.  1.
         11   -1    0    0    0    0 -0.00000000000E+00 -0.00000000000E+00 -0.45593999997E+02  0.45594000000E+02  0.51100000000E-03 0. -1.
         23    2    1    2    0    0  0.88817841970E-15  0.00000000000E+00  0.00000000000E+00  0.91188000000E+02  0.91188000000E+02 0.  0.
    9900012    2    3    3    0    0  0.56544709371E+01  0.16490233669E+02  0.32432693667E+02  0.54367075696E+02  0.39999980665E+02 0.  0.
         12    1    3    3    0    0 -0.56544709371E+01 -0.16490233669E+02 -0.32432693667E+02  0.36820924304E+02  0.00000000000E+00 0. -1.
         11    1    4    4    0    0 -0.39098198752E+01 -0.54432559800E+01  0.94100283558E+01  0.11552677657E+02  0.51100000000E-03 0. -1.
        -11    1    4    4    0    0 -0.36278496307E+01  0.22519579340E+02  0.15960936832E+02  0.27839616582E+02  0.51100000000E-03 0.  1.
         12    1    4    4    0    0  0.13192140443E+02 -0.58608969108E+00  0.70617284800E+01  0.14974781458E+02  0.00000000000E+00 0. -1.
</event>
<event>
 8    1  0.1244838E-006  0.9118800E+02  0.7816164E-02  0.1184000E+00
        -11   -1    0    0    0    0  0.00000000000E+00  0.00000000000E+00  0.45593999997E+02  0.45594000000E+02  0.51100000000E-03 0. -1.
         11   -1    0    0    0    0 -0.00000000000E+00 -0.00000000000E+00 -0.45593999997E+02  0.45594000000E+02  0.51100000000E-03 0.  1.
         23    2    1    2    0    0  0.00000000000E+00  0.00000000000E+00  0.71054273576E-14  0.91188000000E+02  0.91188000000E+02 0.  0.
    9900012    2    3    3    0    0 -0.60297354185E+01 -0.10645521650E+02 -0.34728866457E+02  0.54367095532E+02  0.40000025885E+02 0.  0.
         12    1    3    3    0    0  0.60297354185E+01  0.10645521650E+02  0.34728866457E+02  0.36820904468E+02  0.00000000000E+00 0. -1.
         11    1    4    4    0    0 -0.85803157251E+01 -0.15599967064E+02 -0.18498668661E+02  0.25674530820E+02  0.51100000000E-03 0. -1.
        -11    1    4    4    0    0  0.60539593987E+00  0.79419581547E+01 -0.21159645799E+02  0.22609109098E+02  0.51100000000E-03 0.  1.
         12    1    4    4    0    0  0.19451843667E+01 -0.29875127413E+01  0.49294480032E+01  0.60834556148E+01  0.00000000000E+00 0. -1.
</event>
<event>
 8    1  0.1244838E-006  0.9118800E+02  0.7816164E-02  0.1184000E+00
        -11   -1    0    0    0    0  0.00000000000E+00  0.00000000000E+00  0.45593999997E+02  0.45594000000E+02  0.51100000000E-03 0.  1.
         11   -1    0    0    0    0 -0.00000000000E+00 -0.00000000000E+00 -0.45593999997E+02  0.45594000000E+02  0.51100000000E-03 0. -1.
         23    2    1    2    0    0  0.00000000000E+00  0.00000000000E+00 -0.17763568394E-14  0.91188000000E+02  0.91188000000E+02 0.  0.
    9900012    2    3    3    0    0 -0.33833714789E+02 -0.86594250482E+01 -0.11665111524E+02  0.54367072181E+02  0.39999972650E+02 0.  0.
         12    1    3    3    0    0  0.33833714789E+02  0.86594250482E+01  0.11665111524E+02  0.36820927819E+02  0.00000000000E+00 0. -1.
         11    1    4    4    0    0 -0.22519724515E+01  0.16562840449E+01  0.41593485448E+01  0.50114705764E+01  0.51100000000E-03 0. -1.
        -11    1    4    4    0    0  0.69051647844E+00  0.69973802755E+01  0.36008771645E+01  0.78997759678E+01  0.51100000000E-03 0.  1.
         12    1    4    4    0    0 -0.32272258816E+02 -0.17313089369E+02 -0.19425337233E+02  0.41455825637E+02  0.00000000000E+00 0. -1.
</event>
<event>
 8    1  0.1244838E-006  0.9118800E+02  0.7816164E-02  0.1184000E+00
        -11   -1    0    0    0    0  0.00000000000E+00  0.00000000000E+00  0.45593999997E+02  0.45594000000E+02  0.51100000000E-03 0.  1.
         11   -1    0    0    0    0 -0.00000000000E+00 -0.00000000000E+00 -0.45593999997E+02  0.45594000000E+02  0.51100000000E-03 0. -1.
         23    2    1    2    0    0 -0.35527136788E-14 -0.66613381478E-15  0.35527136788E-14  0.91188000000E+02  0.91188000000E+02 0.  0.
    9900012    2    3    3    0    0 -0.19815698436E+02 -0.32764111026E+00 -0.31032360085E+02  0.54367127854E+02  0.40000099568E+02 0.  0.
        -12    1    3    3    0    0  0.19815698436E+02  0.32764111026E+00  0.31032360085E+02  0.36820872146E+02  0.00000000000E+00 0.  1.
         11    1    4    4    0    0 -0.47424175210E+00  0.53822833622E+00 -0.17232711932E+02  0.17247636237E+02  0.51100000000E-03 0. -1.
        -11    1    4    4    0    0 -0.20501415301E+02 -0.11602911172E+02 -0.10775294590E+02  0.25904489009E+02  0.51100000000E-03 0.  1.
        -12    1    4    4    0    0  0.11599586178E+01  0.10737041726E+02 -0.30243535628E+01  0.11215002608E+02  0.00000000000E+00 0.  1.
</event>
<event>
 8    1  0.1244838E-006  0.9118800E+02  0.7816164E-02  0.1184000E+00
        -11   -1    0    0    0    0  0.00000000000E+00  0.00000000000E+00  0.45593999997E+02  0.45594000000E+02  0.51100000000E-03 0.  1.
         11   -1    0    0    0    0 -0.00000000000E+00 -0.00000000000E+00 -0.45593999997E+02  0.45594000000E+02  0.51100000000E-03 0. -1.
         23    2    1    2    0    0  0.00000000000E+00 -0.88817841970E-15  0.00000000000E+00  0.91188000000E+02  0.91188000000E+02 0.  0.
    9900012    2    3    3    0    0  0.33542094503E+02 -0.68479904737E+01 -0.13557774815E+02  0.54367077482E+02  0.39999984735E+02 0.  0.
         12    1    3    3    0    0 -0.33542094503E+02  0.68479904737E+01  0.13557774815E+02  0.36820922518E+02  0.00000000000E+00 0. -1.
         11    1    4    4    0    0  0.76033718790E+01  0.13994681626E+02 -0.94293128519E+01  0.18508763299E+02  0.51100000000E-03 0. -1.
        -11    1    4    4    0    0  0.13909704370E+02 -0.18850427515E+02 -0.27567105729E+01  0.23588513023E+02  0.51100000000E-03 0.  1.
         12    1    4    4    0    0  0.12029018254E+02 -0.19922445844E+01 -0.13717513900E+01  0.12269801160E+02  0.00000000000E+00 0. -1.
</event>
<event>
 8    1  0.1244838E-006  0.9118800E+02  0.7816164E-02  0.1184000E+00
        -11   -1    0    0    0    0  0.00000000000E+00  0.00000000000E+00  0.45593999997E+02  0.45594000000E+02  0.51100000000E-03 0. -1.
         11   -1    0    0    0    0 -0.00000000000E+00 -0.00000000000E+00 -0.45593999997E+02  0.45594000000E+02  0.51100000000E-03 0.  1.
         23    2    1    2    0    0 -0.35527136788E-14  0.44408920985E-15  0.35527136788E-14  0.91188000000E+02  0.91188000000E+02 0.  0.
    9900012    2    3    3    0    0  0.25861255883E+02 -0.11930180674E+01 -0.26183004508E+02  0.54367114989E+02  0.40000070240E+02 0.  0.
         12    1    3    3    0    0 -0.25861255883E+02  0.11930180674E+01  0.26183004508E+02  0.36820885011E+02  0.00000000000E+00 0. -1.
         11    1    4    4    0    0 -0.39869329378E+01 -0.33173840230E+01 -0.70410125024E+01  0.87450859531E+01  0.51100000000E-03 0. -1.
        -11    1    4    4    0    0  0.20354281973E+02 -0.12551071028E+02 -0.11765850751E+02  0.26650730248E+02  0.51100000000E-03 0.  1.
        -12    1    4    4    0    0  0.94939068472E+01  0.14675436984E+02 -0.73761412544E+01  0.18971298788E+02  0.00000000000E+00 0.  1.
</event>
<event>
 8    1  0.1244838E-006  0.9118800E+02  0.7816164E-02  0.1184000E+00
        -11   -1    0    0    0    0  0.00000000000E+00  0.00000000000E+00  0.45593999997E+02  0.45594000000E+02  0.51100000000E-03 0. -1.
         11   -1    0    0    0    0 -0.00000000000E+00 -0.00000000000E+00 -0.45593999997E+02  0.45594000000E+02  0.51100000000E-03 0.  1.
         23    2    1    2    0    0 -0.71054273576E-14 -0.35527136788E-14  0.00000000000E+00  0.91188000000E+02  0.91188000000E+02 0.  0.
    9900012    2    3    3    0    0  0.29125814738E+02 -0.22381299542E+02  0.25579904936E+01  0.54367096036E+02  0.40000027033E+02 0.  0.
        -12    1    3    3    0    0 -0.29125814738E+02  0.22381299542E+02 -0.25579904936E+01  0.36820903964E+02  0.00000000000E+00 0.  1.
         11    1    4    4    0    0  0.23415541321E+02 -0.26286706195E+02 -0.51802914935E+01  0.35582494546E+02  0.51100000000E-03 0. -1.
        -11    1    4    4    0    0 -0.50331238437E+01  0.37122387180E+01  0.39210051762E+01  0.73815536155E+01  0.51100000000E-03 0.  1.
        -12    1    4    4    0    0  0.10743397261E+02  0.19316793442E+00  0.38172768109E+01  0.11403047874E+02  0.00000000000E+00 0.  1.
</event>
<event>
 8    1  0.1244838E-006  0.9118800E+02  0.7816164E-02  0.1184000E+00
        -11   -1    0    0    0    0  0.00000000000E+00  0.00000000000E+00  0.45593999997E+02  0.45594000000E+02  0.51100000000E-03 0. -1.
         11   -1    0    0    0    0 -0.00000000000E+00 -0.00000000000E+00 -0.45593999997E+02  0.45594000000E+02  0.51100000000E-03 0.  1.
         23    2    1    2    0    0  0.17763568394E-14  0.35527136788E-14  0.17763568394E-14  0.91188000000E+02  0.91188000000E+02 0.  0.
    9900012    2    3    3    0    0  0.13483628918E+02  0.30572536208E+02  0.15469054161E+02  0.54367083992E+02  0.39999999577E+02 0.  0.
        -12    1    3    3    0    0 -0.13483628918E+02 -0.30572536208E+02 -0.15469054161E+02  0.36820916008E+02  0.00000000000E+00 0.  1.
         11    1    4    4    0    0 -0.10295194585E+02  0.23755359741E+01  0.77695290428E+01  0.13114868833E+02  0.51100000000E-03 0. -1.
        -11    1    4    4    0    0  0.21188484100E+02  0.12831452936E+02  0.65785927138E+01  0.25629590813E+02  0.51100000000E-03 0.  1.
         12    1    4    4    0    0  0.25903394036E+01  0.15365547298E+02  0.11209324042E+01  0.15622624346E+02  0.00000000000E+00 0. -1.
</event>
<event>
 8    1  0.1244838E-006  0.9118800E+02  0.7816164E-02  0.1184000E+00
        -11   -1    0    0    0    0  0.00000000000E+00  0.00000000000E+00  0.45593999997E+02  0.45594000000E+02  0.51100000000E-03 0.  1.
         11   -1    0    0    0    0 -0.00000000000E+00 -0.00000000000E+00 -0.45593999997E+02  0.45594000000E+02  0.51100000000E-03 0. -1.
         23    2    1    2    0    0 -0.88817841970E-15  0.00000000000E+00  0.00000000000E+00  0.91188000000E+02  0.91188000000E+02 0.  0.
    9900012    2    3    3    0    0 -0.66893858372E+01  0.35014500308E+02 -0.92203821833E+01  0.54367101555E+02  0.40000039615E+02 0.  0.
        -12    1    3    3    0    0  0.66893858372E+01 -0.35014500308E+02  0.92203821833E+01  0.36820898445E+02  0.00000000000E+00 0.  1.
         11    1    4    4    0    0 -0.20904533331E+01  0.20583150802E+02  0.46974915153E+01  0.21215619691E+02  0.51100000000E-03 0. -1.
        -11    1    4    4    0    0 -0.53825769634E+01  0.21577404488E+02 -0.13355063039E+02  0.25940590361E+02  0.51100000000E-03 0.  1.
        -12    1    4    4    0    0  0.78364445935E+00 -0.71460549818E+01 -0.56281065916E+00  0.72108915038E+01  0.00000000000E+00 0.  1.
</event>
<event>
 8    1  0.1244838E-006  0.9118800E+02  0.7816164E-02  0.1184000E+00
        -11   -1    0    0    0    0  0.00000000000E+00  0.00000000000E+00  0.45593999997E+02  0.45594000000E+02  0.51100000000E-03 0.  1.
         11   -1    0    0    0    0 -0.00000000000E+00 -0.00000000000E+00 -0.45593999997E+02  0.45594000000E+02  0.51100000000E-03 0. -1.
         23    2    1    2    0    0  0.71054273576E-14 -0.88817841970E-15 -0.17763568394E-14  0.91188000000E+02  0.91188000000E+02 0.  0.
    9900012    2    3    3    0    0 -0.36189404858E+02  0.15726181549E+01  0.66055790824E+01  0.54367084383E+02  0.40000000469E+02 0.  0.
        -12    1    3    3    0    0  0.36189404858E+02 -0.15726181549E+01 -0.66055790824E+01  0.36820915617E+02  0.00000000000E+00 0.  1.
         11    1    4    4    0    0 -0.15399718761E+02 -0.50475365702E+01  0.13341003633E+02  0.20990744187E+02  0.51100000000E-03 0.  1.
        -11    1    4    4    0    0 -0.22254998017E+02  0.87508831248E+01 -0.12554275547E+02  0.27008752784E+02  0.51100000000E-03 0. -1.
         12    1    4    4    0    0  0.14653119195E+01 -0.21307283998E+01  0.58188509959E+01  0.63675874118E+01  0.00000000000E+00 0. -1.
</event>
<event>
 8    1  0.1244838E-006  0.9118800E+02  0.7816164E-02  0.1184000E+00
        -11   -1    0    0    0    0  0.00000000000E+00  0.00000000000E+00  0.45593999997E+02  0.45594000000E+02  0.51100000000E-03 0. -1.
         11   -1    0    0    0    0 -0.00000000000E+00 -0.00000000000E+00 -0.45593999997E+02  0.45594000000E+02  0.51100000000E-03 0.  1.
         23    2    1    2    0    0  0.00000000000E+00  0.00000000000E+00  0.00000000000E+00  0.91188000000E+02  0.91188000000E+02 0.  0.
    9900012    2    3    3    0    0 -0.15531092501E+02  0.25638365930E+02  0.21383152304E+02  0.54367084147E+02  0.39999999930E+02 0.  0.
        -12    1    3    3    0    0  0.15531092501E+02 -0.25638365930E+02 -0.21383152304E+02  0.36820915853E+02  0.00000000000E+00 0.  1.
         11    1    4    4    0    0 -0.32512388456E+01  0.97660054231E+01 -0.44155855625E+01  0.11200125538E+02  0.51100000000E-03 0. -1.
        -11    1    4    4    0    0 -0.13881858970E+02  0.14095168605E+02  0.27257173943E+01  0.19970210867E+02  0.51100000000E-03 0.  1.
         12    1    4    4    0    0  0.16020053154E+01  0.17771919016E+01  0.23073020472E+02  0.23196747742E+02  0.00000000000E+00 0. -1.
</event>
<event>
 8    1  0.1244838E-006  0.9118800E+02  0.7816164E-02  0.1184000E+00
        -11   -1    0    0    0    0  0.00000000000E+00  0.00000000000E+00  0.45593999997E+02  0.45594000000E+02  0.51100000000E-03 0.  1.
         11   -1    0    0    0    0 -0.00000000000E+00 -0.00000000000E+00 -0.45593999997E+02  0.45594000000E+02  0.51100000000E-03 0. -1.
         23    2    1    2    0    0 -0.88817841970E-15  0.00000000000E+00 -0.35527136788E-14  0.91188000000E+02  0.91188000000E+02 0.  0.
    9900012    2    3    3    0    0 -0.56909484560E+01 -0.28903135685E+02  0.22090754806E+02  0.54367087536E+02  0.40000007656E+02 0.  0.
         12    1    3    3    0    0  0.56909484560E+01  0.28903135685E+02 -0.22090754806E+02  0.36820912464E+02  0.00000000000E+00 0. -1.
         11    1    4    4    0    0 -0.11504411922E+02 -0.57666031076E+01 -0.20885374771E+01  0.13037146702E+02  0.51100000000E-03 0. -1.
        -11    1    4    4    0    0  0.76470360572E+01 -0.23854306327E+02  0.27668424381E+02  0.37323542152E+02  0.51100000000E-03 0.  1.
        -12    1    4    4    0    0 -0.18335725913E+01  0.71777374913E+00 -0.34891320977E+01  0.40063986818E+01  0.00000000000E+00 0.  1.
</event>
<event>
 8    1  0.1244838E-006  0.9118800E+02  0.7816164E-02  0.1184000E+00
        -11   -1    0    0    0    0  0.00000000000E+00  0.00000000000E+00  0.45593999997E+02  0.45594000000E+02  0.51100000000E-03 0. -1.
         11   -1    0    0    0    0 -0.00000000000E+00 -0.00000000000E+00 -0.45593999997E+02  0.45594000000E+02  0.51100000000E-03 0.  1.
         23    2    1    2    0    0  0.35527136788E-14 -0.35527136788E-14 -0.17763568394E-14  0.91188000000E+02  0.91188000000E+02 0.  0.
    9900012    2    3    3    0    0  0.29800501183E+02 -0.20124827410E+02  0.79183959650E+01  0.54367088228E+02  0.40000009234E+02 0.  0.
         12    1    3    3    0    0 -0.29800501183E+02  0.20124827410E+02 -0.79183959650E+01  0.36820911772E+02  0.00000000000E+00 0. -1.
         11    1    4    4    0    0  0.14586571814E+01  0.52145011971E+01 -0.60214620510E+01  0.80979447392E+01  0.51100000000E-03 0. -1.
        -11    1    4    4    0    0  0.70372858336E+01 -0.60553855771E+01 -0.62127922564E+01  0.11170938827E+02  0.51100000000E-03 0.  1.
         12    1    4    4    0    0  0.21304558168E+02 -0.19283943030E+02  0.20152650272E+02  0.35098204662E+02  0.00000000000E+00 0. -1.
</event>
<event>
 8    1  0.1244838E-006  0.9118800E+02  0.7816164E-02  0.1184000E+00
        -11   -1    0    0    0    0  0.00000000000E+00  0.00000000000E+00  0.45593999997E+02  0.45594000000E+02  0.51100000000E-03 0.  1.
         11   -1    0    0    0    0 -0.00000000000E+00 -0.00000000000E+00 -0.45593999997E+02  0.45594000000E+02  0.51100000000E-03 0. -1.
         23    2    1    2    0    0 -0.17763568394E-14 -0.22204460493E-15  0.00000000000E+00  0.91188000000E+02  0.91188000000E+02 0.  0.
    9900012    2    3    3    0    0  0.14188639944E+02  0.18634269208E+01 -0.33926204842E+02  0.54367119534E+02  0.40000080601E+02 0.  0.
        -12    1    3    3    0    0 -0.14188639944E+02 -0.18634269208E+01  0.33926204842E+02  0.36820880466E+02  0.00000000000E+00 0.  1.
         11    1    4    4    0    0 -0.45463119555E+01 -0.12965832271E+01 -0.22817290318E+02  0.23301905891E+02  0.51100000000E-03 0. -1.
        -11    1    4    4    0    0  0.25642877719E+01  0.90587548049E+01  0.17544823946E+01  0.95767854276E+01  0.51100000000E-03 0.  1.
         12    1    4    4    0    0  0.16170664127E+02 -0.58987446570E+01 -0.12863396919E+02  0.21488428215E+02  0.00000000000E+00 0. -1.
</event>
<event>
 8    1  0.1244838E-006  0.9118800E+02  0.7816164E-02  0.1184000E+00
        -11   -1    0    0    0    0  0.00000000000E+00  0.00000000000E+00  0.45593999997E+02  0.45594000000E+02  0.51100000000E-03 0. -1.
         11   -1    0    0    0    0 -0.00000000000E+00 -0.00000000000E+00 -0.45593999997E+02  0.45594000000E+02  0.51100000000E-03 0.  1.
         23    2    1    2    0    0  0.88817841970E-15  0.17763568394E-14  0.00000000000E+00  0.91188000000E+02  0.91188000000E+02 0.  0.
    9900012    2    3    3    0    0  0.37830588521E+01  0.12711265483E+02 -0.34349547093E+02  0.54367093032E+02  0.40000020185E+02 0.  0.
         12    1    3    3    0    0 -0.37830588521E+01 -0.12711265483E+02  0.34349547093E+02  0.36820906968E+02  0.00000000000E+00 0. -1.
         11    1    4    4    0    0  0.48984608905E+00 -0.13145192716E+02 -0.20774502001E+02  0.24588940082E+02  0.51100000000E-03 0. -1.
        -11    1    4    4    0    0 -0.41424869904E+00  0.11308327583E+02 -0.41560662016E+01  0.12054989060E+02  0.51100000000E-03 0.  1.
         12    1    4    4    0    0  0.37074614621E+01  0.14548130616E+02 -0.94189788906E+01  0.17723163889E+02  0.00000000000E+00 0. -1.
</event>
<event>
 8    1  0.1244838E-006  0.9118800E+02  0.7816164E-02  0.1184000E+00
        -11   -1    0    0    0    0  0.00000000000E+00  0.00000000000E+00  0.45593999997E+02  0.45594000000E+02  0.51100000000E-03 0.  1.
         11   -1    0    0    0    0 -0.00000000000E+00 -0.00000000000E+00 -0.45593999997E+02  0.45594000000E+02  0.51100000000E-03 0. -1.
         23    2    1    2    0    0  0.00000000000E+00 -0.13322676296E-14  0.00000000000E+00  0.91188000000E+02  0.91188000000E+02 0.  0.
    9900012    2    3    3    0    0  0.30223401541E+02  0.23721419233E+01  0.20897368272E+02  0.54367067655E+02  0.39999962334E+02 0.  0.
         12    1    3    3    0    0 -0.30223401541E+02 -0.23721419233E+01 -0.20897368272E+02  0.36820932345E+02  0.00000000000E+00 0. -1.
         11    1    4    4    0    0  0.11777970846E+01 -0.10924525338E+02  0.46444580905E+01  0.11929101016E+02  0.51100000000E-03 0. -1.
        -11    1    4    4    0    0  0.30983562608E+02  0.73188310977E+01  0.95224555532E+01  0.33229860074E+02  0.51100000000E-03 0.  1.
        -12    1    4    4    0    0 -0.19379581517E+01  0.59778361641E+01  0.67304546283E+01  0.92081065646E+01  0.00000000000E+00 0.  1.
</event>
<event>
 8    1  0.1244838E-006  0.9118800E+02  0.7816164E-02  0.1184000E+00
        -11   -1    0    0    0    0  0.00000000000E+00  0.00000000000E+00  0.45593999997E+02  0.45594000000E+02  0.51100000000E-03 0.  1.
         11   -1    0    0    0    0 -0.00000000000E+00 -0.00000000000E+00 -0.45593999997E+02  0.45594000000E+02  0.51100000000E-03 0. -1.
         23    2    1    2    0    0  0.00000000000E+00  0.00000000000E+00  0.00000000000E+00  0.91188000000E+02  0.91188000000E+02 0.  0.
    9900012    2    3    3    0    0  0.10675666310E+02  0.34198570014E+02 -0.85013984917E+01  0.54367003022E+02  0.39999814989E+02 0.  0.
        -12    1    3    3    0    0 -0.10675666310E+02 -0.34198570014E+02  0.85013984917E+01  0.36820996978E+02  0.00000000000E+00 0.  1.
         11    1    4    4    0    0  0.15060867771E+02  0.91993276155E+01 -0.14734127350E+01  0.17709554256E+02  0.51100000000E-03 0. -1.
        -11    1    4    4    0    0  0.58156634598E+00 -0.50684026830E+01  0.87056353999E+00  0.51754039755E+01  0.51100000000E-03 0.  1.
         12    1    4    4    0    0 -0.49667678073E+01  0.30067645081E+02 -0.78985492966E+01  0.31482044790E+02  0.00000000000E+00 0. -1.
</event>
<event>
 8    1  0.1244838E-006  0.9118800E+02  0.7816164E-02  0.1184000E+00
        -11   -1    0    0    0    0  0.00000000000E+00  0.00000000000E+00  0.45593999997E+02  0.45594000000E+02  0.51100000000E-03 0. -1.
         11   -1    0    0    0    0 -0.00000000000E+00 -0.00000000000E+00 -0.45593999997E+02  0.45594000000E+02  0.51100000000E-03 0.  1.
         23    2    1    2    0    0 -0.71054273576E-14 -0.17763568394E-14  0.00000000000E+00  0.91188000000E+02  0.91188000000E+02 0.  0.
    9900012    2    3    3    0    0  0.33349835158E+02  0.85957418443E+01  0.13026208975E+02  0.54367076557E+02  0.39999982627E+02 0.  0.
        -12    1    3    3    0    0 -0.33349835158E+02 -0.85957418443E+01 -0.13026208975E+02  0.36820923443E+02  0.00000000000E+00 0.  1.
         11    1    4    4    0    0  0.39969672584E+01 -0.30352240906E+00 -0.61732694172E+01  0.73605114412E+01  0.51100000000E-03 0. -1.
        -11    1    4    4    0    0  0.18178870969E+02  0.37251650980E+01 -0.55450932029E+01  0.19367402087E+02  0.51100000000E-03 0.  1.
         12    1    4    4    0    0  0.11173996931E+02  0.51740991554E+01  0.24744571595E+02  0.27639163028E+02  0.00000000000E+00 0. -1.
</event>
<event>
 8    1  0.1244838E-006  0.9118800E+02  0.7816164E-02  0.1184000E+00
        -11   -1    0    0    0    0  0.00000000000E+00  0.00000000000E+00  0.45593999997E+02  0.45594000000E+02  0.51100000000E-03 0. -1.
         11   -1    0    0    0    0 -0.00000000000E+00 -0.00000000000E+00 -0.45593999997E+02  0.45594000000E+02  0.51100000000E-03 0.  1.
         23    2    1    2    0    0  0.00000000000E+00  0.26645352591E-14  0.00000000000E+00  0.91188000000E+02  0.91188000000E+02 0.  0.
    9900012    2    3    3    0    0 -0.33330592073E+02  0.76508443061E+01  0.13649739212E+02  0.54367093343E+02  0.40000020894E+02 0.  0.
        -12    1    3    3    0    0  0.33330592073E+02 -0.76508443061E+01 -0.13649739212E+02  0.36820906657E+02  0.00000000000E+00 0.  1.
         11    1    4    4    0    0 -0.17029311310E+02  0.11214499814E+01  0.22662972152E+02  0.28370149820E+02  0.51100000000E-03 0. -1.
        -11    1    4    4    0    0 -0.13114521824E+02  0.93046034324E+01 -0.41749217501E-01  0.16080051958E+02  0.51100000000E-03 0.  1.
         12    1    4    4    0    0 -0.31867589385E+01 -0.27752091076E+01 -0.89714837232E+01  0.99168915654E+01  0.00000000000E+00 0. -1.
</event>
<event>
 8    1  0.1244838E-006  0.9118800E+02  0.7816164E-02  0.1184000E+00
        -11   -1    0    0    0    0  0.00000000000E+00  0.00000000000E+00  0.45593999997E+02  0.45594000000E+02  0.51100000000E-03 0.  1.
         11   -1    0    0    0    0 -0.00000000000E+00 -0.00000000000E+00 -0.45593999997E+02  0.45594000000E+02  0.51100000000E-03 0. -1.
         23    2    1    2    0    0  0.71054273576E-14  0.44408920985E-15  0.47184478547E-15  0.91188000000E+02  0.91188000000E+02 0.  0.
    9900012    2    3    3    0    0 -0.36698328851E+02 -0.29998707915E+01 -0.95050801659E-01  0.54367141783E+02  0.40000131322E+02 0.  0.
        -12    1    3    3    0    0  0.36698328851E+02  0.29998707915E+01  0.95050801659E-01  0.36820858217E+02  0.00000000000E+00 0.  1.
         11    1    4    4    0    0 -0.19621330484E+02  0.39997316552E+01  0.39927780650E+00  0.20028826384E+02  0.51100000000E-03 0. -1.
        -11    1    4    4    0    0 -0.22861421902E+02 -0.65811484843E+01  0.70592715223E+01  0.24815105106E+02  0.51100000000E-03 0.  1.
         12    1    4    4    0    0  0.57844235349E+01 -0.41845396239E+00 -0.75536001304E+01  0.95232102928E+01  0.00000000000E+00 0. -1.
</event>
<event>
 8    1  0.1244838E-006  0.9118800E+02  0.7816164E-02  0.1184000E+00
        -11   -1    0    0    0    0  0.00000000000E+00  0.00000000000E+00  0.45593999997E+02  0.45594000000E+02  0.51100000000E-03 0. -1.
         11   -1    0    0    0    0 -0.00000000000E+00 -0.00000000000E+00 -0.45593999997E+02  0.45594000000E+02  0.51100000000E-03 0.  1.
         23    2    1    2    0    0  0.00000000000E+00  0.00000000000E+00  0.00000000000E+00  0.91188000000E+02  0.91188000000E+02 0.  0.
    9900012    2    3    3    0    0  0.35863904011E+02  0.64616796272E+01 -0.52731621128E+01  0.54367093531E+02  0.40000021323E+02 0.  0.
         12    1    3    3    0    0 -0.35863904011E+02 -0.64616796272E+01  0.52731621128E+01  0.36820906469E+02  0.00000000000E+00 0. -1.
         11    1    4    4    0    0  0.20165395841E+00  0.55145007623E+01 -0.54688958943E+01  0.77691187107E+01  0.51100000000E-03 0. -1.
        -11    1    4    4    0    0  0.26720953150E+02  0.14004885667E+02  0.36832179257E+01  0.30392634870E+02  0.51100000000E-03 0.  1.
        -12    1    4    4    0    0  0.89412969027E+01 -0.13057706803E+02 -0.34874841442E+01  0.16205339950E+02  0.00000000000E+00 0.  1.
</event>
<event>
 8    1  0.1244838E-006  0.9118800E+02  0.7816164E-02  0.1184000E+00
        -11   -1    0    0    0    0  0.00000000000E+00  0.00000000000E+00  0.45593999997E+02  0.45594000000E+02  0.51100000000E-03 0.  1.
         11   -1    0    0    0    0 -0.00000000000E+00 -0.00000000000E+00 -0.45593999997E+02  0.45594000000E+02  0.51100000000E-03 0. -1.
         23    2    1    2    0    0  0.35527136788E-14 -0.35527136788E-14 -0.88817841970E-15  0.91188000000E+02  0.91188000000E+02 0.  0.
    9900012    2    3    3    0    0  0.28292530573E+02 -0.22944599324E+02  0.53718449422E+01  0.54367100467E+02  0.40000037134E+02 0.  0.
         12    1    3    3    0    0 -0.28292530573E+02  0.22944599324E+02 -0.53718449422E+01  0.36820899533E+02  0.00000000000E+00 0. -1.
         11    1    4    4    0    0  0.58646408297E+01 -0.58395627357E+01  0.12949663745E+02  0.15368418798E+02  0.51100000000E-03 0. -1.
        -11    1    4    4    0    0  0.96919370335E+01 -0.20120932079E+02 -0.11783411867E+02  0.25251422666E+02  0.51100000000E-03 0.  1.
         12    1    4    4    0    0  0.12735952710E+02  0.30158954907E+01  0.42055930646E+01  0.13747259002E+02  0.00000000000E+00 0. -1.
</event>
<event>
 8    1  0.1244838E-006  0.9118800E+02  0.7816164E-02  0.1184000E+00
        -11   -1    0    0    0    0  0.00000000000E+00  0.00000000000E+00  0.45593999997E+02  0.45594000000E+02  0.51100000000E-03 0.  1.
         11   -1    0    0    0    0 -0.00000000000E+00 -0.00000000000E+00 -0.45593999997E+02  0.45594000000E+02  0.51100000000E-03 0. -1.
         23    2    1    2    0    0  0.00000000000E+00  0.17763568394E-14 -0.35527136788E-14  0.91188000000E+02  0.91188000000E+02 0.  0.
    9900012    2    3    3    0    0 -0.26865270789E+02 -0.11271038446E+02 -0.22516640931E+02  0.54367106461E+02  0.40000050799E+02 0.  0.
        -12    1    3    3    0    0  0.26865270789E+02  0.11271038446E+02  0.22516640931E+02  0.36820893539E+02  0.00000000000E+00 0.  1.
         11    1    4    4    0    0  0.13728440868E+01  0.50700700602E+00  0.16926545536E+01  0.22375961856E+01  0.51100000000E-03 0. -1.
        -11    1    4    4    0    0 -0.80454420591E+01  0.54999931471E+00  0.85287677743E+01  0.11737611221E+02  0.51100000000E-03 0.  1.
         12    1    4    4    0    0 -0.20192672817E+02 -0.12328044767E+02 -0.32738063259E+02  0.40391899054E+02  0.00000000000E+00 0. -1.
</event>
<event>
 8    1  0.1244838E-006  0.9118800E+02  0.7816164E-02  0.1184000E+00
        -11   -1    0    0    0    0  0.00000000000E+00  0.00000000000E+00  0.45593999997E+02  0.45594000000E+02  0.51100000000E-03 0. -1.
         11   -1    0    0    0    0 -0.00000000000E+00 -0.00000000000E+00 -0.45593999997E+02  0.45594000000E+02  0.51100000000E-03 0.  1.
         23    2    1    2    0    0  0.00000000000E+00  0.00000000000E+00 -0.35527136788E-14  0.91188000000E+02  0.91188000000E+02 0.  0.
    9900012    2    3    3    0    0  0.24264965373E+02 -0.14266673907E+02  0.23737204392E+02  0.54367063004E+02  0.39999951730E+02 0.  0.
         12    1    3    3    0    0 -0.24264965373E+02  0.14266673907E+02 -0.23737204392E+02  0.36820936996E+02  0.00000000000E+00 0. -1.
         11    1    4    4    0    0  0.25366467368E+01  0.27499468936E+01  0.12340667809E+02  0.12895304061E+02  0.51100000000E-03 0. -1.
        -11    1    4    4    0    0  0.12444205470E+02 -0.16093793497E+02 -0.64431328060E+01  0.21339690708E+02  0.51100000000E-03 0.  1.
        -12    1    4    4    0    0  0.92841131662E+01 -0.92282730344E+00  0.17839669388E+02  0.20132068234E+02  0.00000000000E+00 0.  1.
</event>
<event>
 8    1  0.1244838E-006  0.9118800E+02  0.7816164E-02  0.1184000E+00
        -11   -1    0    0    0    0  0.00000000000E+00  0.00000000000E+00  0.45593999997E+02  0.45594000000E+02  0.51100000000E-03 0. -1.
         11   -1    0    0    0    0 -0.00000000000E+00 -0.00000000000E+00 -0.45593999997E+02  0.45594000000E+02  0.51100000000E-03 0.  1.
         23    2    1    2    0    0  0.88817841970E-15  0.00000000000E+00  0.00000000000E+00  0.91188000000E+02  0.91188000000E+02 0.  0.
    9900012    2    3    3    0    0  0.50405797723E+01  0.22568677527E+02 -0.28653543730E+02  0.54367106229E+02  0.40000050271E+02 0.  0.
         12    1    3    3    0    0 -0.50405797723E+01 -0.22568677527E+02  0.28653543730E+02  0.36820893771E+02  0.00000000000E+00 0. -1.
         11    1    4    4    0    0  0.19063961146E+01  0.65702908540E+01  0.18861400077E+01  0.70965197415E+01  0.51100000000E-03 0.  1.
        -11    1    4    4    0    0 -0.69524984394E+01 -0.71441554098E+01 -0.13625949106E+02  0.16883207052E+02  0.51100000000E-03 0. -1.
         12    1    4    4    0    0  0.10086682097E+02  0.23142542083E+02 -0.16913734633E+02  0.30387379436E+02  0.00000000000E+00 0. -1.
</event>
<event>
 8    1  0.1244838E-006  0.9118800E+02  0.7816164E-02  0.1184000E+00
        -11   -1    0    0    0    0  0.00000000000E+00  0.00000000000E+00  0.45593999997E+02  0.45594000000E+02  0.51100000000E-03 0.  1.
         11   -1    0    0    0    0 -0.00000000000E+00 -0.00000000000E+00 -0.45593999997E+02  0.45594000000E+02  0.51100000000E-03 0. -1.
         23    2    1    2    0    0 -0.35527136788E-14  0.17763568394E-14 -0.35527136788E-14  0.91188000000E+02  0.91188000000E+02 0.  0.
    9900012    2    3    3    0    0 -0.25513898296E+02  0.15042605728E+02  0.21875601669E+02  0.54367069245E+02  0.39999965958E+02 0.  0.
         12    1    3    3    0    0  0.25513898296E+02 -0.15042605728E+02 -0.21875601669E+02  0.36820930755E+02  0.00000000000E+00 0. -1.
         11    1    4    4    0    0  0.39873121492E+01  0.47831769127E+01 -0.21078541651E+01  0.65742291561E+01  0.51100000000E-03 0. -1.
        -11    1    4    4    0    0 -0.21595334384E+02 -0.35721194248E+01  0.23119973841E+02  0.31837897151E+02  0.51100000000E-03 0.  1.
        -12    1    4    4    0    0 -0.79058760610E+01  0.13831548240E+02  0.86348199299E+00  0.15954942938E+02  0.00000000000E+00 0.  1.
</event>
<event>
 8    1  0.1244838E-006  0.9118800E+02  0.7816164E-02  0.1184000E+00
        -11   -1    0    0    0    0  0.00000000000E+00  0.00000000000E+00  0.45593999997E+02  0.45594000000E+02  0.51100000000E-03 0.  1.
         11   -1    0    0    0    0 -0.00000000000E+00 -0.00000000000E+00 -0.45593999997E+02  0.45594000000E+02  0.51100000000E-03 0. -1.
         23    2    1    2    0    0 -0.71054273576E-14  0.00000000000E+00 -0.17763568394E-14  0.91188000000E+02  0.91188000000E+02 0.  0.
    9900012    2    3    3    0    0  0.32316287973E+02  0.14784889158E+02  0.96355799645E+01  0.54367084516E+02  0.40000000772E+02 0.  0.
         12    1    3    3    0    0 -0.32316287973E+02 -0.14784889158E+02 -0.96355799645E+01  0.36820915484E+02  0.00000000000E+00 0. -1.
         11    1    4    4    0    0  0.21524674110E+02 -0.10672070358E+01  0.16008010966E+02  0.26845985580E+02  0.51100000000E-03 0.  1.
        -11    1    4    4    0    0  0.13548141518E+02  0.97857364697E+01 -0.10448489700E+02  0.19709990211E+02  0.51100000000E-03 0. -1.
        -12    1    4    4    0    0 -0.27565276546E+01  0.60663597246E+01  0.40760586978E+01  0.78111087258E+01  0.00000000000E+00 0.  1.
</event>
<event>
 8    1  0.1244838E-006  0.9118800E+02  0.7816164E-02  0.1184000E+00
        -11   -1    0    0    0    0  0.00000000000E+00  0.00000000000E+00  0.45593999997E+02  0.45594000000E+02  0.51100000000E-03 0.  1.
         11   -1    0    0    0    0 -0.00000000000E+00 -0.00000000000E+00 -0.45593999997E+02  0.45594000000E+02  0.51100000000E-03 0. -1.
         23    2    1    2    0    0  0.00000000000E+00  0.35527136788E-14 -0.35527136788E-14  0.91188000000E+02  0.91188000000E+02 0.  0.
    9900012    2    3    3    0    0 -0.13378952236E+02  0.28478266011E+02  0.19125174535E+02  0.54367077974E+02  0.39999985856E+02 0.  0.
         12    1    3    3    0    0  0.13378952236E+02 -0.28478266011E+02 -0.19125174535E+02  0.36820922026E+02  0.00000000000E+00 0. -1.
         11    1    4    4    0    0 -0.33992098481E+01  0.12399861813E+02 -0.54509352920E+01  0.13965095646E+02  0.51100000000E-03 0. -1.
        -11    1    4    4    0    0  0.10448143811E+01  0.18195964661E+02  0.69532445515E+01  0.19507239095E+02  0.51100000000E-03 0.  1.
         12    1    4    4    0    0 -0.11024556769E+02 -0.21175604638E+01  0.17622865275E+02  0.20894743233E+02  0.00000000000E+00 0. -1.
</event>
<event>
 8    1  0.1244838E-006  0.9118800E+02  0.7816164E-02  0.1184000E+00
        -11   -1    0    0    0    0  0.00000000000E+00  0.00000000000E+00  0.45593999997E+02  0.45594000000E+02  0.51100000000E-03 0.  1.
         11   -1    0    0    0    0 -0.00000000000E+00 -0.00000000000E+00 -0.45593999997E+02  0.45594000000E+02  0.51100000000E-03 0. -1.
         23    2    1    2    0    0  0.35527136788E-14  0.44408920985E-15  0.35527136788E-14  0.91188000000E+02  0.91188000000E+02 0.  0.
    9900012    2    3    3    0    0 -0.20475984092E+02 -0.27482064961E+01 -0.30478849986E+02  0.54367097513E+02  0.40000030401E+02 0.  0.
        -12    1    3    3    0    0  0.20475984092E+02  0.27482064961E+01  0.30478849986E+02  0.36820902487E+02  0.00000000000E+00 0.  1.
         11    1    4    4    0    0  0.80610711293E+01 -0.47818790644E+01 -0.75202559421E+01  0.12016716891E+02  0.51100000000E-03 0. -1.
        -11    1    4    4    0    0 -0.17358350341E+02  0.15928691911E+01 -0.70802938951E+00  0.17445654608E+02  0.51100000000E-03 0.  1.
         12    1    4    4    0    0 -0.11178704880E+02  0.44080337716E+00 -0.22250564655E+02  0.24904726015E+02  0.00000000000E+00 0. -1.
</event>
<event>
 8    1  0.1244838E-006  0.9118800E+02  0.7816164E-02  0.1184000E+00
        -11   -1    0    0    0    0  0.00000000000E+00  0.00000000000E+00  0.45593999997E+02  0.45594000000E+02  0.51100000000E-03 0.  1.
         11   -1    0    0    0    0 -0.00000000000E+00 -0.00000000000E+00 -0.45593999997E+02  0.45594000000E+02  0.51100000000E-03 0. -1.
         23    2    1    2    0    0  0.00000000000E+00  0.00000000000E+00 -0.35527136788E-14  0.91188000000E+02  0.91188000000E+02 0.  0.
    9900012    2    3    3    0    0 -0.16476977691E+02 -0.28718732138E+02  0.16109720235E+02  0.54367089426E+02  0.40000011965E+02 0.  0.
         12    1    3    3    0    0  0.16476977691E+02  0.28718732138E+02 -0.16109720235E+02  0.36820910574E+02  0.00000000000E+00 0. -1.
         11    1    4    4    0    0  0.28831591437E+01 -0.67545483364E+00  0.11511251031E+02  0.11886031569E+02  0.51100000000E-03 0. -1.
        -11    1    4    4    0    0  0.16435142955E+01 -0.13649646318E+02 -0.58723153222E+01  0.14949851884E+02  0.51100000000E-03 0.  1.
        -12    1    4    4    0    0 -0.21003651130E+02 -0.14393630986E+02  0.10470784526E+02  0.27531205973E+02  0.00000000000E+00 0.  1.
</event>
<event>
 8    1  0.1244838E-006  0.9118800E+02  0.7816164E-02  0.1184000E+00
        -11   -1    0    0    0    0  0.00000000000E+00  0.00000000000E+00  0.45593999997E+02  0.45594000000E+02  0.51100000000E-03 0.  1.
         11   -1    0    0    0    0 -0.00000000000E+00 -0.00000000000E+00 -0.45593999997E+02  0.45594000000E+02  0.51100000000E-03 0. -1.
         23    2    1    2    0    0 -0.17763568394E-14  0.00000000000E+00 -0.17763568394E-14  0.91188000000E+02  0.91188000000E+02 0.  0.
    9900012    2    3    3    0    0  0.10226218998E+02  0.32883816350E+02  0.13033001623E+02  0.54367081163E+02  0.39999993126E+02 0.  0.
         12    1    3    3    0    0 -0.10226218998E+02 -0.32883816350E+02 -0.13033001623E+02  0.36820918837E+02  0.00000000000E+00 0. -1.
         11    1    4    4    0    0 -0.17110951969E+01 -0.49666262196E+01 -0.11980302306E+01  0.53879958679E+01  0.51100000000E-03 0. -1.
        -11    1    4    4    0    0 -0.50865591480E+01  0.22252876096E+02  0.11983284355E+02  0.25781052786E+02  0.51100000000E-03 0.  1.
         12    1    4    4    0    0  0.17023873343E+02  0.15597566473E+02  0.22477474980E+01  0.23198032509E+02  0.00000000000E+00 0. -1.
</event>
<event>
 8    1  0.1244838E-006  0.9118800E+02  0.7816164E-02  0.1184000E+00
        -11   -1    0    0    0    0  0.00000000000E+00  0.00000000000E+00  0.45593999997E+02  0.45594000000E+02  0.51100000000E-03 0.  1.
         11   -1    0    0    0    0 -0.00000000000E+00 -0.00000000000E+00 -0.45593999997E+02  0.45594000000E+02  0.51100000000E-03 0. -1.
         23    2    1    2    0    0  0.00000000000E+00 -0.88817841970E-15  0.00000000000E+00  0.91188000000E+02  0.91188000000E+02 0.  0.
    9900012    2    3    3    0    0 -0.87833564940E+01  0.64191676711E+01  0.35177074034E+02  0.54367087430E+02  0.40000007415E+02 0.  0.
         12    1    3    3    0    0  0.87833564940E+01 -0.64191676711E+01 -0.35177074034E+02  0.36820912570E+02  0.00000000000E+00 0. -1.
         11    1    4    4    0    0  0.47728006692E+01 -0.13389435467E+00  0.10786126009E+01  0.48949932922E+01  0.51100000000E-03 0. -1.
        -11    1    4    4    0    0  0.10357785101E+02 -0.15429277870E+01  0.81684405594E+01  0.13281105368E+02  0.51100000000E-03 0.  1.
         12    1    4    4    0    0 -0.23913942264E+02  0.80959898128E+01  0.25930020873E+02  0.36190988770E+02  0.00000000000E+00 0. -1.
</event>
<event>
 8    1  0.1244838E-006  0.9118800E+02  0.7816164E-02  0.1184000E+00
        -11   -1    0    0    0    0  0.00000000000E+00  0.00000000000E+00  0.45593999997E+02  0.45594000000E+02  0.51100000000E-03 0.  1.
         11   -1    0    0    0    0 -0.00000000000E+00 -0.00000000000E+00 -0.45593999997E+02  0.45594000000E+02  0.51100000000E-03 0. -1.
         23    2    1    2    0    0  0.17763568394E-14  0.17763568394E-14  0.00000000000E+00  0.91188000000E+02  0.91188000000E+02 0.  0.
    9900012    2    3    3    0    0 -0.15304316996E+02 -0.68709541660E+01  0.32777225416E+02  0.54367100557E+02  0.40000037339E+02 0.  0.
         12    1    3    3    0    0  0.15304316996E+02  0.68709541660E+01 -0.32777225416E+02  0.36820899443E+02  0.00000000000E+00 0. -1.
         11    1    4    4    0    0 -0.31456387647E+01  0.82270500411E+01  0.10928246143E+02  0.14035881150E+02  0.51100000000E-03 0. -1.
        -11    1    4    4    0    0  0.29507581388E+01  0.65309270824E+01  0.71761799401E+01  0.10141870683E+02  0.51100000000E-03 0.  1.
         12    1    4    4    0    0 -0.15109436370E+02 -0.21628931289E+02  0.14672799332E+02  0.30189348724E+02  0.00000000000E+00 0. -1.
</event>
<event>
 8    1  0.1244838E-006  0.9118800E+02  0.7816164E-02  0.1184000E+00
        -11   -1    0    0    0    0  0.00000000000E+00  0.00000000000E+00  0.45593999997E+02  0.45594000000E+02  0.51100000000E-03 0. -1.
         11   -1    0    0    0    0 -0.00000000000E+00 -0.00000000000E+00 -0.45593999997E+02  0.45594000000E+02  0.51100000000E-03 0.  1.
         23    2    1    2    0    0 -0.17763568394E-14  0.00000000000E+00  0.00000000000E+00  0.91188000000E+02  0.91188000000E+02 0.  0.
    9900012    2    3    3    0    0  0.12011558323E+02 -0.30381149918E+02 -0.16984666267E+02  0.54367208429E+02  0.40000283255E+02 0.  0.
         12    1    3    3    0    0 -0.12011558323E+02  0.30381149918E+02  0.16984666267E+02  0.36820791571E+02  0.00000000000E+00 0. -1.
         11    1    4    4    0    0  0.85921700754E+01 -0.64078206003E+00  0.66098650570E+01  0.10859387855E+02  0.51100000000E-03 0. -1.
        -11    1    4    4    0    0  0.71665467682E+01 -0.29792649417E+02 -0.14968772464E+02  0.34103159695E+02  0.51100000000E-03 0.  1.
        -12    1    4    4    0    0 -0.37471585208E+01  0.52281558607E-01 -0.86257588598E+01  0.94046608790E+01  0.00000000000E+00 0.  1.
</event>
<event>
 8    1  0.1244838E-006  0.9118800E+02  0.7816164E-02  0.1184000E+00
        -11   -1    0    0    0    0  0.00000000000E+00  0.00000000000E+00  0.45593999997E+02  0.45594000000E+02  0.51100000000E-03 0.  1.
         11   -1    0    0    0    0 -0.00000000000E+00 -0.00000000000E+00 -0.45593999997E+02  0.45594000000E+02  0.51100000000E-03 0. -1.
         23    2    1    2    0    0 -0.35527136788E-14  0.00000000000E+00  0.00000000000E+00  0.91188000000E+02  0.91188000000E+02 0.  0.
    9900012    2    3    3    0    0 -0.31617749621E+02 -0.53679266661E+01 -0.18090982627E+02  0.54367076869E+02  0.39999983339E+02 0.  0.
        -12    1    3    3    0    0  0.31617749621E+02  0.53679266661E+01  0.18090982627E+02  0.36820923131E+02  0.00000000000E+00 0.  1.
         11    1    4    4    0    0 -0.11166537667E+02 -0.10955689443E+02  0.34350261676E+01  0.16016182431E+02  0.51100000000E-03 0. -1.
        -11    1    4    4    0    0 -0.18424369168E+02  0.71412508163E+01 -0.34053983013E+01  0.20051223911E+02  0.51100000000E-03 0.  1.
        -12    1    4    4    0    0 -0.20268427857E+01 -0.15534880395E+01 -0.18120610493E+02  0.18299670527E+02  0.00000000000E+00 0.  1.
</event>
<event>
 8    1  0.1244838E-006  0.9118800E+02  0.7816164E-02  0.1184000E+00
        -11   -1    0    0    0    0  0.00000000000E+00  0.00000000000E+00  0.45593999997E+02  0.45594000000E+02  0.51100000000E-03 0. -1.
         11   -1    0    0    0    0 -0.00000000000E+00 -0.00000000000E+00 -0.45593999997E+02  0.45594000000E+02  0.51100000000E-03 0.  1.
         23    2    1    2    0    0  0.17763568394E-14  0.00000000000E+00  0.00000000000E+00  0.91188000000E+02  0.91188000000E+02 0.  0.
    9900012    2    3    3    0    0 -0.13325157269E+02 -0.21099035901E+02 -0.27074918446E+02  0.54367077401E+02  0.39999984550E+02 0.  0.
         12    1    3    3    0    0  0.13325157269E+02  0.21099035901E+02  0.27074918446E+02  0.36820922599E+02  0.00000000000E+00 0. -1.
         11    1    4    4    0    0 -0.56628877760E-02  0.67522601807E+01 -0.53212881037E+01  0.85970435011E+01  0.51100000000E-03 0. -1.
        -11    1    4    4    0    0 -0.76386706689E+00 -0.89903508168E+01 -0.21272666682E+02  0.23107060582E+02  0.51100000000E-03 0.  1.
         12    1    4    4    0    0 -0.12555627314E+02 -0.18860945265E+02 -0.48096366031E+00  0.22662973317E+02  0.00000000000E+00 0. -1.
</event>
<event>
 8    1  0.1244838E-006  0.9118800E+02  0.7816164E-02  0.1184000E+00
        -11   -1    0    0    0    0  0.00000000000E+00  0.00000000000E+00  0.45593999997E+02  0.45594000000E+02  0.51100000000E-03 0.  1.
         11   -1    0    0    0    0 -0.00000000000E+00 -0.00000000000E+00 -0.45593999997E+02  0.45594000000E+02  0.51100000000E-03 0. -1.
         23    2    1    2    0    0  0.17763568394E-14  0.17763568394E-14  0.00000000000E+00  0.91188000000E+02  0.91188000000E+02 0.  0.
    9900012    2    3    3    0    0  0.11383264338E+02  0.13119040990E+02 -0.32466789003E+02  0.54367077528E+02  0.39999984841E+02 0.  0.
        -12    1    3    3    0    0 -0.11383264338E+02 -0.13119040990E+02  0.32466789003E+02  0.36820922472E+02  0.00000000000E+00 0.  1.
         11    1    4    4    0    0  0.93928953768E+01 -0.19994924513E+01 -0.25647155517E+02  0.27386146863E+02  0.51100000000E-03 0. -1.
        -11    1    4    4    0    0 -0.94698693583E+01  0.55046532998E+01 -0.45068351533E+01  0.11844458492E+02  0.51100000000E-03 0.  1.
         12    1    4    4    0    0  0.11460238320E+02  0.96138801413E+01 -0.23127983333E+01  0.15136472173E+02  0.00000000000E+00 0. -1.
</event>
<event>
 8    1  0.1244838E-006  0.9118800E+02  0.7816164E-02  0.1184000E+00
        -11   -1    0    0    0    0  0.00000000000E+00  0.00000000000E+00  0.45593999997E+02  0.45594000000E+02  0.51100000000E-03 0.  1.
         11   -1    0    0    0    0 -0.00000000000E+00 -0.00000000000E+00 -0.45593999997E+02  0.45594000000E+02  0.51100000000E-03 0. -1.
         23    2    1    2    0    0  0.00000000000E+00  0.00000000000E+00  0.00000000000E+00  0.91188000000E+02  0.91188000000E+02 0.  0.
    9900012    2    3    3    0    0 -0.13993665061E+02 -0.21264529537E+02 -0.26604070920E+02  0.54367089259E+02  0.40000011584E+02 0.  0.
        -12    1    3    3    0    0  0.13993665061E+02  0.21264529537E+02  0.26604070920E+02  0.36820910741E+02  0.00000000000E+00 0.  1.
         11    1    4    4    0    0  0.71630713397E+01  0.65165182701E+01 -0.97799921533E+01  0.13763097332E+02  0.51100000000E-03 0. -1.
        -11    1    4    4    0    0 -0.93736571894E+01 -0.21781623831E+02 -0.10173835367E+02  0.25803323665E+02  0.51100000000E-03 0.  1.
        -12    1    4    4    0    0 -0.11783079211E+02 -0.59994239761E+01 -0.66502433995E+01  0.14800668262E+02  0.00000000000E+00 0.  1.
</event>
<event>
 8    1  0.1244838E-006  0.9118800E+02  0.7816164E-02  0.1184000E+00
        -11   -1    0    0    0    0  0.00000000000E+00  0.00000000000E+00  0.45593999997E+02  0.45594000000E+02  0.51100000000E-03 0.  1.
         11   -1    0    0    0    0 -0.00000000000E+00 -0.00000000000E+00 -0.45593999997E+02  0.45594000000E+02  0.51100000000E-03 0. -1.
         23    2    1    2    0    0  0.17763568394E-14  0.17763568394E-14  0.00000000000E+00  0.91188000000E+02  0.91188000000E+02 0.  0.
    9900012    2    3    3    0    0  0.89744395684E+01  0.13189847004E+02  0.33185379819E+02  0.54367054014E+02  0.39999931236E+02 0.  0.
         12    1    3    3    0    0 -0.89744395684E+01 -0.13189847004E+02 -0.33185379819E+02  0.36820945986E+02  0.00000000000E+00 0. -1.
         11    1    4    4    0    0  0.19931302840E+02 -0.26395245781E+01  0.84254515037E+01  0.21799361371E+02  0.51100000000E-03 0. -1.
        -11    1    4    4    0    0 -0.36446737908E+01  0.11951575116E+02  0.11773746696E+02  0.17168136367E+02  0.51100000000E-03 0.  1.
         12    1    4    4    0    0 -0.73121894808E+01  0.38777964665E+01  0.12986181619E+02  0.15399556275E+02  0.00000000000E+00 0. -1.
</event>
<event>
 8    1  0.1244838E-006  0.9118800E+02  0.7816164E-02  0.1184000E+00
        -11   -1    0    0    0    0  0.00000000000E+00  0.00000000000E+00  0.45593999997E+02  0.45594000000E+02  0.51100000000E-03 0.  1.
         11   -1    0    0    0    0 -0.00000000000E+00 -0.00000000000E+00 -0.45593999997E+02  0.45594000000E+02  0.51100000000E-03 0. -1.
         23    2    1    2    0    0  0.00000000000E+00  0.00000000000E+00  0.00000000000E+00  0.91188000000E+02  0.91188000000E+02 0.  0.
    9900012    2    3    3    0    0 -0.36026311878E+02 -0.63726592505E+01  0.41577251335E+01  0.54366910775E+02  0.39999604692E+02 0.  0.
         12    1    3    3    0    0  0.36026311878E+02  0.63726592505E+01 -0.41577251335E+01  0.36821089225E+02  0.00000000000E+00 0. -1.
         11    1    4    4    0    0 -0.14154506084E+02 -0.35805500289E+01 -0.26742883178E+01  0.14843254336E+02  0.51100000000E-03 0. -1.
        -11    1    4    4    0    0 -0.77668987684E+01 -0.42358214777E+01 -0.12644945197E+02  0.15432483254E+02  0.51100000000E-03 0.  1.
        -12    1    4    4    0    0 -0.14104907025E+02  0.14437122561E+01  0.19476958649E+02  0.24091173186E+02  0.00000000000E+00 0.  1.
</event>
<event>
 8    1  0.1244838E-006  0.9118800E+02  0.7816164E-02  0.1184000E+00
        -11   -1    0    0    0    0  0.00000000000E+00  0.00000000000E+00  0.45593999997E+02  0.45594000000E+02  0.51100000000E-03 0.  1.
         11   -1    0    0    0    0 -0.00000000000E+00 -0.00000000000E+00 -0.45593999997E+02  0.45594000000E+02  0.51100000000E-03 0. -1.
         23    2    1    2    0    0  0.00000000000E+00  0.00000000000E+00  0.00000000000E+00  0.91188000000E+02  0.91188000000E+02 0.  0.
    9900012    2    3    3    0    0 -0.11736142908E+02 -0.29705265041E+02 -0.18320475796E+02  0.54367086719E+02  0.40000005792E+02 0.  0.
        -12    1    3    3    0    0  0.11736142908E+02  0.29705265041E+02  0.18320475796E+02  0.36820913281E+02  0.00000000000E+00 0.  1.
         11    1    4    4    0    0 -0.14963093590E+02 -0.11997020463E+02  0.25029840077E+01  0.19341344291E+02  0.51100000000E-03 0. -1.
        -11    1    4    4    0    0 -0.66525522983E+01 -0.12722555245E+02 -0.18993696374E+02  0.23809249595E+02  0.51100000000E-03 0.  1.
        -12    1    4    4    0    0  0.98795029807E+01 -0.49856893323E+01 -0.18297634295E+01  0.11216492833E+02  0.00000000000E+00 0.  1.
</event>
<event>
 8    1  0.1244838E-006  0.9118800E+02  0.7816164E-02  0.1184000E+00
        -11   -1    0    0    0    0  0.00000000000E+00  0.00000000000E+00  0.45593999997E+02  0.45594000000E+02  0.51100000000E-03 0. -1.
         11   -1    0    0    0    0 -0.00000000000E+00 -0.00000000000E+00 -0.45593999997E+02  0.45594000000E+02  0.51100000000E-03 0.  1.
         23    2    1    2    0    0 -0.17763568394E-14  0.35527136788E-14 -0.35527136788E-14  0.91188000000E+02  0.91188000000E+02 0.  0.
    9900012    2    3    3    0    0  0.13678364520E+02 -0.21002131405E+02 -0.26973933415E+02  0.54367078456E+02  0.39999986956E+02 0.  0.
         12    1    3    3    0    0 -0.13678364520E+02  0.21002131405E+02  0.26973933415E+02  0.36820921544E+02  0.00000000000E+00 0. -1.
         11    1    4    4    0    0 -0.70080697184E+01  0.58349601632E+01  0.44104288826E+00  0.91298587270E+01  0.51100000000E-03 0. -1.
        -11    1    4    4    0    0  0.48910218229E+01 -0.41608507244E+01 -0.16056934971E+00  0.64234380203E+01  0.51100000000E-03 0.  1.
         12    1    4    4    0    0  0.15795412415E+02 -0.22676240843E+02 -0.27254406953E+02  0.38813781709E+02  0.00000000000E+00 0. -1.
</event>
<event>
 8    1  0.1244838E-006  0.9118800E+02  0.7816164E-02  0.1184000E+00
        -11   -1    0    0    0    0  0.00000000000E+00  0.00000000000E+00  0.45593999997E+02  0.45594000000E+02  0.51100000000E-03 0.  1.
         11   -1    0    0    0    0 -0.00000000000E+00 -0.00000000000E+00 -0.45593999997E+02  0.45594000000E+02  0.51100000000E-03 0. -1.
         23    2    1    2    0    0 -0.35527136788E-14 -0.17763568394E-14  0.00000000000E+00  0.91188000000E+02  0.91188000000E+02 0.  0.
    9900012    2    3    3    0    0  0.21262035250E+02  0.12612166167E+02 -0.27288083953E+02  0.54367076543E+02  0.39999982595E+02 0.  0.
        -12    1    3    3    0    0 -0.21262035250E+02 -0.12612166167E+02  0.27288083953E+02  0.36820923457E+02  0.00000000000E+00 0.  1.
         11    1    4    4    0    0 -0.96002906774E+00 -0.33622184602E+01 -0.18336350062E+02  0.18666759297E+02  0.51100000000E-03 0. -1.
        -11    1    4    4    0    0 -0.18947290300E+01 -0.24232267237E+01  0.17449474647E+01  0.35365050215E+01  0.51100000000E-03 0.  1.
        -12    1    4    4    0    0  0.24116793348E+02  0.18397611351E+02 -0.10696681355E+02  0.32163812225E+02  0.00000000000E+00 0.  1.
</event>
<event>
 8    1  0.1244838E-006  0.9118800E+02  0.7816164E-02  0.1184000E+00
        -11   -1    0    0    0    0  0.00000000000E+00  0.00000000000E+00  0.45593999997E+02  0.45594000000E+02  0.51100000000E-03 0. -1.
         11   -1    0    0    0    0 -0.00000000000E+00 -0.00000000000E+00 -0.45593999997E+02  0.45594000000E+02  0.51100000000E-03 0.  1.
         23    2    1    2    0    0 -0.35527136788E-14  0.35527136788E-14 -0.17763568394E-14  0.91188000000E+02  0.91188000000E+02 0.  0.
    9900012    2    3    3    0    0  0.30550366590E+02 -0.15631144201E+02  0.13346196748E+02  0.54367101919E+02  0.40000040446E+02 0.  0.
        -12    1    3    3    0    0 -0.30550366590E+02  0.15631144201E+02 -0.13346196748E+02  0.36820898081E+02  0.00000000000E+00 0.  1.
         11    1    4    4    0    0  0.18363717273E+02 -0.27280130985E+02  0.91147894359E+01  0.34124932899E+02  0.51100000000E-03 0. -1.
        -11    1    4    4    0    0  0.42333032153E+01  0.88629229487E+01 -0.16579841467E+01  0.99609824315E+01  0.51100000000E-03 0.  1.
        -12    1    4    4    0    0  0.79533461017E+01  0.27860638359E+01  0.58893914590E+01  0.10281186589E+02  0.00000000000E+00 0.  1.
</event>
<event>
 8    1  0.1244838E-006  0.9118800E+02  0.7816164E-02  0.1184000E+00
        -11   -1    0    0    0    0  0.00000000000E+00  0.00000000000E+00  0.45593999997E+02  0.45594000000E+02  0.51100000000E-03 0. -1.
         11   -1    0    0    0    0 -0.00000000000E+00 -0.00000000000E+00 -0.45593999997E+02  0.45594000000E+02  0.51100000000E-03 0.  1.
         23    2    1    2    0    0 -0.35527136788E-14  0.71054273576E-14 -0.17763568394E-14  0.91188000000E+02  0.91188000000E+02 0.  0.
    9900012    2    3    3    0    0 -0.21338592391E+02  0.27787165263E+02 -0.11327772970E+02  0.54367074984E+02  0.39999979041E+02 0.  0.
         12    1    3    3    0    0  0.21338592391E+02 -0.27787165263E+02  0.11327772970E+02  0.36820925016E+02  0.00000000000E+00 0. -1.
         11    1    4    4    0    0 -0.66261775744E+01  0.55136602594E+01  0.11248409176E+02  0.14171569707E+02  0.51100000000E-03 0. -1.
        -11    1    4    4    0    0 -0.45824184039E+01  0.66226598754E+01  0.29581521339E+01  0.85795598116E+01  0.51100000000E-03 0.  1.
        -12    1    4    4    0    0 -0.10129996413E+02  0.15650845128E+02 -0.25534334280E+02  0.31615945465E+02  0.00000000000E+00 0.  1.
</event>
<event>
 8    1  0.1244838E-006  0.9118800E+02  0.7816164E-02  0.1184000E+00
        -11   -1    0    0    0    0  0.00000000000E+00  0.00000000000E+00  0.45593999997E+02  0.45594000000E+02  0.51100000000E-03 0.  1.
         11   -1    0    0    0    0 -0.00000000000E+00 -0.00000000000E+00 -0.45593999997E+02  0.45594000000E+02  0.51100000000E-03 0. -1.
         23    2    1    2    0    0  0.00000000000E+00  0.17763568394E-14  0.00000000000E+00  0.91188000000E+02  0.91188000000E+02 0.  0.
    9900012    2    3    3    0    0  0.28261159505E+02  0.88330633653E+01  0.21887517780E+02  0.54367087741E+02  0.40000008124E+02 0.  0.
        -12    1    3    3    0    0 -0.28261159505E+02 -0.88330633653E+01 -0.21887517780E+02  0.36820912259E+02  0.00000000000E+00 0.  1.
         11    1    4    4    0    0 -0.36237651697E+01 -0.39532720612E+01  0.17679658286E+01  0.56467457378E+01  0.51100000000E-03 0.  1.
        -11    1    4    4    0    0 -0.29788781112E+01  0.86853858669E+01  0.29651913952E+01  0.96489379068E+01  0.51100000000E-03 0. -1.
         12    1    4    4    0    0  0.34863802786E+02  0.41009495595E+01  0.17154360556E+02  0.39071404097E+02  0.00000000000E+00 0. -1.
</event>
<event>
 8    1  0.1244838E-006  0.9118800E+02  0.7816164E-02  0.1184000E+00
        -11   -1    0    0    0    0  0.00000000000E+00  0.00000000000E+00  0.45593999997E+02  0.45594000000E+02  0.51100000000E-03 0. -1.
         11   -1    0    0    0    0 -0.00000000000E+00 -0.00000000000E+00 -0.45593999997E+02  0.45594000000E+02  0.51100000000E-03 0.  1.
         23    2    1    2    0    0 -0.35527136788E-14  0.88817841970E-15  0.00000000000E+00  0.91188000000E+02  0.91188000000E+02 0.  0.
    9900012    2    3    3    0    0  0.30237644645E+02 -0.69447420036E+01 -0.19830157636E+02  0.54367085467E+02  0.40000002940E+02 0.  0.
         12    1    3    3    0    0 -0.30237644645E+02  0.69447420036E+01  0.19830157636E+02  0.36820914533E+02  0.00000000000E+00 0. -1.
         11    1    4    4    0    0 -0.59094697630E+01  0.52901926014E+00 -0.10827241852E+02  0.12346289347E+02  0.51100000000E-03 0. -1.
        -11    1    4    4    0    0  0.17532955237E+02  0.48604137852E+01 -0.73739290230E+01  0.19631682837E+02  0.51100000000E-03 0.  1.
         12    1    4    4    0    0  0.18614159171E+02 -0.12334175049E+02 -0.16289867615E+01  0.22389113284E+02  0.00000000000E+00 0. -1.
</event>
<event>
 8    1  0.1244838E-006  0.9118800E+02  0.7816164E-02  0.1184000E+00
        -11   -1    0    0    0    0  0.00000000000E+00  0.00000000000E+00  0.45593999997E+02  0.45594000000E+02  0.51100000000E-03 0. -1.
         11   -1    0    0    0    0 -0.00000000000E+00 -0.00000000000E+00 -0.45593999997E+02  0.45594000000E+02  0.51100000000E-03 0.  1.
         23    2    1    2    0    0 -0.35527136788E-14 -0.14210854715E-13 -0.38857805862E-15  0.91188000000E+02  0.91188000000E+02 0.  0.
    9900012    2    3    3    0    0  0.18173883799E+02  0.32021163084E+02  0.36519587319E+00  0.54367105040E+02  0.40000047560E+02 0.  0.
         12    1    3    3    0    0 -0.18173883799E+02 -0.32021163084E+02 -0.36519587319E+00  0.36820894960E+02  0.00000000000E+00 0. -1.
         11    1    4    4    0    0  0.48118729557E+01 -0.22575451492E+01 -0.67544356176E+01  0.85949422462E+01  0.51100000000E-03 0. -1.
        -11    1    4    4    0    0  0.12465600353E+02  0.16644357837E+01  0.24589810838E+01  0.12814371888E+02  0.51100000000E-03 0.  1.
         12    1    4    4    0    0  0.89641049005E+00  0.32614272450E+02  0.46606504070E+01  0.32957790906E+02  0.00000000000E+00 0. -1.
</event>
<event>
 8    1  0.1244838E-006  0.9118800E+02  0.7816164E-02  0.1184000E+00
        -11   -1    0    0    0    0  0.00000000000E+00  0.00000000000E+00  0.45593999997E+02  0.45594000000E+02  0.51100000000E-03 0. -1.
         11   -1    0    0    0    0 -0.00000000000E+00 -0.00000000000E+00 -0.45593999997E+02  0.45594000000E+02  0.51100000000E-03 0.  1.
         23    2    1    2    0    0 -0.52735593670E-15  0.00000000000E+00  0.00000000000E+00  0.91188000000E+02  0.91188000000E+02 0.  0.
    9900012    2    3    3    0    0  0.22179233529E+00  0.36327812963E+02 -0.60018422344E+01  0.54367064424E+02  0.39999954967E+02 0.  0.
         12    1    3    3    0    0 -0.22179233529E+00 -0.36327812963E+02  0.60018422344E+01  0.36820935576E+02  0.00000000000E+00 0. -1.
         11    1    4    4    0    0 -0.86844805084E+01  0.13910853123E+02 -0.90940700985E+01  0.18751910503E+02  0.51100000000E-03 0. -1.
        -11    1    4    4    0    0  0.64913427751E+01  0.11228943736E+02 -0.11316906554E+02  0.17213340253E+02  0.51100000000E-03 0.  1.
         12    1    4    4    0    0  0.24149300686E+01  0.11188016104E+02  0.14409134418E+02  0.18401813668E+02  0.00000000000E+00 0. -1.
</event>
<event>
 8    1  0.1244838E-006  0.9118800E+02  0.7816164E-02  0.1184000E+00
        -11   -1    0    0    0    0  0.00000000000E+00  0.00000000000E+00  0.45593999997E+02  0.45594000000E+02  0.51100000000E-03 0. -1.
         11   -1    0    0    0    0 -0.00000000000E+00 -0.00000000000E+00 -0.45593999997E+02  0.45594000000E+02  0.51100000000E-03 0.  1.
         23    2    1    2    0    0  0.00000000000E+00  0.00000000000E+00  0.35527136788E-14  0.91188000000E+02  0.91188000000E+02 0.  0.
    9900012    2    3    3    0    0 -0.13101815509E+02 -0.20430331017E+02  0.27689773014E+02  0.54367088486E+02  0.40000009823E+02 0.  0.
        -12    1    3    3    0    0  0.13101815509E+02  0.20430331017E+02 -0.27689773014E+02  0.36820911514E+02  0.00000000000E+00 0.  1.
         11    1    4    4    0    0  0.79200764812E+01  0.17767482262E+01  0.84245705073E+01  0.11698625313E+02  0.51100000000E-03 0. -1.
        -11    1    4    4    0    0 -0.68997487482E+01 -0.21747068229E+02  0.67494044688E+01  0.23792771387E+02  0.51100000000E-03 0.  1.
         12    1    4    4    0    0 -0.14122143242E+02 -0.46001101503E+00  0.12515798038E+02  0.18875691786E+02  0.00000000000E+00 0. -1.
</event>
<event>
 8    1  0.1244838E-006  0.9118800E+02  0.7816164E-02  0.1184000E+00
        -11   -1    0    0    0    0  0.00000000000E+00  0.00000000000E+00  0.45593999997E+02  0.45594000000E+02  0.51100000000E-03 0. -1.
         11   -1    0    0    0    0 -0.00000000000E+00 -0.00000000000E+00 -0.45593999997E+02  0.45594000000E+02  0.51100000000E-03 0.  1.
         23    2    1    2    0    0  0.00000000000E+00 -0.71054273576E-14 -0.35527136788E-14  0.91188000000E+02  0.91188000000E+02 0.  0.
    9900012    2    3    3    0    0 -0.22097374827E+02 -0.28155835458E+02 -0.86449552636E+01  0.54367078012E+02  0.39999985944E+02 0.  0.
         12    1    3    3    0    0  0.22097374827E+02  0.28155835458E+02  0.86449552636E+01  0.36820921988E+02  0.00000000000E+00 0. -1.
         11    1    4    4    0    0 -0.30503987954E+01  0.76663227878E+00  0.26767606772E+01  0.41300975589E+01  0.51100000000E-03 0. -1.
        -11    1    4    4    0    0 -0.45016300041E+01 -0.15858715388E+02  0.11564470284E+02  0.20137042972E+02  0.51100000000E-03 0.  1.
         12    1    4    4    0    0 -0.14545346027E+02 -0.13063752348E+02 -0.22886186224E+02  0.30099937481E+02  0.00000000000E+00 0. -1.
</event>
<event>
 8    1  0.1244838E-006  0.9118800E+02  0.7816164E-02  0.1184000E+00
        -11   -1    0    0    0    0  0.00000000000E+00  0.00000000000E+00  0.45593999997E+02  0.45594000000E+02  0.51100000000E-03 0.  1.
         11   -1    0    0    0    0 -0.00000000000E+00 -0.00000000000E+00 -0.45593999997E+02  0.45594000000E+02  0.51100000000E-03 0. -1.
         23    2    1    2    0    0  0.00000000000E+00  0.00000000000E+00  0.00000000000E+00  0.91188000000E+02  0.91188000000E+02 0.  0.
    9900012    2    3    3    0    0 -0.10700814965E+02 -0.28448193718E+02 -0.20783806498E+02  0.54367166505E+02  0.40000187681E+02 0.  0.
        -12    1    3    3    0    0  0.10700814965E+02  0.28448193718E+02  0.20783806498E+02  0.36820833495E+02  0.00000000000E+00 0.  1.
         11    1    4    4    0    0  0.49966871972E+01  0.33608941009E+01 -0.31692047598E+01  0.68048770140E+01  0.51100000000E-03 0. -1.
        -11    1    4    4    0    0 -0.61034454174E+01 -0.29895949634E+02 -0.39653648287E+01  0.30769204880E+02  0.51100000000E-03 0.  1.
         12    1    4    4    0    0 -0.95940567452E+01 -0.19131381850E+01 -0.13649236909E+02  0.16793084611E+02  0.00000000000E+00 0. -1.
</event>
<event>
 8    1  0.1244838E-006  0.9118800E+02  0.7816164E-02  0.1184000E+00
        -11   -1    0    0    0    0  0.00000000000E+00  0.00000000000E+00  0.45593999997E+02  0.45594000000E+02  0.51100000000E-03 0. -1.
         11   -1    0    0    0    0 -0.00000000000E+00 -0.00000000000E+00 -0.45593999997E+02  0.45594000000E+02  0.51100000000E-03 0.  1.
         23    2    1    2    0    0 -0.44408920985E-15  0.35527136788E-14  0.35527136788E-14  0.91188000000E+02  0.91188000000E+02 0.  0.
    9900012    2    3    3    0    0 -0.21681774705E+01 -0.23414626885E+02  0.28334323584E+02  0.54367086939E+02  0.40000006294E+02 0.  0.
        -12    1    3    3    0    0  0.21681774705E+01  0.23414626885E+02 -0.28334323584E+02  0.36820913061E+02  0.00000000000E+00 0.  1.
         11    1    4    4    0    0 -0.48020411629E+01  0.13963870932E+01  0.12530035986E+02  0.13491156300E+02  0.51100000000E-03 0. -1.
        -11    1    4    4    0    0 -0.60261067214E+01  0.41452068391E+01  0.16290085475E+01  0.74933551274E+01  0.51100000000E-03 0.  1.
        -12    1    4    4    0    0  0.86599704138E+01 -0.28956220817E+02  0.14175279051E+02  0.33382575511E+02  0.00000000000E+00 0.  1.
</event>
<event>
 8    1  0.1244838E-006  0.9118800E+02  0.7816164E-02  0.1184000E+00
        -11   -1    0    0    0    0  0.00000000000E+00  0.00000000000E+00  0.45593999997E+02  0.45594000000E+02  0.51100000000E-03 0. -1.
         11   -1    0    0    0    0 -0.00000000000E+00 -0.00000000000E+00 -0.45593999997E+02  0.45594000000E+02  0.51100000000E-03 0.  1.
         23    2    1    2    0    0  0.17763568394E-14  0.00000000000E+00  0.00000000000E+00  0.91188000000E+02  0.91188000000E+02 0.  0.
    9900012    2    3    3    0    0  0.10585374071E+02  0.14633779868E+02 -0.32087073664E+02  0.54367109819E+02  0.40000058454E+02 0.  0.
         12    1    3    3    0    0 -0.10585374071E+02 -0.14633779868E+02  0.32087073664E+02  0.36820890181E+02  0.00000000000E+00 0. -1.
         11    1    4    4    0    0  0.10132002320E+02 -0.52069024804E+01 -0.31998994670E+01  0.11832525567E+02  0.51100000000E-03 0. -1.
        -11    1    4    4    0    0 -0.18218300258E+00  0.21070104279E+02 -0.95262740208E+01  0.23124281220E+02  0.51100000000E-03 0.  1.
        -12    1    4    4    0    0  0.63555475360E+00 -0.12294219309E+01 -0.19360900176E+02  0.19410303031E+02  0.00000000000E+00 0.  1.
</event>
<event>
 8    1  0.1244838E-006  0.9118800E+02  0.7816164E-02  0.1184000E+00
        -11   -1    0    0    0    0  0.00000000000E+00  0.00000000000E+00  0.45593999997E+02  0.45594000000E+02  0.51100000000E-03 0. -1.
         11   -1    0    0    0    0 -0.00000000000E+00 -0.00000000000E+00 -0.45593999997E+02  0.45594000000E+02  0.51100000000E-03 0.  1.
         23    2    1    2    0    0 -0.35527136788E-14 -0.17763568394E-14  0.00000000000E+00  0.91188000000E+02  0.91188000000E+02 0.  0.
    9900012    2    3    3    0    0 -0.28207272131E+02  0.14780836590E+02 -0.18483963554E+02  0.54367078772E+02  0.39999987677E+02 0.  0.
         12    1    3    3    0    0  0.28207272131E+02 -0.14780836590E+02  0.18483963554E+02  0.36820921228E+02  0.00000000000E+00 0. -1.
         11    1    4    4    0    0 -0.35232635938E+01 -0.20782831207E+01 -0.16099149438E+02  0.16610697155E+02  0.51100000000E-03 0. -1.
        -11    1    4    4    0    0 -0.24172149256E+02  0.77468020346E+01 -0.85021038822E+01  0.26769226962E+02  0.51100000000E-03 0.  1.
         12    1    4    4    0    0 -0.51185928081E+00  0.91123176761E+01  0.61172897659E+01  0.10987154656E+02  0.00000000000E+00 0. -1.
</event>
<event>
 8    1  0.1244838E-006  0.9118800E+02  0.7816164E-02  0.1184000E+00
        -11   -1    0    0    0    0  0.00000000000E+00  0.00000000000E+00  0.45593999997E+02  0.45594000000E+02  0.51100000000E-03 0.  1.
         11   -1    0    0    0    0 -0.00000000000E+00 -0.00000000000E+00 -0.45593999997E+02  0.45594000000E+02  0.51100000000E-03 0. -1.
         23    2    1    2    0    0 -0.44408920985E-15  0.00000000000E+00 -0.35527136788E-14  0.91188000000E+02  0.91188000000E+02 0.  0.
    9900012    2    3    3    0    0 -0.47349756489E+00 -0.32339456852E+02  0.17598666952E+02  0.54367112614E+02  0.40000064826E+02 0.  0.
        -12    1    3    3    0    0  0.47349756489E+00  0.32339456852E+02 -0.17598666952E+02  0.36820887386E+02  0.00000000000E+00 0.  1.
         11    1    4    4    0    0  0.72206897404E+01 -0.22470410353E+02  0.11843580317E+02  0.26406970609E+02  0.51100000000E-03 0. -1.
        -11    1    4    4    0    0 -0.67160534457E+01 -0.16122271190E+02  0.10200422020E+02  0.20225766039E+02  0.51100000000E-03 0.  1.
        -12    1    4    4    0    0 -0.97813385964E+00  0.62532246914E+01 -0.44453353856E+01  0.77343759657E+01  0.00000000000E+00 0.  1.
</event>
<event>
 8    1  0.1244838E-006  0.9118800E+02  0.7816164E-02  0.1184000E+00
        -11   -1    0    0    0    0  0.00000000000E+00  0.00000000000E+00  0.45593999997E+02  0.45594000000E+02  0.51100000000E-03 0.  1.
         11   -1    0    0    0    0 -0.00000000000E+00 -0.00000000000E+00 -0.45593999997E+02  0.45594000000E+02  0.51100000000E-03 0. -1.
         23    2    1    2    0    0 -0.35527136788E-14  0.35527136788E-14 -0.88817841970E-15  0.91188000000E+02  0.91188000000E+02 0.  0.
    9900012    2    3    3    0    0 -0.20147596811E+02  0.30281109318E+02  0.57366187482E+01  0.54367081578E+02  0.39999994073E+02 0.  0.
        -12    1    3    3    0    0  0.20147596811E+02 -0.30281109318E+02 -0.57366187482E+01  0.36820918422E+02  0.00000000000E+00 0.  1.
         11    1    4    4    0    0 -0.80534488542E+01 -0.18365012734E+01 -0.28800685069E+01  0.87478894735E+01  0.51100000000E-03 0. -1.
        -11    1    4    4    0    0  0.15517862915E+01 -0.33370577251E+01  0.66230423328E+01  0.75768519161E+01  0.51100000000E-03 0.  1.
         12    1    4    4    0    0 -0.13645934248E+02  0.35454668316E+02  0.19936449222E+01  0.38042340188E+02  0.00000000000E+00 0. -1.
</event>
<event>
 8    1  0.1244838E-006  0.9118800E+02  0.7816164E-02  0.1184000E+00
        -11   -1    0    0    0    0  0.00000000000E+00  0.00000000000E+00  0.45593999997E+02  0.45594000000E+02  0.51100000000E-03 0.  1.
         11   -1    0    0    0    0 -0.00000000000E+00 -0.00000000000E+00 -0.45593999997E+02  0.45594000000E+02  0.51100000000E-03 0. -1.
         23    2    1    2    0    0  0.17763568394E-14  0.00000000000E+00  0.17763568394E-14  0.91188000000E+02  0.91188000000E+02 0.  0.
    9900012    2    3    3    0    0  0.12300656280E+02  0.33422609289E+02  0.93488433363E+01  0.54367111522E+02  0.40000062336E+02 0.  0.
         12    1    3    3    0    0 -0.12300656280E+02 -0.33422609289E+02 -0.93488433363E+01  0.36820888478E+02  0.00000000000E+00 0. -1.
         11    1    4    4    0    0 -0.38322271179E+00 -0.28318910737E+01  0.44723339714E+01  0.53073758217E+01  0.51100000000E-03 0. -1.
        -11    1    4    4    0    0  0.90138084716E+01 -0.26782879204E+01 -0.12195431204E+01  0.94820490945E+01  0.51100000000E-03 0.  1.
        -12    1    4    4    0    0  0.36700705198E+01  0.38932788283E+02  0.60960524852E+01  0.39577686605E+02  0.00000000000E+00 0.  1.
</event>
<event>
 8    1  0.1244838E-006  0.9118800E+02  0.7816164E-02  0.1184000E+00
        -11   -1    0    0    0    0  0.00000000000E+00  0.00000000000E+00  0.45593999997E+02  0.45594000000E+02  0.51100000000E-03 0.  1.
         11   -1    0    0    0    0 -0.00000000000E+00 -0.00000000000E+00 -0.45593999997E+02  0.45594000000E+02  0.51100000000E-03 0. -1.
         23    2    1    2    0    0  0.35527136788E-14  0.00000000000E+00 -0.71054273576E-14  0.91188000000E+02  0.91188000000E+02 0.  0.
    9900012    2    3    3    0    0 -0.23906379780E+02 -0.20935781395E+02  0.18599988831E+02  0.54367061374E+02  0.39999948015E+02 0.  0.
         12    1    3    3    0    0  0.23906379780E+02  0.20935781395E+02 -0.18599988831E+02  0.36820938626E+02  0.00000000000E+00 0. -1.
         11    1    4    4    0    0 -0.82484016293E+01  0.47488323302E+01 -0.59982800993E+01  0.11250195658E+02  0.51100000000E-03 0. -1.
        -11    1    4    4    0    0 -0.94851160364E+01 -0.10616901422E+01  0.37004187284E+01  0.10236586893E+02  0.51100000000E-03 0.  1.
        -12    1    4    4    0    0 -0.61728621139E+01 -0.24622923583E+02  0.20897850202E+02  0.32880278823E+02  0.00000000000E+00 0.  1.
</event>
<event>
 8    1  0.1244838E-006  0.9118800E+02  0.7816164E-02  0.1184000E+00
        -11   -1    0    0    0    0  0.00000000000E+00  0.00000000000E+00  0.45593999997E+02  0.45594000000E+02  0.51100000000E-03 0. -1.
         11   -1    0    0    0    0 -0.00000000000E+00 -0.00000000000E+00 -0.45593999997E+02  0.45594000000E+02  0.51100000000E-03 0.  1.
         23    2    1    2    0    0  0.17763568394E-14  0.35527136788E-14  0.00000000000E+00  0.91188000000E+02  0.91188000000E+02 0.  0.
    9900012    2    3    3    0    0  0.90172737177E+01  0.86107183611E+01 -0.34645687695E+02  0.54367090562E+02  0.40000014555E+02 0.  0.
         12    1    3    3    0    0 -0.90172737177E+01 -0.86107183611E+01  0.34645687695E+02  0.36820909438E+02  0.00000000000E+00 0. -1.
         11    1    4    4    0    0  0.21133990941E+01 -0.12306746476E+02 -0.56663586017E+01  0.13712406230E+02  0.51100000000E-03 0. -1.
        -11    1    4    4    0    0  0.10411297025E+02  0.20767441497E+02 -0.28982735558E+02  0.37144053262E+02  0.51100000000E-03 0.  1.
        -12    1    4    4    0    0 -0.35074224013E+01  0.15002333996E+00  0.34064652436E-02  0.35106310697E+01  0.00000000000E+00 0.  1.
</event>
<event>
 8    1  0.1244838E-006  0.9118800E+02  0.7816164E-02  0.1184000E+00
        -11   -1    0    0    0    0  0.00000000000E+00  0.00000000000E+00  0.45593999997E+02  0.45594000000E+02  0.51100000000E-03 0.  1.
         11   -1    0    0    0    0 -0.00000000000E+00 -0.00000000000E+00 -0.45593999997E+02  0.45594000000E+02  0.51100000000E-03 0. -1.
         23    2    1    2    0    0  0.00000000000E+00 -0.35527136788E-14  0.00000000000E+00  0.91188000000E+02  0.91188000000E+02 0.  0.
    9900012    2    3    3    0    0 -0.22509068239E+02  0.20513853571E+02  0.20695479814E+02  0.54367092542E+02  0.40000019068E+02 0.  0.
         12    1    3    3    0    0  0.22509068239E+02 -0.20513853571E+02 -0.20695479814E+02  0.36820907458E+02  0.00000000000E+00 0. -1.
         11    1    4    4    0    0  0.54296607019E+01  0.19278555804E+01 -0.57287861743E+01  0.81250743854E+01  0.51100000000E-03 0. -1.
        -11    1    4    4    0    0 -0.20390911978E+02  0.21458868504E+02  0.22922420309E+02  0.37439413482E+02  0.51100000000E-03 0.  1.
         12    1    4    4    0    0 -0.75478169630E+01 -0.28728705139E+01  0.35018456791E+01  0.88026046746E+01  0.00000000000E+00 0. -1.
</event>
<event>
 8    1  0.1244838E-006  0.9118800E+02  0.7816164E-02  0.1184000E+00
        -11   -1    0    0    0    0  0.00000000000E+00  0.00000000000E+00  0.45593999997E+02  0.45594000000E+02  0.51100000000E-03 0. -1.
         11   -1    0    0    0    0 -0.00000000000E+00 -0.00000000000E+00 -0.45593999997E+02  0.45594000000E+02  0.51100000000E-03 0.  1.
         23    2    1    2    0    0  0.00000000000E+00  0.88817841970E-15  0.00000000000E+00  0.91188000000E+02  0.91188000000E+02 0.  0.
    9900012    2    3    3    0    0  0.12994965776E+02 -0.38475901823E+01  0.34236044032E+02  0.54367084793E+02  0.40000001403E+02 0.  0.
        -12    1    3    3    0    0 -0.12994965776E+02  0.38475901823E+01 -0.34236044032E+02  0.36820915207E+02  0.00000000000E+00 0.  1.
         11    1    4    4    0    0  0.14625949320E+00 -0.22816671581E+01 -0.22851913976E+01  0.32325681500E+01  0.51100000000E-03 0. -1.
        -11    1    4    4    0    0  0.22237316569E+02  0.40523293484E+01  0.15410603774E+02  0.27357016107E+02  0.51100000000E-03 0.  1.
         12    1    4    4    0    0 -0.93886102865E+01 -0.56182523726E+01  0.21110631655E+02  0.23777500536E+02  0.00000000000E+00 0. -1.
</event>
<event>
 8    1  0.1244838E-006  0.9118800E+02  0.7816164E-02  0.1184000E+00
        -11   -1    0    0    0    0  0.00000000000E+00  0.00000000000E+00  0.45593999997E+02  0.45594000000E+02  0.51100000000E-03 0.  1.
         11   -1    0    0    0    0 -0.00000000000E+00 -0.00000000000E+00 -0.45593999997E+02  0.45594000000E+02  0.51100000000E-03 0. -1.
         23    2    1    2    0    0  0.00000000000E+00  0.17763568394E-14  0.00000000000E+00  0.91188000000E+02  0.91188000000E+02 0.  0.
    9900012    2    3    3    0    0  0.21373081014E+02 -0.15228210505E+02 -0.25827781472E+02  0.54367064610E+02  0.39999955391E+02 0.  0.
        -12    1    3    3    0    0 -0.21373081014E+02  0.15228210505E+02  0.25827781472E+02  0.36820935390E+02  0.00000000000E+00 0.  1.
         11    1    4    4    0    0  0.16298069802E+02 -0.81486418306E+00  0.18566273481E+01  0.16423706898E+02  0.51100000000E-03 0. -1.
        -11    1    4    4    0    0 -0.46901734876E+01  0.26940900718E+01 -0.24686830585E+01  0.59456071989E+01  0.51100000000E-03 0.  1.
         12    1    4    4    0    0  0.97651847002E+01 -0.17107436393E+02 -0.25215725762E+02  0.31997750513E+02  0.00000000000E+00 0. -1.
</event>
<event>
 8    1  0.1244838E-006  0.9118800E+02  0.7816164E-02  0.1184000E+00
        -11   -1    0    0    0    0  0.00000000000E+00  0.00000000000E+00  0.45593999997E+02  0.45594000000E+02  0.51100000000E-03 0. -1.
         11   -1    0    0    0    0 -0.00000000000E+00 -0.00000000000E+00 -0.45593999997E+02  0.45594000000E+02  0.51100000000E-03 0.  1.
         23    2    1    2    0    0  0.35527136788E-14  0.00000000000E+00  0.00000000000E+00  0.91188000000E+02  0.91188000000E+02 0.  0.
    9900012    2    3    3    0    0  0.76144321990E+01 -0.24497985005E+02 -0.26413019333E+02  0.54367103252E+02  0.40000043484E+02 0.  0.
         12    1    3    3    0    0 -0.76144321990E+01  0.24497985005E+02  0.26413019333E+02  0.36820896748E+02  0.00000000000E+00 0. -1.
         11    1    4    4    0    0  0.21332748446E+02 -0.52155512995E+01 -0.11250422763E+02  0.24675091575E+02  0.51100000000E-03 0. -1.
        -11    1    4    4    0    0  0.10002137194E+00 -0.24201618525E+01 -0.51715302019E+01  0.57106840709E+01  0.51100000000E-03 0.  1.
         12    1    4    4    0    0 -0.13818337619E+02 -0.16862271853E+02 -0.99910663687E+01  0.23981327607E+02  0.00000000000E+00 0. -1.
</event>
<event>
 8    1  0.1244838E-006  0.9118800E+02  0.7816164E-02  0.1184000E+00
        -11   -1    0    0    0    0  0.00000000000E+00  0.00000000000E+00  0.45593999997E+02  0.45594000000E+02  0.51100000000E-03 0.  1.
         11   -1    0    0    0    0 -0.00000000000E+00 -0.00000000000E+00 -0.45593999997E+02  0.45594000000E+02  0.51100000000E-03 0. -1.
         23    2    1    2    0    0  0.00000000000E+00 -0.35527136788E-14  0.00000000000E+00  0.91188000000E+02  0.91188000000E+02 0.  0.
    9900012    2    3    3    0    0  0.16683404258E+02  0.25945433356E+02 -0.20106682666E+02  0.54367079621E+02  0.39999989613E+02 0.  0.
        -12    1    3    3    0    0 -0.16683404258E+02 -0.25945433356E+02  0.20106682666E+02  0.36820920379E+02  0.00000000000E+00 0.  1.
         11    1    4    4    0    0  0.86426403157E+01  0.59374294491E+01 -0.57552129149E+01  0.11961219672E+02  0.51100000000E-03 0. -1.
        -11    1    4    4    0    0  0.39972133699E+01 -0.49236061922E+01  0.69185587612E+01  0.93854178519E+01  0.51100000000E-03 0.  1.
         12    1    4    4    0    0  0.40435505728E+01  0.24931610099E+02 -0.21270028513E+02  0.33020442097E+02  0.00000000000E+00 0. -1.
</event>
<event>
 8    1  0.1244838E-006  0.9118800E+02  0.7816164E-02  0.1184000E+00
        -11   -1    0    0    0    0  0.00000000000E+00  0.00000000000E+00  0.45593999997E+02  0.45594000000E+02  0.51100000000E-03 0.  1.
         11   -1    0    0    0    0 -0.00000000000E+00 -0.00000000000E+00 -0.45593999997E+02  0.45594000000E+02  0.51100000000E-03 0. -1.
         23    2    1    2    0    0  0.88817841970E-15 -0.71054273576E-14  0.17763568394E-14  0.91188000000E+02  0.91188000000E+02 0.  0.
    9900012    2    3    3    0    0  0.10137492729E+01 -0.35780788593E+02  0.86305901734E+01  0.54367087373E+02  0.40000007285E+02 0.  0.
        -12    1    3    3    0    0 -0.10137492729E+01  0.35780788593E+02 -0.86305901734E+01  0.36820912627E+02  0.00000000000E+00 0.  1.
         11    1    4    4    0    0 -0.33781010599E+01 -0.38736835243E+02  0.11918583522E+02  0.40669480017E+02  0.51100000000E-03 0. -1.
        -11    1    4    4    0    0  0.76053626060E+01 -0.20447802516E+00  0.75142727062E+00  0.76451288306E+01  0.51100000000E-03 0.  1.
        -12    1    4    4    0    0 -0.32135122733E+01  0.31605246756E+01 -0.40394206198E+01  0.60524785253E+01  0.00000000000E+00 0.  1.
</event>
<event>
 8    1  0.1244838E-006  0.9118800E+02  0.7816164E-02  0.1184000E+00
        -11   -1    0    0    0    0  0.00000000000E+00  0.00000000000E+00  0.45593999997E+02  0.45594000000E+02  0.51100000000E-03 0.  1.
         11   -1    0    0    0    0 -0.00000000000E+00 -0.00000000000E+00 -0.45593999997E+02  0.45594000000E+02  0.51100000000E-03 0. -1.
         23    2    1    2    0    0  0.00000000000E+00 -0.71054273576E-14 -0.11102230246E-15  0.91188000000E+02  0.91188000000E+02 0.  0.
    9900012    2    3    3    0    0 -0.91738385960E+01 -0.35651328273E+02  0.77617354589E+00  0.54367096052E+02  0.40000027069E+02 0.  0.
        -12    1    3    3    0    0  0.91738385960E+01  0.35651328273E+02 -0.77617354589E+00  0.36820903948E+02  0.00000000000E+00 0.  1.
         11    1    4    4    0    0 -0.24143622119E+01  0.37438640223E+01 -0.18168475526E+01  0.48110911442E+01  0.51100000000E-03 0. -1.
        -11    1    4    4    0    0  0.21814483656E+01  0.21450004279E+01 -0.55066285485E+01  0.62994207701E+01  0.51100000000E-03 0.  1.
         12    1    4    4    0    0 -0.89409247496E+01 -0.41540192723E+02  0.80996496469E+01  0.43256584137E+02  0.00000000000E+00 0. -1.
</event>
<event>
 8    1  0.1244838E-006  0.9118800E+02  0.7816164E-02  0.1184000E+00
        -11   -1    0    0    0    0  0.00000000000E+00  0.00000000000E+00  0.45593999997E+02  0.45594000000E+02  0.51100000000E-03 0. -1.
         11   -1    0    0    0    0 -0.00000000000E+00 -0.00000000000E+00 -0.45593999997E+02  0.45594000000E+02  0.51100000000E-03 0.  1.
         23    2    1    2    0    0 -0.17763568394E-14 -0.44408920985E-15  0.00000000000E+00  0.91188000000E+02  0.91188000000E+02 0.  0.
    9900012    2    3    3    0    0 -0.10121779431E+02 -0.33823261190E+01 -0.35240468084E+02  0.54367066557E+02  0.39999959830E+02 0.  0.
         12    1    3    3    0    0  0.10121779431E+02  0.33823261190E+01  0.35240468084E+02  0.36820933443E+02  0.00000000000E+00 0. -1.
         11    1    4    4    0    0  0.23226474692E+01  0.10133374620E+01 -0.23491850826E+00  0.25449422478E+01  0.51100000000E-03 0. -1.
        -11    1    4    4    0    0  0.46239117595E+01  0.65506635028E+01  0.31488813084E+01  0.86143604546E+01  0.51100000000E-03 0.  1.
        -12    1    4    4    0    0 -0.17068338660E+02 -0.10946327084E+02 -0.38154430884E+02  0.43207763855E+02  0.00000000000E+00 0.  1.
</event>
<event>
 8    1  0.1244838E-006  0.9118800E+02  0.7816164E-02  0.1184000E+00
        -11   -1    0    0    0    0  0.00000000000E+00  0.00000000000E+00  0.45593999997E+02  0.45594000000E+02  0.51100000000E-03 0.  1.
         11   -1    0    0    0    0 -0.00000000000E+00 -0.00000000000E+00 -0.45593999997E+02  0.45594000000E+02  0.51100000000E-03 0. -1.
         23    2    1    2    0    0  0.00000000000E+00  0.35527136788E-14  0.35527136788E-14  0.91188000000E+02  0.91188000000E+02 0.  0.
    9900012    2    3    3    0    0  0.17062538788E+02 -0.25648077934E+02 -0.20169899183E+02  0.54367096092E+02  0.40000027161E+02 0.  0.
        -12    1    3    3    0    0 -0.17062538788E+02  0.25648077934E+02  0.20169899183E+02  0.36820903908E+02  0.00000000000E+00 0.  1.
         11    1    4    4    0    0  0.11378480855E+02 -0.17719305766E+01 -0.25588098607E+01  0.11796485608E+02  0.51100000000E-03 0. -1.
        -11    1    4    4    0    0 -0.78471840513E+01  0.31590021743E+01 -0.28436399523E+01  0.89243420324E+01  0.51100000000E-03 0.  1.
         12    1    4    4    0    0  0.13531241984E+02 -0.27035149532E+02 -0.14767449370E+02  0.33646268451E+02  0.00000000000E+00 0. -1.
</event>
<event>
 8    1  0.1244838E-006  0.9118800E+02  0.7816164E-02  0.1184000E+00
        -11   -1    0    0    0    0  0.00000000000E+00  0.00000000000E+00  0.45593999997E+02  0.45594000000E+02  0.51100000000E-03 0. -1.
         11   -1    0    0    0    0 -0.00000000000E+00 -0.00000000000E+00 -0.45593999997E+02  0.45594000000E+02  0.51100000000E-03 0.  1.
         23    2    1    2    0    0  0.00000000000E+00  0.00000000000E+00 -0.44408920985E-15  0.91188000000E+02  0.91188000000E+02 0.  0.
    9900012    2    3    3    0    0  0.31114653571E+02 -0.19595844219E+02 -0.19133720218E+01  0.54367085155E+02  0.40000002228E+02 0.  0.
        -12    1    3    3    0    0 -0.31114653571E+02  0.19595844219E+02  0.19133720218E+01  0.36820914845E+02  0.00000000000E+00 0.  1.
         11    1    4    4    0    0  0.10485009351E+01  0.90438660626E+00  0.92235313760E+01  0.93268859031E+01  0.51100000000E-03 0. -1.
        -11    1    4    4    0    0  0.18863532342E+02 -0.18418136040E+01 -0.13323203321E+02  0.23167496126E+02  0.51100000000E-03 0.  1.
         12    1    4    4    0    0  0.11202620294E+02 -0.18658417222E+02  0.21862999229E+01  0.21872703126E+02  0.00000000000E+00 0. -1.
</event>
<event>
 8    1  0.1244838E-006  0.9118800E+02  0.7816164E-02  0.1184000E+00
        -11   -1    0    0    0    0  0.00000000000E+00  0.00000000000E+00  0.45593999997E+02  0.45594000000E+02  0.51100000000E-03 0. -1.
         11   -1    0    0    0    0 -0.00000000000E+00 -0.00000000000E+00 -0.45593999997E+02  0.45594000000E+02  0.51100000000E-03 0.  1.
         23    2    1    2    0    0  0.00000000000E+00  0.00000000000E+00  0.35527136788E-14  0.91188000000E+02  0.91188000000E+02 0.  0.
    9900012    2    3    3    0    0  0.15045500402E+02 -0.15408958054E+02  0.29866016773E+02  0.54367054486E+02  0.39999932312E+02 0.  0.
        -12    1    3    3    0    0 -0.15045500402E+02  0.15408958054E+02 -0.29866016773E+02  0.36820945514E+02  0.00000000000E+00 0.  1.
         11    1    4    4    0    0  0.32038879137E+01  0.16083767965E+01  0.13370031991E+02  0.13842309395E+02  0.51100000000E-03 0. -1.
        -11    1    4    4    0    0 -0.24706437221E+01 -0.15244318787E+02  0.20397935461E+02  0.25584548208E+02  0.51100000000E-03 0.  1.
        -12    1    4    4    0    0  0.14312256210E+02 -0.17730160634E+01 -0.39019506790E+01  0.14940196883E+02  0.00000000000E+00 0.  1.
</event>
<event>
 8    1  0.1244838E-006  0.9118800E+02  0.7816164E-02  0.1184000E+00
        -11   -1    0    0    0    0  0.00000000000E+00  0.00000000000E+00  0.45593999997E+02  0.45594000000E+02  0.51100000000E-03 0. -1.
         11   -1    0    0    0    0 -0.00000000000E+00 -0.00000000000E+00 -0.45593999997E+02  0.45594000000E+02  0.51100000000E-03 0.  1.
         23    2    1    2    0    0 -0.88817841970E-15 -0.88817841970E-15  0.71054273576E-14  0.91188000000E+02  0.91188000000E+02 0.  0.
    9900012    2    3    3    0    0 -0.23347399737E+01  0.63601299320E+01 -0.36192233329E+02  0.54367081804E+02  0.39999994588E+02 0.  0.
         12    1    3    3    0    0  0.23347399737E+01 -0.63601299320E+01  0.36192233329E+02  0.36820918196E+02  0.00000000000E+00 0. -1.
         11    1    4    4    0    0 -0.13334420404E+02  0.30771906394E+01 -0.17583421955E+02  0.22281216251E+02  0.51100000000E-03 0. -1.
        -11    1    4    4    0    0  0.21151336027E+01 -0.69524453243E+01 -0.16936264076E+02  0.18429523251E+02  0.51100000000E-03 0.  1.
         12    1    4    4    0    0  0.88845468273E+01  0.10235384617E+02 -0.16725472974E+01  0.13656342301E+02  0.00000000000E+00 0. -1.
</event>
<event>
 8    1  0.1244838E-006  0.9118800E+02  0.7816164E-02  0.1184000E+00
        -11   -1    0    0    0    0  0.00000000000E+00  0.00000000000E+00  0.45593999997E+02  0.45594000000E+02  0.51100000000E-03 0. -1.
         11   -1    0    0    0    0 -0.00000000000E+00 -0.00000000000E+00 -0.45593999997E+02  0.45594000000E+02  0.51100000000E-03 0.  1.
         23    2    1    2    0    0  0.00000000000E+00  0.00000000000E+00  0.00000000000E+00  0.91188000000E+02  0.91188000000E+02 0.  0.
    9900012    2    3    3    0    0 -0.26527784920E+02  0.19076660910E+02 -0.16974626483E+02  0.54367077843E+02  0.39999985559E+02 0.  0.
         12    1    3    3    0    0  0.26527784920E+02 -0.19076660910E+02  0.16974626483E+02  0.36820922157E+02  0.00000000000E+00 0. -1.
         11    1    4    4    0    0  0.33553594900E+01  0.17035075838E+02 -0.55971155348E+01  0.18242257225E+02  0.51100000000E-03 0. -1.
        -11    1    4    4    0    0 -0.41329071250E+00 -0.41420183208E+01 -0.10703635639E+01  0.42979999305E+01  0.51100000000E-03 0.  1.
        -12    1    4    4    0    0 -0.29469853697E+02  0.61836033934E+01 -0.10307147385E+02  0.31826820687E+02  0.00000000000E+00 0.  1.
</event>
<event>
 8    1  0.1244838E-006  0.9118800E+02  0.7816164E-02  0.1184000E+00
        -11   -1    0    0    0    0  0.00000000000E+00  0.00000000000E+00  0.45593999997E+02  0.45594000000E+02  0.51100000000E-03 0. -1.
         11   -1    0    0    0    0 -0.00000000000E+00 -0.00000000000E+00 -0.45593999997E+02  0.45594000000E+02  0.51100000000E-03 0.  1.
         23    2    1    2    0    0 -0.35527136788E-14  0.35527136788E-14 -0.17763568394E-14  0.91188000000E+02  0.91188000000E+02 0.  0.
    9900012    2    3    3    0    0 -0.29288041743E+02  0.17949843635E+02 -0.13258708036E+02  0.54367087268E+02  0.40000007046E+02 0.  0.
         12    1    3    3    0    0  0.29288041743E+02 -0.17949843635E+02  0.13258708036E+02  0.36820912732E+02  0.00000000000E+00 0. -1.
         11    1    4    4    0    0 -0.67563698341E+01  0.14897150906E+02 -0.54180652453E+01  0.17231629920E+02  0.51100000000E-03 0. -1.
        -11    1    4    4    0    0 -0.14996652316E+02 -0.79579434795E+01  0.59093195408E+01  0.17976331740E+02  0.51100000000E-03 0.  1.
        -12    1    4    4    0    0 -0.75350195922E+01  0.11010636208E+02 -0.13749962331E+02  0.19159125608E+02  0.00000000000E+00 0.  1.
</event>
<event>
 8    1  0.1244838E-006  0.9118800E+02  0.7816164E-02  0.1184000E+00
        -11   -1    0    0    0    0  0.00000000000E+00  0.00000000000E+00  0.45593999997E+02  0.45594000000E+02  0.51100000000E-03 0.  1.
         11   -1    0    0    0    0 -0.00000000000E+00 -0.00000000000E+00 -0.45593999997E+02  0.45594000000E+02  0.51100000000E-03 0. -1.
         23    2    1    2    0    0  0.88817841970E-15 -0.35527136788E-14  0.71054273576E-14  0.91188000000E+02  0.91188000000E+02 0.  0.
    9900012    2    3    3    0    0  0.67315840804E+01 -0.16757699265E+02  0.32088184470E+02  0.54366996599E+02  0.39999800345E+02 0.  0.
         12    1    3    3    0    0 -0.67315840804E+01  0.16757699265E+02 -0.32088184470E+02  0.36821003401E+02  0.00000000000E+00 0. -1.
         11    1    4    4    0    0  0.29532232429E+01 -0.21643590177E+01  0.96376876638E+01  0.10309752725E+02  0.51100000000E-03 0. -1.
        -11    1    4    4    0    0  0.65476956611E+01 -0.96099515425E+01  0.31378657788E+02  0.33464065084E+02  0.51100000000E-03 0.  1.
         12    1    4    4    0    0 -0.27693348236E+01 -0.49833887046E+01 -0.89281609817E+01  0.10593178789E+02  0.00000000000E+00 0. -1.
</event>
<event>
 8    1  0.1244838E-006  0.9118800E+02  0.7816164E-02  0.1184000E+00
        -11   -1    0    0    0    0  0.00000000000E+00  0.00000000000E+00  0.45593999997E+02  0.45594000000E+02  0.51100000000E-03 0.  1.
         11   -1    0    0    0    0 -0.00000000000E+00 -0.00000000000E+00 -0.45593999997E+02  0.45594000000E+02  0.51100000000E-03 0. -1.
         23    2    1    2    0    0  0.00000000000E+00  0.35527136788E-14  0.00000000000E+00  0.91188000000E+02  0.91188000000E+02 0.  0.
    9900012    2    3    3    0    0  0.20910288833E+02  0.29336992227E+02  0.76079640482E+01  0.54367076479E+02  0.39999982448E+02 0.  0.
         12    1    3    3    0    0 -0.20910288833E+02 -0.29336992227E+02 -0.76079640482E+01  0.36820923521E+02  0.00000000000E+00 0. -1.
         11    1    4    4    0    0 -0.80944020526E+01  0.13069704882E+02 -0.38921089694E+01  0.15858279944E+02  0.51100000000E-03 0. -1.
        -11    1    4    4    0    0  0.13721948956E+01  0.66813093496E+01  0.52329206040E+01  0.85968756979E+01  0.51100000000E-03 0.  1.
        -12    1    4    4    0    0  0.27632495990E+02  0.95859779955E+01  0.62671524136E+01  0.29911920836E+02  0.00000000000E+00 0.  1.
</event>
<event>
 8    1  0.1244838E-006  0.9118800E+02  0.7816164E-02  0.1184000E+00
        -11   -1    0    0    0    0  0.00000000000E+00  0.00000000000E+00  0.45593999997E+02  0.45594000000E+02  0.51100000000E-03 0.  1.
         11   -1    0    0    0    0 -0.00000000000E+00 -0.00000000000E+00 -0.45593999997E+02  0.45594000000E+02  0.51100000000E-03 0. -1.
         23    2    1    2    0    0  0.00000000000E+00  0.00000000000E+00  0.35527136788E-14  0.91188000000E+02  0.91188000000E+02 0.  0.
    9900012    2    3    3    0    0 -0.19054881848E+02  0.29577576993E+02  0.10856227774E+02  0.54367092020E+02  0.40000017877E+02 0.  0.
         12    1    3    3    0    0  0.19054881848E+02 -0.29577576993E+02 -0.10856227774E+02  0.36820907980E+02  0.00000000000E+00 0. -1.
         11    1    4    4    0    0 -0.21812467287E+02  0.22395616402E+02  0.80155348401E+01  0.32273768950E+02  0.51100000000E-03 0. -1.
        -11    1    4    4    0    0 -0.25976029306E+01 -0.16138822785E+01  0.93993138590E+01  0.98842935141E+01  0.51100000000E-03 0.  1.
         12    1    4    4    0    0  0.53551883699E+01  0.87958428691E+01 -0.65586209250E+01  0.12209029556E+02  0.00000000000E+00 0. -1.
</event>
<event>
 8    1  0.1244838E-006  0.9118800E+02  0.7816164E-02  0.1184000E+00
        -11   -1    0    0    0    0  0.00000000000E+00  0.00000000000E+00  0.45593999997E+02  0.45594000000E+02  0.51100000000E-03 0. -1.
         11   -1    0    0    0    0 -0.00000000000E+00 -0.00000000000E+00 -0.45593999997E+02  0.45594000000E+02  0.51100000000E-03 0.  1.
         23    2    1    2    0    0  0.00000000000E+00 -0.13322676296E-14  0.00000000000E+00  0.91188000000E+02  0.91188000000E+02 0.  0.
    9900012    2    3    3    0    0 -0.29375382256E+02  0.27460780735E+01  0.22029757794E+02  0.54367295825E+02  0.40000482489E+02 0.  0.
        -12    1    3    3    0    0  0.29375382256E+02 -0.27460780735E+01 -0.22029757794E+02  0.36820704175E+02  0.00000000000E+00 0.  1.
         11    1    4    4    0    0 -0.34421503024E+01 -0.40893175665E+01  0.95284236729E+01  0.10925281452E+02  0.51100000000E-03 0. -1.
        -11    1    4    4    0    0 -0.82311694806E+01  0.50850387881E+01  0.21448882976E+02  0.23530073346E+02  0.51100000000E-03 0.  1.
         12    1    4    4    0    0 -0.17702062473E+02  0.17503568519E+01 -0.89475488550E+01  0.19911941026E+02  0.00000000000E+00 0. -1.
</event>
<event>
 8    1  0.1244838E-006  0.9118800E+02  0.7816164E-02  0.1184000E+00
        -11   -1    0    0    0    0  0.00000000000E+00  0.00000000000E+00  0.45593999997E+02  0.45594000000E+02  0.51100000000E-03 0. -1.
         11   -1    0    0    0    0 -0.00000000000E+00 -0.00000000000E+00 -0.45593999997E+02  0.45594000000E+02  0.51100000000E-03 0.  1.
         23    2    1    2    0    0  0.00000000000E+00 -0.35527136788E-14  0.00000000000E+00  0.91188000000E+02  0.91188000000E+02 0.  0.
    9900012    2    3    3    0    0 -0.32100669440E+01 -0.17910901681E+02 -0.32010533191E+02  0.54367093385E+02  0.40000020989E+02 0.  0.
         12    1    3    3    0    0  0.32100669440E+01  0.17910901681E+02  0.32010533191E+02  0.36820906615E+02  0.00000000000E+00 0. -1.
         11    1    4    4    0    0  0.45877434875E+01  0.44462026256E+01 -0.10041953039E+02  0.11901971651E+02  0.51100000000E-03 0. -1.
        -11    1    4    4    0    0  0.71795430292E+01 -0.19500858720E+02 -0.98930773281E+01  0.23015262505E+02  0.51100000000E-03 0.  1.
         12    1    4    4    0    0 -0.14977353461E+02 -0.28562455874E+01 -0.12075502824E+02  0.19449859228E+02  0.00000000000E+00 0. -1.
</event>
<event>
 8    1  0.1244838E-006  0.9118800E+02  0.7816164E-02  0.1184000E+00
        -11   -1    0    0    0    0  0.00000000000E+00  0.00000000000E+00  0.45593999997E+02  0.45594000000E+02  0.51100000000E-03 0. -1.
         11   -1    0    0    0    0 -0.00000000000E+00 -0.00000000000E+00 -0.45593999997E+02  0.45594000000E+02  0.51100000000E-03 0.  1.
         23    2    1    2    0    0  0.00000000000E+00  0.91593399532E-15 -0.35527136788E-14  0.91188000000E+02  0.91188000000E+02 0.  0.
    9900012    2    3    3    0    0 -0.20297620574E+02 -0.16967214459E+00  0.30720630354E+02  0.54367091280E+02  0.40000016191E+02 0.  0.
        -12    1    3    3    0    0  0.20297620574E+02  0.16967214459E+00 -0.30720630354E+02  0.36820908720E+02  0.00000000000E+00 0.  1.
         11    1    4    4    0    0 -0.35864273763E+01 -0.46904636297E+01  0.46447749426E+01  0.75124460008E+01  0.51100000000E-03 0. -1.
        -11    1    4    4    0    0 -0.50820342212E+01 -0.12079543491E+02 -0.87344420888E+00  0.13134129123E+02  0.51100000000E-03 0.  1.
         12    1    4    4    0    0 -0.11629158977E+02  0.16600334976E+02  0.26949299621E+02  0.33720516156E+02  0.00000000000E+00 0. -1.
</event>
<event>
 8    1  0.1244838E-006  0.9118800E+02  0.7816164E-02  0.1184000E+00
        -11   -1    0    0    0    0  0.00000000000E+00  0.00000000000E+00  0.45593999997E+02  0.45594000000E+02  0.51100000000E-03 0. -1.
         11   -1    0    0    0    0 -0.00000000000E+00 -0.00000000000E+00 -0.45593999997E+02  0.45594000000E+02  0.51100000000E-03 0.  1.
         23    2    1    2    0    0  0.71054273576E-14  0.22204460493E-14  0.00000000000E+00  0.91188000000E+02  0.91188000000E+02 0.  0.
    9900012    2    3    3    0    0  0.34907747622E+02 -0.36000054803E+01  0.11147574046E+02  0.54367091665E+02  0.40000017069E+02 0.  0.
        -12    1    3    3    0    0 -0.34907747622E+02  0.36000054803E+01 -0.11147574046E+02  0.36820908335E+02  0.00000000000E+00 0.  1.
         11    1    4    4    0    0  0.33454893246E+02 -0.38612472952E+01  0.83731656984E+01  0.34702291233E+02  0.51100000000E-03 0. -1.
        -11    1    4    4    0    0  0.61375809648E+01  0.56113515750E+01 -0.45305043198E+01  0.94700916706E+01  0.51100000000E-03 0.  1.
        -12    1    4    4    0    0 -0.46847265883E+01 -0.53501097600E+01  0.73049126671E+01  0.10194708761E+02  0.00000000000E+00 0.  1.
</event>
<event>
 8    1  0.1244838E-006  0.9118800E+02  0.7816164E-02  0.1184000E+00
        -11   -1    0    0    0    0  0.00000000000E+00  0.00000000000E+00  0.45593999997E+02  0.45594000000E+02  0.51100000000E-03 0.  1.
         11   -1    0    0    0    0 -0.00000000000E+00 -0.00000000000E+00 -0.45593999997E+02  0.45594000000E+02  0.51100000000E-03 0. -1.
         23    2    1    2    0    0  0.35527136788E-14  0.35527136788E-14 -0.17763568394E-14  0.91188000000E+02  0.91188000000E+02 0.  0.
    9900012    2    3    3    0    0 -0.18293211154E+02 -0.29510195061E+02  0.12259117352E+02  0.54367093641E+02  0.40000021572E+02 0.  0.
         12    1    3    3    0    0  0.18293211154E+02  0.29510195061E+02 -0.12259117352E+02  0.36820906359E+02  0.00000000000E+00 0. -1.
         11    1    4    4    0    0  0.58264457089E+01 -0.14831721883E+02 -0.44655525979E+01  0.16548975916E+02  0.51100000000E-03 0. -1.
        -11    1    4    4    0    0 -0.15135707812E+02 -0.18694259698E+02  0.11205320280E+02  0.26535338692E+02  0.51100000000E-03 0.  1.
         12    1    4    4    0    0 -0.89839490502E+01  0.40157865199E+01  0.55193496703E+01  0.11282779032E+02  0.00000000000E+00 0. -1.
</event>
<event>
 8    1  0.1244838E-006  0.9118800E+02  0.7816164E-02  0.1184000E+00
        -11   -1    0    0    0    0  0.00000000000E+00  0.00000000000E+00  0.45593999997E+02  0.45594000000E+02  0.51100000000E-03 0.  1.
         11   -1    0    0    0    0 -0.00000000000E+00 -0.00000000000E+00 -0.45593999997E+02  0.45594000000E+02  0.51100000000E-03 0. -1.
         23    2    1    2    0    0  0.00000000000E+00 -0.26645352591E-14 -0.17763568394E-14  0.91188000000E+02  0.91188000000E+02 0.  0.
    9900012    2    3    3    0    0  0.34021178271E+02  0.32643694367E+01 -0.13699727831E+02  0.54367092605E+02  0.40000019211E+02 0.  0.
         12    1    3    3    0    0 -0.34021178271E+02 -0.32643694367E+01  0.13699727831E+02  0.36820907395E+02  0.00000000000E+00 0. -1.
         11    1    4    4    0    0 -0.14980048525E+01 -0.38229881178E+01  0.32421000592E+01  0.52316794380E+01  0.51100000000E-03 0.  1.
        -11    1    4    4    0    0  0.13449743364E+02 -0.70365681642E+01 -0.17189482465E+02  0.22932230501E+02  0.51100000000E-03 0. -1.
        -12    1    4    4    0    0  0.22069439760E+02  0.14123925719E+02  0.24765457450E+00  0.26203182666E+02  0.00000000000E+00 0.  1.
</event>
<event>
 8    1  0.1244838E-006  0.9118800E+02  0.7816164E-02  0.1184000E+00
        -11   -1    0    0    0    0  0.00000000000E+00  0.00000000000E+00  0.45593999997E+02  0.45594000000E+02  0.51100000000E-03 0. -1.
         11   -1    0    0    0    0 -0.00000000000E+00 -0.00000000000E+00 -0.45593999997E+02  0.45594000000E+02  0.51100000000E-03 0.  1.
         23    2    1    2    0    0  0.00000000000E+00 -0.35527136788E-14  0.71054273576E-14  0.91188000000E+02  0.91188000000E+02 0.  0.
    9900012    2    3    3    0    0 -0.43945245566E+01 -0.13830444119E+02  0.33840600600E+02  0.54367091814E+02  0.40000017409E+02 0.  0.
        -12    1    3    3    0    0  0.43945245566E+01  0.13830444119E+02 -0.33840600600E+02  0.36820908186E+02  0.00000000000E+00 0.  1.
         11    1    4    4    0    0  0.39162702378E+01  0.98930404646E+01  0.20395976059E+02  0.23004461782E+02  0.51100000000E-03 0. -1.
        -11    1    4    4    0    0  0.77489587200E+00 -0.17024011122E+02  0.78140409980E+01  0.18747710668E+02  0.51100000000E-03 0.  1.
        -12    1    4    4    0    0 -0.90856906664E+01 -0.66994734610E+01  0.56305835436E+01  0.12614919365E+02  0.00000000000E+00 0.  1.
</event>
<event>
 8    1  0.1244838E-006  0.9118800E+02  0.7816164E-02  0.1184000E+00
        -11   -1    0    0    0    0  0.00000000000E+00  0.00000000000E+00  0.45593999997E+02  0.45594000000E+02  0.51100000000E-03 0. -1.
         11   -1    0    0    0    0 -0.00000000000E+00 -0.00000000000E+00 -0.45593999997E+02  0.45594000000E+02  0.51100000000E-03 0.  1.
         23    2    1    2    0    0 -0.17763568394E-14  0.00000000000E+00  0.00000000000E+00  0.91188000000E+02  0.91188000000E+02 0.  0.
    9900012    2    3    3    0    0  0.11867010122E+02  0.34220429530E+02 -0.66269951235E+01  0.54367071293E+02  0.39999970627E+02 0.  0.
         12    1    3    3    0    0 -0.11867010122E+02 -0.34220429530E+02  0.66269951235E+01  0.36820928707E+02  0.00000000000E+00 0. -1.
         11    1    4    4    0    0  0.11376694746E+02  0.23408879626E+02  0.46785203684E+01  0.26444155910E+02  0.51100000000E-03 0. -1.
        -11    1    4    4    0    0 -0.30199649316E+01 -0.56424933459E+01 -0.88481892823E+01  0.10920090347E+02  0.51100000000E-03 0.  1.
        -12    1    4    4    0    0  0.35102803075E+01  0.16454043250E+02 -0.24573262095E+01  0.17002825036E+02  0.00000000000E+00 0.  1.
</event>
<event>
 8    1  0.1244838E-006  0.9118800E+02  0.7816164E-02  0.1184000E+00
        -11   -1    0    0    0    0  0.00000000000E+00  0.00000000000E+00  0.45593999997E+02  0.45594000000E+02  0.51100000000E-03 0. -1.
         11   -1    0    0    0    0 -0.00000000000E+00 -0.00000000000E+00 -0.45593999997E+02  0.45594000000E+02  0.51100000000E-03 0.  1.
         23    2    1    2    0    0 -0.11102230246E-14  0.17763568394E-14  0.00000000000E+00  0.91188000000E+02  0.91188000000E+02 0.  0.
    9900012    2    3    3    0    0  0.18421085654E+01 -0.86728124399E+01  0.35737493916E+02  0.54367088673E+02  0.40000010248E+02 0.  0.
        -12    1    3    3    0    0 -0.18421085654E+01  0.86728124399E+01 -0.35737493916E+02  0.36820911327E+02  0.00000000000E+00 0.  1.
         11    1    4    4    0    0  0.22490362959E+01  0.63895011635E+01  0.11706373469E+02  0.13524905524E+02  0.51100000000E-03 0. -1.
        -11    1    4    4    0    0  0.12918512313E+02 -0.18674367335E+01  0.46049064604E+01  0.13841258761E+02  0.51100000000E-03 0.  1.
         12    1    4    4    0    0 -0.13325440043E+02 -0.13194876870E+02  0.19426213986E+02  0.27000924387E+02  0.00000000000E+00 0. -1.
</event>
<event>
 8    1  0.1244838E-006  0.9118800E+02  0.7816164E-02  0.1184000E+00
        -11   -1    0    0    0    0  0.00000000000E+00  0.00000000000E+00  0.45593999997E+02  0.45594000000E+02  0.51100000000E-03 0.  1.
         11   -1    0    0    0    0 -0.00000000000E+00 -0.00000000000E+00 -0.45593999997E+02  0.45594000000E+02  0.51100000000E-03 0. -1.
         23    2    1    2    0    0  0.00000000000E+00  0.00000000000E+00  0.00000000000E+00  0.91188000000E+02  0.91188000000E+02 0.  0.
    9900012    2    3    3    0    0  0.17353320904E+01  0.26972479192E+02  0.25005070703E+02  0.54367087843E+02  0.40000008355E+02 0.  0.
         12    1    3    3    0    0 -0.17353320904E+01 -0.26972479192E+02 -0.25005070703E+02  0.36820912157E+02  0.00000000000E+00 0. -1.
         11    1    4    4    0    0  0.11272989013E+01  0.87733183553E+00  0.10375185418E+02  0.10473060044E+02  0.51100000000E-03 0. -1.
        -11    1    4    4    0    0  0.11827766757E+02  0.59907499663E+01 -0.44573901807E+01  0.13987618779E+02  0.51100000000E-03 0.  1.
        -12    1    4    4    0    0 -0.11219733568E+02  0.20104397390E+02  0.19087275466E+02  0.29906409020E+02  0.00000000000E+00 0.  1.
</event>
<event>
 8    1  0.1244838E-006  0.9118800E+02  0.7816164E-02  0.1184000E+00
        -11   -1    0    0    0    0  0.00000000000E+00  0.00000000000E+00  0.45593999997E+02  0.45594000000E+02  0.51100000000E-03 0.  1.
         11   -1    0    0    0    0 -0.00000000000E+00 -0.00000000000E+00 -0.45593999997E+02  0.45594000000E+02  0.51100000000E-03 0. -1.
         23    2    1    2    0    0  0.49960036108E-15  0.00000000000E+00  0.00000000000E+00  0.91188000000E+02  0.91188000000E+02 0.  0.
    9900012    2    3    3    0    0  0.40985324318E+00 -0.17216331424E+02 -0.32545492404E+02  0.54367093938E+02  0.40000022251E+02 0.  0.
        -12    1    3    3    0    0 -0.40985324318E+00  0.17216331424E+02  0.32545492404E+02  0.36820906062E+02  0.00000000000E+00 0.  1.
         11    1    4    4    0    0  0.45798216132E+01 -0.65212179480E+01 -0.21518907664E+02  0.22946991891E+02  0.51100000000E-03 0. -1.
        -11    1    4    4    0    0  0.31493378759E+01  0.38776914194E+01 -0.13981314435E+02  0.14846951653E+02  0.51100000000E-03 0.  1.
         12    1    4    4    0    0 -0.73193062459E+01 -0.14572804895E+02  0.29547296947E+01  0.16573150394E+02  0.00000000000E+00 0. -1.
</event>
<event>
 8    1  0.1244838E-006  0.9118800E+02  0.7816164E-02  0.1184000E+00
        -11   -1    0    0    0    0  0.00000000000E+00  0.00000000000E+00  0.45593999997E+02  0.45594000000E+02  0.51100000000E-03 0. -1.
         11   -1    0    0    0    0 -0.00000000000E+00 -0.00000000000E+00 -0.45593999997E+02  0.45594000000E+02  0.51100000000E-03 0.  1.
         23    2    1    2    0    0  0.71054273576E-14  0.13322676296E-14  0.35527136788E-14  0.91188000000E+02  0.91188000000E+02 0.  0.
    9900012    2    3    3    0    0  0.25460231860E+02  0.30101417167E+01  0.26429014713E+02  0.54367120350E+02  0.40000082462E+02 0.  0.
         12    1    3    3    0    0 -0.25460231860E+02 -0.30101417167E+01 -0.26429014713E+02  0.36820879650E+02  0.00000000000E+00 0. -1.
         11    1    4    4    0    0 -0.13860896489E+01 -0.88333552397E+01  0.17481964778E+02  0.19635898301E+02  0.51100000000E-03 0. -1.
        -11    1    4    4    0    0  0.29473273302E+01 -0.31115521276E+01 -0.16785809878E+01  0.46028392789E+01  0.51100000000E-03 0.  1.
        -12    1    4    4    0    0  0.23898994179E+02  0.14955049084E+02  0.10625630922E+02  0.30128382770E+02  0.00000000000E+00 0.  1.
</event>
<event>
 8    1  0.1244838E-006  0.9118800E+02  0.7816164E-02  0.1184000E+00
        -11   -1    0    0    0    0  0.00000000000E+00  0.00000000000E+00  0.45593999997E+02  0.45594000000E+02  0.51100000000E-03 0. -1.
         11   -1    0    0    0    0 -0.00000000000E+00 -0.00000000000E+00 -0.45593999997E+02  0.45594000000E+02  0.51100000000E-03 0.  1.
         23    2    1    2    0    0  0.71054273576E-14  0.35527136788E-14  0.35527136788E-14  0.91188000000E+02  0.91188000000E+02 0.  0.
    9900012    2    3    3    0    0 -0.29799771902E+02 -0.20012471073E+02 -0.82008742027E+01  0.54367085541E+02  0.40000003108E+02 0.  0.
         12    1    3    3    0    0  0.29799771902E+02  0.20012471073E+02  0.82008742027E+01  0.36820914459E+02  0.00000000000E+00 0. -1.
         11    1    4    4    0    0 -0.97908054945E+01 -0.31776105298E+01  0.17838918702E+01  0.10446978098E+02  0.51100000000E-03 0. -1.
        -11    1    4    4    0    0  0.66045428108E+00  0.59345171651E+01  0.66664538322E+01  0.89496536692E+01  0.51100000000E-03 0.  1.
        -12    1    4    4    0    0 -0.20669420689E+02 -0.22769377709E+02 -0.16651219905E+02  0.34970453774E+02  0.00000000000E+00 0.  1.
</event>
<event>
 8    1  0.1244838E-006  0.9118800E+02  0.7816164E-02  0.1184000E+00
        -11   -1    0    0    0    0  0.00000000000E+00  0.00000000000E+00  0.45593999997E+02  0.45594000000E+02  0.51100000000E-03 0.  1.
         11   -1    0    0    0    0 -0.00000000000E+00 -0.00000000000E+00 -0.45593999997E+02  0.45594000000E+02  0.51100000000E-03 0. -1.
         23    2    1    2    0    0  0.00000000000E+00  0.35527136788E-14  0.00000000000E+00  0.91188000000E+02  0.91188000000E+02 0.  0.
    9900012    2    3    3    0    0 -0.20262814033E+02  0.28740668353E+02 -0.10916527314E+02  0.54367106223E+02  0.40000050257E+02 0.  0.
        -12    1    3    3    0    0  0.20262814033E+02 -0.28740668353E+02  0.10916527314E+02  0.36820893777E+02  0.00000000000E+00 0.  1.
         11    1    4    4    0    0 -0.37868470818E+01 -0.58953055683E+00 -0.16740282107E+02  0.17173374810E+02  0.51100000000E-03 0. -1.
        -11    1    4    4    0    0 -0.11421858972E+02  0.21888996944E+02 -0.26551896974E+01  0.24832178362E+02  0.51100000000E-03 0.  1.
         12    1    4    4    0    0 -0.50541079796E+01  0.74412019658E+01  0.84789444907E+01  0.12361553051E+02  0.00000000000E+00 0. -1.
</event>
<event>
 8    1  0.1244838E-006  0.9118800E+02  0.7816164E-02  0.1184000E+00
        -11   -1    0    0    0    0  0.00000000000E+00  0.00000000000E+00  0.45593999997E+02  0.45594000000E+02  0.51100000000E-03 0. -1.
         11   -1    0    0    0    0 -0.00000000000E+00 -0.00000000000E+00 -0.45593999997E+02  0.45594000000E+02  0.51100000000E-03 0.  1.
         23    2    1    2    0    0  0.35527136788E-14  0.00000000000E+00  0.00000000000E+00  0.91188000000E+02  0.91188000000E+02 0.  0.
    9900012    2    3    3    0    0  0.29170999590E+02 -0.20579408023E+02  0.90178522170E+01  0.54367069671E+02  0.39999966930E+02 0.  0.
        -12    1    3    3    0    0 -0.29170999590E+02  0.20579408023E+02 -0.90178522170E+01  0.36820930329E+02  0.00000000000E+00 0.  1.
         11    1    4    4    0    0 -0.46803524714E+01 -0.34733053521E+01  0.26415436067E+01  0.63990079085E+01  0.51100000000E-03 0. -1.
        -11    1    4    4    0    0 -0.10742996056E+01 -0.67086567335E+01  0.91790720748E+01  0.11419963188E+02  0.51100000000E-03 0.  1.
        -12    1    4    4    0    0  0.34925651667E+02 -0.10397445938E+02 -0.28027634644E+01  0.36548098574E+02  0.00000000000E+00 0.  1.
</event>
<event>
 8    1  0.1244838E-006  0.9118800E+02  0.7816164E-02  0.1184000E+00
        -11   -1    0    0    0    0  0.00000000000E+00  0.00000000000E+00  0.45593999997E+02  0.45594000000E+02  0.51100000000E-03 0.  1.
         11   -1    0    0    0    0 -0.00000000000E+00 -0.00000000000E+00 -0.45593999997E+02  0.45594000000E+02  0.51100000000E-03 0. -1.
         23    2    1    2    0    0  0.88817841970E-15 -0.14432899320E-14  0.00000000000E+00  0.91188000000E+02  0.91188000000E+02 0.  0.
    9900012    2    3    3    0    0 -0.75985611477E+01 -0.36939824576E+00  0.36026450982E+02  0.54367085333E+02  0.40000002633E+02 0.  0.
         12    1    3    3    0    0  0.75985611477E+01  0.36939824576E+00 -0.36026450982E+02  0.36820914667E+02  0.00000000000E+00 0. -1.
         11    1    4    4    0    0  0.68163026395E+01  0.80428696907E+01  0.98154822931E+01  0.14404632152E+02  0.51100000000E-03 0. -1.
        -11    1    4    4    0    0  0.28114166770E+01 -0.11801664837E+02  0.14269265600E+02  0.18729530098E+02  0.51100000000E-03 0.  1.
         12    1    4    4    0    0 -0.17226280464E+02  0.33893969007E+01  0.11941703089E+02  0.21232923083E+02  0.00000000000E+00 0. -1.
</event>
<event>
 8    1  0.1244838E-006  0.9118800E+02  0.7816164E-02  0.1184000E+00
        -11   -1    0    0    0    0  0.00000000000E+00  0.00000000000E+00  0.45593999997E+02  0.45594000000E+02  0.51100000000E-03 0.  1.
         11   -1    0    0    0    0 -0.00000000000E+00 -0.00000000000E+00 -0.45593999997E+02  0.45594000000E+02  0.51100000000E-03 0. -1.
         23    2    1    2    0    0  0.00000000000E+00 -0.35527136788E-14  0.00000000000E+00  0.91188000000E+02  0.91188000000E+02 0.  0.
    9900012    2    3    3    0    0  0.16704460350E+02 -0.22028872488E+02 -0.24320133170E+02  0.54367094307E+02  0.40000023092E+02 0.  0.
        -12    1    3    3    0    0 -0.16704460350E+02  0.22028872488E+02  0.24320133170E+02  0.36820905693E+02  0.00000000000E+00 0.  1.
         11    1    4    4    0    0  0.22005394549E+02 -0.20078403790E+02 -0.27612412653E+02  0.40618038121E+02  0.51100000000E-03 0. -1.
        -11    1    4    4    0    0 -0.30613111804E+01 -0.57101388098E+01  0.58081173450E+01  0.87012377697E+01  0.51100000000E-03 0.  1.
         12    1    4    4    0    0 -0.22396230190E+01  0.37596701119E+01 -0.25158378615E+01  0.50478184162E+01  0.00000000000E+00 0. -1.
</event>
<event>
 8    1  0.1244838E-006  0.9118800E+02  0.7816164E-02  0.1184000E+00
        -11   -1    0    0    0    0  0.00000000000E+00  0.00000000000E+00  0.45593999997E+02  0.45594000000E+02  0.51100000000E-03 0.  1.
         11   -1    0    0    0    0 -0.00000000000E+00 -0.00000000000E+00 -0.45593999997E+02  0.45594000000E+02  0.51100000000E-03 0. -1.
         23    2    1    2    0    0 -0.22204460493E-15 -0.35527136788E-14  0.00000000000E+00  0.91188000000E+02  0.91188000000E+02 0.  0.
    9900012    2    3    3    0    0  0.63838913778E+00 -0.23429610870E+02 -0.28397641897E+02  0.54367078344E+02  0.39999986702E+02 0.  0.
         12    1    3    3    0    0 -0.63838913778E+00  0.23429610870E+02  0.28397641897E+02  0.36820921656E+02  0.00000000000E+00 0. -1.
         11    1    4    4    0    0  0.98060326713E+01 -0.20378265131E+02 -0.96227986868E+01  0.24577026291E+02  0.51100000000E-03 0. -1.
        -11    1    4    4    0    0 -0.11655246142E+02 -0.97426212869E+01 -0.16181962361E+02  0.22195029585E+02  0.51100000000E-03 0.  1.
        -12    1    4    4    0    0  0.24876026081E+01  0.66912755476E+01 -0.25928808494E+01  0.75950224680E+01  0.00000000000E+00 0.  1.
</event>
<event>
 8    1  0.1244838E-006  0.9118800E+02  0.7816164E-02  0.1184000E+00
        -11   -1    0    0    0    0  0.00000000000E+00  0.00000000000E+00  0.45593999997E+02  0.45594000000E+02  0.51100000000E-03 0.  1.
         11   -1    0    0    0    0 -0.00000000000E+00 -0.00000000000E+00 -0.45593999997E+02  0.45594000000E+02  0.51100000000E-03 0. -1.
         23    2    1    2    0    0 -0.35527136788E-14 -0.55511151231E-15 -0.35527136788E-14  0.91188000000E+02  0.91188000000E+02 0.  0.
    9900012    2    3    3    0    0 -0.24465334667E+02  0.83898514458E+00 -0.27504893178E+02  0.54367141167E+02  0.40000129919E+02 0.  0.
        -12    1    3    3    0    0  0.24465334667E+02 -0.83898514458E+00  0.27504893178E+02  0.36820858833E+02  0.00000000000E+00 0.  1.
         11    1    4    4    0    0  0.60084223762E+01  0.44892650089E+01 -0.19992276123E+02  0.21352886096E+02  0.51100000000E-03 0. -1.
        -11    1    4    4    0    0 -0.90377042243E+01 -0.12079943708E+01  0.21600611611E+01  0.93704435609E+01  0.51100000000E-03 0.  1.
         12    1    4    4    0    0 -0.21436052819E+02 -0.24422854935E+01 -0.96726782161E+01  0.23643811511E+02  0.00000000000E+00 0. -1.
</event>
<event>
 8    1  0.1244838E-006  0.9118800E+02  0.7816164E-02  0.1184000E+00
        -11   -1    0    0    0    0  0.00000000000E+00  0.00000000000E+00  0.45593999997E+02  0.45594000000E+02  0.51100000000E-03 0. -1.
         11   -1    0    0    0    0 -0.00000000000E+00 -0.00000000000E+00 -0.45593999997E+02  0.45594000000E+02  0.51100000000E-03 0.  1.
         23    2    1    2    0    0  0.00000000000E+00  0.35527136788E-14  0.00000000000E+00  0.91188000000E+02  0.91188000000E+02 0.  0.
    9900012    2    3    3    0    0 -0.12712427258E+02  0.30357225267E+02  0.16510988154E+02  0.54367086615E+02  0.40000005556E+02 0.  0.
         12    1    3    3    0    0  0.12712427258E+02 -0.30357225267E+02 -0.16510988154E+02  0.36820913385E+02  0.00000000000E+00 0. -1.
         11    1    4    4    0    0 -0.16804193575E+02  0.17471621135E+01  0.43525297070E+01  0.17446432652E+02  0.51100000000E-03 0. -1.
        -11    1    4    4    0    0  0.99887191434E+01  0.74393346866E+01  0.72196114576E+01  0.14395867482E+02  0.51100000000E-03 0.  1.
         12    1    4    4    0    0 -0.58969528261E+01  0.21170728467E+02  0.49388469895E+01  0.22524786481E+02  0.00000000000E+00 0. -1.
</event>
<event>
 8    1  0.1244838E-006  0.9118800E+02  0.7816164E-02  0.1184000E+00
        -11   -1    0    0    0    0  0.00000000000E+00  0.00000000000E+00  0.45593999997E+02  0.45594000000E+02  0.51100000000E-03 0.  1.
         11   -1    0    0    0    0 -0.00000000000E+00 -0.00000000000E+00 -0.45593999997E+02  0.45594000000E+02  0.51100000000E-03 0. -1.
         23    2    1    2    0    0  0.00000000000E+00  0.00000000000E+00 -0.35527136788E-14  0.91188000000E+02  0.91188000000E+02 0.  0.
    9900012    2    3    3    0    0 -0.16813828416E+02  0.22962614687E+02 -0.23362164315E+02  0.54367119772E+02  0.40000081145E+02 0.  0.
        -12    1    3    3    0    0  0.16813828416E+02 -0.22962614687E+02  0.23362164315E+02  0.36820880228E+02  0.00000000000E+00 0.  1.
         11    1    4    4    0    0 -0.81131290906E+01  0.10674214692E+01 -0.25100515998E+02  0.26400722639E+02  0.51100000000E-03 0. -1.
        -11    1    4    4    0    0 -0.62493678782E+00  0.43397259995E+01  0.67079135866E+01  0.80137302604E+01  0.51100000000E-03 0.  1.
         12    1    4    4    0    0 -0.80757625373E+01  0.17555467219E+02 -0.49695619035E+01  0.19952666873E+02  0.00000000000E+00 0. -1.
</event>
<event>
 8    1  0.1244838E-006  0.9118800E+02  0.7816164E-02  0.1184000E+00
        -11   -1    0    0    0    0  0.00000000000E+00  0.00000000000E+00  0.45593999997E+02  0.45594000000E+02  0.51100000000E-03 0.  1.
         11   -1    0    0    0    0 -0.00000000000E+00 -0.00000000000E+00 -0.45593999997E+02  0.45594000000E+02  0.51100000000E-03 0. -1.
         23    2    1    2    0    0  0.00000000000E+00 -0.35527136788E-14  0.35527136788E-14  0.91188000000E+02  0.91188000000E+02 0.  0.
    9900012    2    3    3    0    0  0.17811093956E+02  0.24929011635E+02 -0.20422747957E+02  0.54367091223E+02  0.40000016062E+02 0.  0.
        -12    1    3    3    0    0 -0.17811093956E+02 -0.24929011635E+02  0.20422747957E+02  0.36820908777E+02  0.00000000000E+00 0.  1.
         11    1    4    4    0    0 -0.79636695724E+00  0.26923872774E+02 -0.14100024436E+02  0.30402957337E+02  0.51100000000E-03 0. -1.
        -11    1    4    4    0    0  0.49012148653E+01  0.24046248160E+01  0.35471199670E+01  0.65104675702E+01  0.51100000000E-03 0.  1.
         12    1    4    4    0    0  0.13706246048E+02 -0.43994859549E+01 -0.98698434879E+01  0.17453666316E+02  0.00000000000E+00 0. -1.
</event>
<event>
 8    1  0.1244838E-006  0.9118800E+02  0.7816164E-02  0.1184000E+00
        -11   -1    0    0    0    0  0.00000000000E+00  0.00000000000E+00  0.45593999997E+02  0.45594000000E+02  0.51100000000E-03 0. -1.
         11   -1    0    0    0    0 -0.00000000000E+00 -0.00000000000E+00 -0.45593999997E+02  0.45594000000E+02  0.51100000000E-03 0.  1.
         23    2    1    2    0    0  0.35527136788E-14 -0.35527136788E-14 -0.71054273576E-14  0.91188000000E+02  0.91188000000E+02 0.  0.
    9900012    2    3    3    0    0  0.21209383321E+02 -0.15101443033E+02 -0.26036287401E+02  0.54367084963E+02  0.40000001790E+02 0.  0.
         12    1    3    3    0    0 -0.21209383321E+02  0.15101443033E+02  0.26036287401E+02  0.36820915037E+02  0.00000000000E+00 0. -1.
         11    1    4    4    0    0  0.10742983441E+02  0.60367878031E+01 -0.18039829160E+01  0.12454270545E+02  0.51100000000E-03 0. -1.
        -11    1    4    4    0    0 -0.44404837395E+01  0.18312745633E+01  0.73159226997E+00  0.48586716166E+01  0.51100000000E-03 0.  1.
        -12    1    4    4    0    0  0.14906883619E+02 -0.22969505400E+02 -0.24963896755E+02  0.37054142801E+02  0.00000000000E+00 0.  1.
</event>
<event>
 8    1  0.1244838E-006  0.9118800E+02  0.7816164E-02  0.1184000E+00
        -11   -1    0    0    0    0  0.00000000000E+00  0.00000000000E+00  0.45593999997E+02  0.45594000000E+02  0.51100000000E-03 0.  1.
         11   -1    0    0    0    0 -0.00000000000E+00 -0.00000000000E+00 -0.45593999997E+02  0.45594000000E+02  0.51100000000E-03 0. -1.
         23    2    1    2    0    0  0.71054273576E-14  0.00000000000E+00 -0.88817841970E-15  0.91188000000E+02  0.91188000000E+02 0.  0.
    9900012    2    3    3    0    0  0.31849420107E+02  0.17442586397E+02  0.60950803383E+01  0.54367090374E+02  0.40000014125E+02 0.  0.
        -12    1    3    3    0    0 -0.31849420107E+02 -0.17442586397E+02 -0.60950803383E+01  0.36820909626E+02  0.00000000000E+00 0.  1.
         11    1    4    4    0    0  0.25707160488E+02  0.17469444393E+02  0.14931449034E+01  0.31117022186E+02  0.51100000000E-03 0. -1.
        -11    1    4    4    0    0  0.71200179055E+01  0.10069679212E+02  0.44322397055E+01  0.13104878614E+02  0.51100000000E-03 0.  1.
        -12    1    4    4    0    0 -0.97775828634E+00 -0.10096537208E+02  0.16969572931E+00  0.10145189574E+02  0.00000000000E+00 0.  1.
</event>
<event>
 8    1  0.1244838E-006  0.9118800E+02  0.7816164E-02  0.1184000E+00
        -11   -1    0    0    0    0  0.00000000000E+00  0.00000000000E+00  0.45593999997E+02  0.45594000000E+02  0.51100000000E-03 0.  1.
         11   -1    0    0    0    0 -0.00000000000E+00 -0.00000000000E+00 -0.45593999997E+02  0.45594000000E+02  0.51100000000E-03 0. -1.
         23    2    1    2    0    0  0.35527136788E-14  0.00000000000E+00  0.35527136788E-14  0.91188000000E+02  0.91188000000E+02 0.  0.
    9900012    2    3    3    0    0 -0.16868728348E+02  0.10512608640E+02 -0.30995326244E+02  0.54367093093E+02  0.40000020324E+02 0.  0.
        -12    1    3    3    0    0  0.16868728348E+02 -0.10512608640E+02  0.30995326244E+02  0.36820906907E+02  0.00000000000E+00 0.  1.
         11    1    4    4    0    0 -0.32749060482E+01  0.16279834377E+02 -0.22698237306E+02  0.28124153214E+02  0.51100000000E-03 0. -1.
        -11    1    4    4    0    0 -0.12167594312E+02  0.35697801522E+01 -0.10592688535E+02  0.16522673280E+02  0.51100000000E-03 0.  1.
        -12    1    4    4    0    0 -0.14262279876E+01 -0.93370058885E+01  0.22955995970E+01  0.97202665984E+01  0.00000000000E+00 0.  1.
</event>
<event>
 8    1  0.1244838E-006  0.9118800E+02  0.7816164E-02  0.1184000E+00
        -11   -1    0    0    0    0  0.00000000000E+00  0.00000000000E+00  0.45593999997E+02  0.45594000000E+02  0.51100000000E-03 0.  1.
         11   -1    0    0    0    0 -0.00000000000E+00 -0.00000000000E+00 -0.45593999997E+02  0.45594000000E+02  0.51100000000E-03 0. -1.
         23    2    1    2    0    0  0.00000000000E+00  0.00000000000E+00 -0.17763568394E-14  0.91188000000E+02  0.91188000000E+02 0.  0.
    9900012    2    3    3    0    0 -0.33715107988E+02 -0.66043212211E+01  0.13245876114E+02  0.54367098335E+02  0.40000032274E+02 0.  0.
        -12    1    3    3    0    0  0.33715107988E+02  0.66043212211E+01 -0.13245876114E+02  0.36820901665E+02  0.00000000000E+00 0.  1.
         11    1    4    4    0    0 -0.24896485693E+02 -0.50060048247E+01  0.43382738827E+00  0.25398489928E+02  0.51100000000E-03 0. -1.
        -11    1    4    4    0    0 -0.13820572678E+02  0.47116678348E+00  0.17150727659E+02  0.22031288813E+02  0.51100000000E-03 0.  1.
         12    1    4    4    0    0  0.50019503831E+01 -0.20694831799E+01 -0.43386789328E+01  0.69373195940E+01  0.00000000000E+00 0. -1.
</event>
<event>
 8    1  0.1244838E-006  0.9118800E+02  0.7816164E-02  0.1184000E+00
        -11   -1    0    0    0    0  0.00000000000E+00  0.00000000000E+00  0.45593999997E+02  0.45594000000E+02  0.51100000000E-03 0. -1.
         11   -1    0    0    0    0 -0.00000000000E+00 -0.00000000000E+00 -0.45593999997E+02  0.45594000000E+02  0.51100000000E-03 0.  1.
         23    2    1    2    0    0 -0.35527136788E-14  0.35527136788E-14  0.00000000000E+00  0.91188000000E+02  0.91188000000E+02 0.  0.
    9900012    2    3    3    0    0 -0.28464201190E+02  0.18222359108E+02 -0.14612118343E+02  0.54367093937E+02  0.40000022248E+02 0.  0.
         12    1    3    3    0    0  0.28464201190E+02 -0.18222359108E+02  0.14612118343E+02  0.36820906063E+02  0.00000000000E+00 0. -1.
         11    1    4    4    0    0 -0.17486462863E+02  0.24295369853E+02 -0.57115015789E+01  0.30473966436E+02  0.51100000000E-03 0. -1.
        -11    1    4    4    0    0 -0.15920151740E+02 -0.29212318433E+01 -0.76345461053E+01  0.17896120289E+02  0.51100000000E-03 0.  1.
        -12    1    4    4    0    0  0.49424134127E+01 -0.31517789020E+01 -0.12660706583E+01  0.59970072120E+01  0.00000000000E+00 0.  1.
</event>
<event>
 8    1  0.1244838E-006  0.9118800E+02  0.7816164E-02  0.1184000E+00
        -11   -1    0    0    0    0  0.00000000000E+00  0.00000000000E+00  0.45593999997E+02  0.45594000000E+02  0.51100000000E-03 0.  1.
         11   -1    0    0    0    0 -0.00000000000E+00 -0.00000000000E+00 -0.45593999997E+02  0.45594000000E+02  0.51100000000E-03 0. -1.
         23    2    1    2    0    0  0.00000000000E+00  0.17763568394E-14 -0.17763568394E-14  0.91188000000E+02  0.91188000000E+02 0.  0.
    9900012    2    3    3    0    0 -0.33060394446E+02 -0.10996798953E+02  0.11910457651E+02  0.54367105530E+02  0.40000048676E+02 0.  0.
         12    1    3    3    0    0  0.33060394446E+02  0.10996798953E+02 -0.11910457651E+02  0.36820894470E+02  0.00000000000E+00 0. -1.
         11    1    4    4    0    0 -0.78392444885E+01 -0.22309838296E+01 -0.28392200772E+00  0.81554677957E+01  0.51100000000E-03 0. -1.
        -11    1    4    4    0    0  0.49165725062E+00 -0.15947840926E+00  0.18390533585E+02  0.18397795683E+02  0.51100000000E-03 0.  1.
        -12    1    4    4    0    0 -0.25712807208E+02 -0.86063367143E+01 -0.61961539258E+01  0.27813842051E+02  0.00000000000E+00 0.  1.
</event>
<event>
 8    1  0.1244838E-006  0.9118800E+02  0.7816164E-02  0.1184000E+00
        -11   -1    0    0    0    0  0.00000000000E+00  0.00000000000E+00  0.45593999997E+02  0.45594000000E+02  0.51100000000E-03 0.  1.
         11   -1    0    0    0    0 -0.00000000000E+00 -0.00000000000E+00 -0.45593999997E+02  0.45594000000E+02  0.51100000000E-03 0. -1.
         23    2    1    2    0    0  0.00000000000E+00  0.00000000000E+00  0.00000000000E+00  0.91188000000E+02  0.91188000000E+02 0.  0.
    9900012    2    3    3    0    0  0.25541165848E+02  0.24782397326E+02  0.94478375441E+01  0.54367081973E+02  0.39999994973E+02 0.  0.
        -12    1    3    3    0    0 -0.25541165848E+02 -0.24782397326E+02 -0.94478375441E+01  0.36820918027E+02  0.00000000000E+00 0.  1.
         11    1    4    4    0    0  0.21842003100E+02  0.13964868058E+02 -0.10972786009E+02  0.28151246373E+02  0.51100000000E-03 0. -1.
        -11    1    4    4    0    0  0.69733331850E+01  0.31816426213E+01  0.12920850574E+02  0.15023268796E+02  0.51100000000E-03 0.  1.
         12    1    4    4    0    0 -0.32741704367E+01  0.76358866469E+01  0.74997729785E+01  0.11192566804E+02  0.00000000000E+00 0. -1.
</event>
<event>
 8    1  0.1244838E-006  0.9118800E+02  0.7816164E-02  0.1184000E+00
        -11   -1    0    0    0    0  0.00000000000E+00  0.00000000000E+00  0.45593999997E+02  0.45594000000E+02  0.51100000000E-03 0. -1.
         11   -1    0    0    0    0 -0.00000000000E+00 -0.00000000000E+00 -0.45593999997E+02  0.45594000000E+02  0.51100000000E-03 0.  1.
         23    2    1    2    0    0 -0.88817841970E-15 -0.35527136788E-14  0.00000000000E+00  0.91188000000E+02  0.91188000000E+02 0.  0.
    9900012    2    3    3    0    0  0.44942274671E+01 -0.28300429858E+02 -0.23122847239E+02  0.54367102739E+02  0.40000042314E+02 0.  0.
         12    1    3    3    0    0 -0.44942274671E+01  0.28300429858E+02  0.23122847239E+02  0.36820897261E+02  0.00000000000E+00 0. -1.
         11    1    4    4    0    0 -0.70909905697E+01 -0.17082302771E+02  0.15592670915E+01  0.18561210342E+02  0.51100000000E-03 0. -1.
        -11    1    4    4    0    0  0.15498729918E+02 -0.21130262526E+01 -0.12023129353E+02  0.19728941906E+02  0.51100000000E-03 0.  1.
         12    1    4    4    0    0 -0.39135118814E+01 -0.91051008343E+01 -0.12658984977E+02  0.16076950491E+02  0.00000000000E+00 0. -1.
</event>
<event>
 8    1  0.1244838E-006  0.9118800E+02  0.7816164E-02  0.1184000E+00
        -11   -1    0    0    0    0  0.00000000000E+00  0.00000000000E+00  0.45593999997E+02  0.45594000000E+02  0.51100000000E-03 0.  1.
         11   -1    0    0    0    0 -0.00000000000E+00 -0.00000000000E+00 -0.45593999997E+02  0.45594000000E+02  0.51100000000E-03 0. -1.
         23    2    1    2    0    0  0.17763568394E-14 -0.35527136788E-14  0.35527136788E-14  0.91188000000E+02  0.91188000000E+02 0.  0.
    9900012    2    3    3    0    0  0.40387481002E+01 -0.24458414279E+02  0.27225978254E+02  0.54367090083E+02  0.40000013462E+02 0.  0.
         12    1    3    3    0    0 -0.40387481002E+01  0.24458414279E+02 -0.27225978254E+02  0.36820909917E+02  0.00000000000E+00 0. -1.
         11    1    4    4    0    0  0.94230321323E+01 -0.27740382473E+02  0.21856695760E+02  0.36551846795E+02  0.51100000000E-03 0. -1.
        -11    1    4    4    0    0 -0.26311906326E+01  0.41906340517E+01 -0.50082223382E+01  0.70403742195E+01  0.51100000000E-03 0.  1.
        -12    1    4    4    0    0 -0.27530933995E+01 -0.90866585727E+00  0.10377504832E+02  0.10774869069E+02  0.00000000000E+00 0.  1.
</event>
<event>
 8    1  0.1244838E-006  0.9118800E+02  0.7816164E-02  0.1184000E+00
        -11   -1    0    0    0    0  0.00000000000E+00  0.00000000000E+00  0.45593999997E+02  0.45594000000E+02  0.51100000000E-03 0. -1.
         11   -1    0    0    0    0 -0.00000000000E+00 -0.00000000000E+00 -0.45593999997E+02  0.45594000000E+02  0.51100000000E-03 0.  1.
         23    2    1    2    0    0 -0.71054273576E-14 -0.17763568394E-14  0.17763568394E-14  0.91188000000E+02  0.91188000000E+02 0.  0.
    9900012    2    3    3    0    0 -0.32897505252E+02  0.12745021711E+02 -0.10540372879E+02  0.54367069938E+02  0.39999967537E+02 0.  0.
         12    1    3    3    0    0  0.32897505252E+02 -0.12745021711E+02  0.10540372879E+02  0.36820930062E+02  0.00000000000E+00 0. -1.
         11    1    4    4    0    0 -0.25044583365E+02  0.16627934590E+02  0.72026542625E+01  0.30912741602E+02  0.51100000000E-03 0. -1.
        -11    1    4    4    0    0 -0.28069293937E+01  0.40187864190E+01 -0.10564147522E+02  0.11646059850E+02  0.51100000000E-03 0.  1.
         12    1    4    4    0    0 -0.50459924931E+01 -0.79016992979E+01 -0.71788796200E+01  0.11808268486E+02  0.00000000000E+00 0. -1.
</event>
<event>
 8    1  0.1244838E-006  0.9118800E+02  0.7816164E-02  0.1184000E+00
        -11   -1    0    0    0    0  0.00000000000E+00  0.00000000000E+00  0.45593999997E+02  0.45594000000E+02  0.51100000000E-03 0.  1.
         11   -1    0    0    0    0 -0.00000000000E+00 -0.00000000000E+00 -0.45593999997E+02  0.45594000000E+02  0.51100000000E-03 0. -1.
         23    2    1    2    0    0  0.00000000000E+00  0.00000000000E+00  0.44408920985E-15  0.91188000000E+02  0.91188000000E+02 0.  0.
    9900012    2    3    3    0    0 -0.34059198738E+02 -0.13581935743E+02  0.33586421789E+01  0.54367102747E+02  0.40000042333E+02 0.  0.
         12    1    3    3    0    0  0.34059198738E+02  0.13581935743E+02 -0.33586421789E+01  0.36820897253E+02  0.00000000000E+00 0. -1.
         11    1    4    4    0    0 -0.19947715357E+02 -0.24461373600E+01  0.59644760536E+00  0.20105986322E+02  0.51100000000E-03 0. -1.
        -11    1    4    4    0    0 -0.19056575731E+02 -0.17408677549E+02  0.55517523903E-02  0.25811144176E+02  0.51100000000E-03 0.  1.
        -12    1    4    4    0    0  0.49450923500E+01  0.62728791660E+01  0.27566428211E+01  0.84499722500E+01  0.00000000000E+00 0.  1.
</event>
<event>
 8    1  0.1244838E-006  0.9118800E+02  0.7816164E-02  0.1184000E+00
        -11   -1    0    0    0    0  0.00000000000E+00  0.00000000000E+00  0.45593999997E+02  0.45594000000E+02  0.51100000000E-03 0.  1.
         11   -1    0    0    0    0 -0.00000000000E+00 -0.00000000000E+00 -0.45593999997E+02  0.45594000000E+02  0.51100000000E-03 0. -1.
         23    2    1    2    0    0  0.00000000000E+00  0.35527136788E-14 -0.35527136788E-14  0.91188000000E+02  0.91188000000E+02 0.  0.
    9900012    2    3    3    0    0  0.11801966509E+02  0.27541726292E+02 -0.21399784625E+02  0.54367029309E+02  0.39999874915E+02 0.  0.
        -12    1    3    3    0    0 -0.11801966509E+02 -0.27541726292E+02  0.21399784625E+02  0.36820970691E+02  0.00000000000E+00 0.  1.
         11    1    4    4    0    0  0.44405921670E+01  0.30091550573E+02 -0.13155899420E+02  0.33140578820E+02  0.51100000000E-03 0. -1.
        -11    1    4    4    0    0  0.12474169469E+02 -0.66738351086E+00 -0.94285584337E+01  0.15650815285E+02  0.51100000000E-03 0.  1.
         12    1    4    4    0    0 -0.51127951276E+01 -0.18824407702E+01  0.11846732280E+01  0.55756352039E+01  0.00000000000E+00 0. -1.
</event>
<event>
 8    1  0.1244838E-006  0.9118800E+02  0.7816164E-02  0.1184000E+00
        -11   -1    0    0    0    0  0.00000000000E+00  0.00000000000E+00  0.45593999997E+02  0.45594000000E+02  0.51100000000E-03 0.  1.
         11   -1    0    0    0    0 -0.00000000000E+00 -0.00000000000E+00 -0.45593999997E+02  0.45594000000E+02  0.51100000000E-03 0. -1.
         23    2    1    2    0    0 -0.35527136788E-14 -0.17763568394E-14 -0.35527136788E-14  0.91188000000E+02  0.91188000000E+02 0.  0.
    9900012    2    3    3    0    0 -0.26987475892E+02 -0.15237033469E+02 -0.19881840157E+02  0.54367100880E+02  0.40000038077E+02 0.  0.
        -12    1    3    3    0    0  0.26987475892E+02  0.15237033469E+02  0.19881840157E+02  0.36820899120E+02  0.00000000000E+00 0.  1.
         11    1    4    4    0    0 -0.94166722991E+01 -0.64259338518E+01 -0.28876226328E+01  0.11760302198E+02  0.51100000000E-03 0. -1.
        -11    1    4    4    0    0  0.45213286271E+01 -0.14216016111E+02 -0.12412097628E+02  0.19406125178E+02  0.51100000000E-03 0.  1.
        -12    1    4    4    0    0 -0.22092132220E+02  0.54049164938E+01 -0.45821198960E+01  0.23200673505E+02  0.00000000000E+00 0.  1.
</event>
<event>
 8    1  0.1244838E-006  0.9118800E+02  0.7816164E-02  0.1184000E+00
        -11   -1    0    0    0    0  0.00000000000E+00  0.00000000000E+00  0.45593999997E+02  0.45594000000E+02  0.51100000000E-03 0. -1.
         11   -1    0    0    0    0 -0.00000000000E+00 -0.00000000000E+00 -0.45593999997E+02  0.45594000000E+02  0.51100000000E-03 0.  1.
         23    2    1    2    0    0  0.35527136788E-14  0.00000000000E+00  0.00000000000E+00  0.91188000000E+02  0.91188000000E+02 0.  0.
    9900012    2    3    3    0    0 -0.82822510471E+01 -0.18943006314E+02 -0.30468773924E+02  0.54367090790E+02  0.40000015073E+02 0.  0.
         12    1    3    3    0    0  0.82822510471E+01  0.18943006314E+02  0.30468773924E+02  0.36820909210E+02  0.00000000000E+00 0. -1.
         11    1    4    4    0    0 -0.19578598709E+02 -0.71738298019E+01 -0.90103090303E+01  0.22714995719E+02  0.51100000000E-03 0.  1.
        -11    1    4    4    0    0  0.32790514125E+01 -0.11353300701E+02 -0.40678296192E+01  0.12497873941E+02  0.51100000000E-03 0. -1.
        -12    1    4    4    0    0  0.80172962489E+01 -0.41587581072E+00 -0.17390635275E+02  0.19154221130E+02  0.00000000000E+00 0.  1.
</event>
<event>
 8    1  0.1244838E-006  0.9118800E+02  0.7816164E-02  0.1184000E+00
        -11   -1    0    0    0    0  0.00000000000E+00  0.00000000000E+00  0.45593999997E+02  0.45594000000E+02  0.51100000000E-03 0.  1.
         11   -1    0    0    0    0 -0.00000000000E+00 -0.00000000000E+00 -0.45593999997E+02  0.45594000000E+02  0.51100000000E-03 0. -1.
         23    2    1    2    0    0  0.00000000000E+00 -0.88817841970E-15 -0.88817841970E-15  0.91188000000E+02  0.91188000000E+02 0.  0.
    9900012    2    3    3    0    0  0.36478099131E+02  0.24745986489E+01 -0.43593985829E+01  0.54367085961E+02  0.40000004065E+02 0.  0.
         12    1    3    3    0    0 -0.36478099131E+02 -0.24745986489E+01  0.43593985829E+01  0.36820914039E+02  0.00000000000E+00 0. -1.
         11    1    4    4    0    0  0.17671330813E+02  0.17836618538E+02 -0.95568654700E+00  0.25126365249E+02  0.51100000000E-03 0. -1.
        -11    1    4    4    0    0  0.84313544076E+00 -0.10139721629E+02 -0.26690300884E+01  0.10518961639E+02  0.51100000000E-03 0.  1.
        -12    1    4    4    0    0  0.17963632877E+02 -0.52222982599E+01 -0.73468194747E+00  0.18721759073E+02  0.00000000000E+00 0.  1.
</event>
<event>
 8    1  0.1244838E-006  0.9118800E+02  0.7816164E-02  0.1184000E+00
        -11   -1    0    0    0    0  0.00000000000E+00  0.00000000000E+00  0.45593999997E+02  0.45594000000E+02  0.51100000000E-03 0.  1.
         11   -1    0    0    0    0 -0.00000000000E+00 -0.00000000000E+00 -0.45593999997E+02  0.45594000000E+02  0.51100000000E-03 0. -1.
         23    2    1    2    0    0  0.35527136788E-14  0.00000000000E+00  0.00000000000E+00  0.91188000000E+02  0.91188000000E+02 0.  0.
    9900012    2    3    3    0    0  0.24893385943E+02 -0.27017447726E+02 -0.24802907937E+01  0.54367150095E+02  0.40000150271E+02 0.  0.
        -12    1    3    3    0    0 -0.24893385943E+02  0.27017447726E+02  0.24802907937E+01  0.36820849905E+02  0.00000000000E+00 0.  1.
         11    1    4    4    0    0  0.73557625741E+01 -0.23170850004E+02 -0.71393078709E+01  0.25337033175E+02  0.51100000000E-03 0. -1.
        -11    1    4    4    0    0  0.16787889959E+02  0.63076701735E+01  0.25239209611E+00  0.17935541651E+02  0.51100000000E-03 0.  1.
         12    1    4    4    0    0  0.74973340920E+00 -0.10154267895E+02  0.44066249811E+01  0.11094575269E+02  0.00000000000E+00 0. -1.
</event>
<event>
 8    1  0.1244838E-006  0.9118800E+02  0.7816164E-02  0.1184000E+00
        -11   -1    0    0    0    0  0.00000000000E+00  0.00000000000E+00  0.45593999997E+02  0.45594000000E+02  0.51100000000E-03 0. -1.
         11   -1    0    0    0    0 -0.00000000000E+00 -0.00000000000E+00 -0.45593999997E+02  0.45594000000E+02  0.51100000000E-03 0.  1.
         23    2    1    2    0    0  0.00000000000E+00  0.19428902931E-15  0.00000000000E+00  0.91188000000E+02  0.91188000000E+02 0.  0.
    9900012    2    3    3    0    0  0.31144705103E+02 -0.21386995247E+00  0.19640292124E+02  0.54367089215E+02  0.40000011483E+02 0.  0.
         12    1    3    3    0    0 -0.31144705103E+02  0.21386995247E+00 -0.19640292124E+02  0.36820910785E+02  0.00000000000E+00 0. -1.
         11    1    4    4    0    0  0.10849091002E+02 -0.87383888488E+01  0.29335475129E+01  0.14236148233E+02  0.51100000000E-03 0. -1.
        -11    1    4    4    0    0  0.21674047252E+02 -0.52460497005E+01  0.75795433143E+01  0.23552809575E+02  0.51100000000E-03 0.  1.
         12    1    4    4    0    0 -0.13784331512E+01  0.13770568597E+02  0.91272012973E+01  0.16578131407E+02  0.00000000000E+00 0. -1.
</event>
<event>
 8    1  0.1244838E-006  0.9118800E+02  0.7816164E-02  0.1184000E+00
        -11   -1    0    0    0    0  0.00000000000E+00  0.00000000000E+00  0.45593999997E+02  0.45594000000E+02  0.51100000000E-03 0. -1.
         11   -1    0    0    0    0 -0.00000000000E+00 -0.00000000000E+00 -0.45593999997E+02  0.45594000000E+02  0.51100000000E-03 0.  1.
         23    2    1    2    0    0  0.00000000000E+00  0.00000000000E+00 -0.44408920985E-15  0.91188000000E+02  0.91188000000E+02 0.  0.
    9900012    2    3    3    0    0 -0.10009340187E+02 -0.35343443954E+02  0.25365222245E+01  0.54367083844E+02  0.39999999240E+02 0.  0.
         12    1    3    3    0    0  0.10009340187E+02  0.35343443954E+02 -0.25365222245E+01  0.36820916156E+02  0.00000000000E+00 0. -1.
         11    1    4    4    0    0 -0.50613871136E+01 -0.17019536521E+02  0.35915160086E+01  0.18115773525E+02  0.51100000000E-03 0. -1.
        -11    1    4    4    0    0 -0.34825781789E+01 -0.24709952680E+02  0.69527750528E+01  0.25904655825E+02  0.51100000000E-03 0.  1.
         12    1    4    4    0    0 -0.14653748943E+01  0.63860452469E+01 -0.80077688369E+01  0.10346654494E+02  0.00000000000E+00 0. -1.
</event>
<event>
 8    1  0.1244838E-006  0.9118800E+02  0.7816164E-02  0.1184000E+00
        -11   -1    0    0    0    0  0.00000000000E+00  0.00000000000E+00  0.45593999997E+02  0.45594000000E+02  0.51100000000E-03 0. -1.
         11   -1    0    0    0    0 -0.00000000000E+00 -0.00000000000E+00 -0.45593999997E+02  0.45594000000E+02  0.51100000000E-03 0.  1.
         23    2    1    2    0    0  0.00000000000E+00  0.00000000000E+00 -0.35527136788E-14  0.91188000000E+02  0.91188000000E+02 0.  0.
    9900012    2    3    3    0    0  0.19725286585E+02  0.21208161082E+02 -0.22735576075E+02  0.54367089544E+02  0.40000012234E+02 0.  0.
         12    1    3    3    0    0 -0.19725286585E+02 -0.21208161082E+02  0.22735576075E+02  0.36820910456E+02  0.00000000000E+00 0. -1.
         11    1    4    4    0    0  0.43252376380E+01  0.93650341041E+00  0.61161571019E+01  0.75493110427E+01  0.51100000000E-03 0. -1.
        -11    1    4    4    0    0  0.12526362545E+02  0.26781246971E+02 -0.21283983841E+02  0.36430110023E+02  0.51100000000E-03 0.  1.
        -12    1    4    4    0    0  0.28736864024E+01 -0.65095892998E+01 -0.75677493363E+01  0.10387668478E+02  0.00000000000E+00 0.  1.
</event>
<event>
 8    1  0.1244838E-006  0.9118800E+02  0.7816164E-02  0.1184000E+00
        -11   -1    0    0    0    0  0.00000000000E+00  0.00000000000E+00  0.45593999997E+02  0.45594000000E+02  0.51100000000E-03 0.  1.
         11   -1    0    0    0    0 -0.00000000000E+00 -0.00000000000E+00 -0.45593999997E+02  0.45594000000E+02  0.51100000000E-03 0. -1.
         23    2    1    2    0    0  0.00000000000E+00  0.71054273576E-14  0.35527136788E-14  0.91188000000E+02  0.91188000000E+02 0.  0.
    9900012    2    3    3    0    0 -0.20215663839E+02 -0.20587317280E+02 -0.22875072479E+02  0.54367086946E+02  0.40000006310E+02 0.  0.
         12    1    3    3    0    0  0.20215663839E+02  0.20587317280E+02  0.22875072479E+02  0.36820913054E+02  0.00000000000E+00 0. -1.
         11    1    4    4    0    0 -0.10291356357E+02 -0.21288692532E+02 -0.11668480386E+02  0.26368046574E+02  0.51100000000E-03 0. -1.
        -11    1    4    4    0    0 -0.77206064486E+01 -0.93697824566E+01  0.80783589508E+00  0.12167710808E+02  0.51100000000E-03 0.  1.
         12    1    4    4    0    0 -0.22037010339E+01  0.10071157709E+02 -0.12014427989E+02  0.15831329563E+02  0.00000000000E+00 0. -1.
</event>
<event>
 8    1  0.1244838E-006  0.9118800E+02  0.7816164E-02  0.1184000E+00
        -11   -1    0    0    0    0  0.00000000000E+00  0.00000000000E+00  0.45593999997E+02  0.45594000000E+02  0.51100000000E-03 0. -1.
         11   -1    0    0    0    0 -0.00000000000E+00 -0.00000000000E+00 -0.45593999997E+02  0.45594000000E+02  0.51100000000E-03 0.  1.
         23    2    1    2    0    0 -0.35527136788E-14 -0.88817841970E-15  0.00000000000E+00  0.91188000000E+02  0.91188000000E+02 0.  0.
    9900012    2    3    3    0    0  0.15046294946E+02 -0.52613887401E+01  0.33191958182E+02  0.54367091659E+02  0.40000017055E+02 0.  0.
        -12    1    3    3    0    0 -0.15046294946E+02  0.52613887401E+01 -0.33191958182E+02  0.36820908341E+02  0.00000000000E+00 0.  1.
         11    1    4    4    0    0  0.93057454046E+01  0.98727708614E+01  0.15866590342E+02  0.20876235086E+02  0.51100000000E-03 0. -1.
        -11    1    4    4    0    0 -0.63305689430E+01 -0.11747684873E+02  0.16924869522E+01  0.13451717933E+02  0.51100000000E-03 0.  1.
        -12    1    4    4    0    0  0.12071118485E+02 -0.33864747286E+01  0.15632880888E+02  0.20039138639E+02  0.00000000000E+00 0.  1.
</event>
<event>
 8    1  0.1244838E-006  0.9118800E+02  0.7816164E-02  0.1184000E+00
        -11   -1    0    0    0    0  0.00000000000E+00  0.00000000000E+00  0.45593999997E+02  0.45594000000E+02  0.51100000000E-03 0.  1.
         11   -1    0    0    0    0 -0.00000000000E+00 -0.00000000000E+00 -0.45593999997E+02  0.45594000000E+02  0.51100000000E-03 0. -1.
         23    2    1    2    0    0 -0.35527136788E-14 -0.44408920985E-15  0.71054273576E-14  0.91188000000E+02  0.91188000000E+02 0.  0.
    9900012    2    3    3    0    0  0.27046893249E+02 -0.25998501767E+01  0.24849272724E+02  0.54367081892E+02  0.39999994790E+02 0.  0.
         12    1    3    3    0    0 -0.27046893249E+02  0.25998501767E+01 -0.24849272724E+02  0.36820918108E+02  0.00000000000E+00 0. -1.
         11    1    4    4    0    0 -0.29056940934E+00 -0.26987319670E+01  0.67933889597E+01  0.73155805396E+01  0.51100000000E-03 0. -1.
        -11    1    4    4    0    0 -0.53725478290E+00 -0.10465149121E+01 -0.84725608292E+01  0.85538367666E+01  0.51100000000E-03 0.  1.
        -12    1    4    4    0    0  0.27874717441E+02  0.11453967024E+01  0.26528444594E+02  0.38497664586E+02  0.00000000000E+00 0.  1.
</event>
<event>
 8    1  0.1244838E-006  0.9118800E+02  0.7816164E-02  0.1184000E+00
        -11   -1    0    0    0    0  0.00000000000E+00  0.00000000000E+00  0.45593999997E+02  0.45594000000E+02  0.51100000000E-03 0. -1.
         11   -1    0    0    0    0 -0.00000000000E+00 -0.00000000000E+00 -0.45593999997E+02  0.45594000000E+02  0.51100000000E-03 0.  1.
         23    2    1    2    0    0 -0.44408920985E-15  0.00000000000E+00  0.00000000000E+00  0.91188000000E+02  0.91188000000E+02 0.  0.
    9900012    2    3    3    0    0  0.27355630538E+01 -0.81945509177E+01  0.35793102001E+02  0.54367080391E+02  0.39999991368E+02 0.  0.
        -12    1    3    3    0    0 -0.27355630538E+01  0.81945509177E+01 -0.35793102001E+02  0.36820919609E+02  0.00000000000E+00 0.  1.
         11    1    4    4    0    0 -0.20839807064E+01 -0.51314870459E+01  0.25624833258E+02  0.26216544674E+02  0.51100000000E-03 0. -1.
        -11    1    4    4    0    0 -0.10469487749E+02 -0.32113166965E+01  0.38754129504E+01  0.11616434670E+02  0.51100000000E-03 0.  1.
         12    1    4    4    0    0  0.15289031509E+02  0.14825282466E+00  0.62928557929E+01  0.16534101047E+02  0.00000000000E+00 0. -1.
</event>
<event>
 8    1  0.1244838E-006  0.9118800E+02  0.7816164E-02  0.1184000E+00
        -11   -1    0    0    0    0  0.00000000000E+00  0.00000000000E+00  0.45593999997E+02  0.45594000000E+02  0.51100000000E-03 0.  1.
         11   -1    0    0    0    0 -0.00000000000E+00 -0.00000000000E+00 -0.45593999997E+02  0.45594000000E+02  0.51100000000E-03 0. -1.
         23    2    1    2    0    0  0.17763568394E-14  0.00000000000E+00 -0.35527136788E-14  0.91188000000E+02  0.91188000000E+02 0.  0.
    9900012    2    3    3    0    0  0.15648250563E+02  0.15236608197E+02 -0.29643866650E+02  0.54367071100E+02  0.39999970188E+02 0.  0.
        -12    1    3    3    0    0 -0.15648250563E+02 -0.15236608197E+02  0.29643866650E+02  0.36820928900E+02  0.00000000000E+00 0.  1.
         11    1    4    4    0    0  0.60819043103E+00 -0.47519399975E+01 -0.14294990568E+02  0.15076391642E+02  0.51100000000E-03 0. -1.
        -11    1    4    4    0    0 -0.47352487108E+01 -0.23948209602E+01 -0.59647754594E+01  0.79835013826E+01  0.51100000000E-03 0.  1.
         12    1    4    4    0    0  0.19775308843E+02  0.22383369155E+02 -0.93841006226E+01  0.31307178076E+02  0.00000000000E+00 0. -1.
</event>
<event>
 8    1  0.1244838E-006  0.9118800E+02  0.7816164E-02  0.1184000E+00
        -11   -1    0    0    0    0  0.00000000000E+00  0.00000000000E+00  0.45593999997E+02  0.45594000000E+02  0.51100000000E-03 0.  1.
         11   -1    0    0    0    0 -0.00000000000E+00 -0.00000000000E+00 -0.45593999997E+02  0.45594000000E+02  0.51100000000E-03 0. -1.
         23    2    1    2    0    0  0.00000000000E+00  0.00000000000E+00  0.00000000000E+00  0.91188000000E+02  0.91188000000E+02 0.  0.
    9900012    2    3    3    0    0  0.25050970673E+02 -0.74791890581E+01 -0.25928544624E+02  0.54367097961E+02  0.40000031422E+02 0.  0.
        -12    1    3    3    0    0 -0.25050970673E+02  0.74791890581E+01  0.25928544624E+02  0.36820902039E+02  0.00000000000E+00 0.  1.
         11    1    4    4    0    0  0.20495339996E+02 -0.24490312711E+01 -0.21234296163E+02  0.29613376192E+02  0.51100000000E-03 0. -1.
        -11    1    4    4    0    0  0.12361236586E+02  0.30632287200E+01 -0.47482502929E+00  0.12743978939E+02  0.51100000000E-03 0.  1.
        -12    1    4    4    0    0 -0.78056059084E+01 -0.80933865070E+01 -0.42194234320E+01  0.12009742830E+02  0.00000000000E+00 0.  1.
</event>
<event>
 8    1  0.1244838E-006  0.9118800E+02  0.7816164E-02  0.1184000E+00
        -11   -1    0    0    0    0  0.00000000000E+00  0.00000000000E+00  0.45593999997E+02  0.45594000000E+02  0.51100000000E-03 0.  1.
         11   -1    0    0    0    0 -0.00000000000E+00 -0.00000000000E+00 -0.45593999997E+02  0.45594000000E+02  0.51100000000E-03 0. -1.
         23    2    1    2    0    0 -0.35527136788E-14  0.00000000000E+00  0.00000000000E+00  0.91188000000E+02  0.91188000000E+02 0.  0.
    9900012    2    3    3    0    0 -0.17672900243E+02 -0.94202441023E+01 -0.30898335655E+02  0.54367088167E+02  0.40000009095E+02 0.  0.
        -12    1    3    3    0    0  0.17672900243E+02  0.94202441023E+01  0.30898335655E+02  0.36820911833E+02  0.00000000000E+00 0.  1.
         11    1    4    4    0    0  0.78493647411E+01  0.14867334906E+01 -0.36015428920E+01  0.87632194299E+01  0.51100000000E-03 0.  1.
        -11    1    4    4    0    0 -0.23889256835E+01 -0.44400896516E+01 -0.19813479073E+02  0.20444933731E+02  0.51100000000E-03 0. -1.
         12    1    4    4    0    0 -0.23133339301E+02 -0.64668879413E+01 -0.74833136898E+01  0.25158935006E+02  0.00000000000E+00 0. -1.
</event>
<event>
 8    1  0.1244838E-006  0.9118800E+02  0.7816164E-02  0.1184000E+00
        -11   -1    0    0    0    0  0.00000000000E+00  0.00000000000E+00  0.45593999997E+02  0.45594000000E+02  0.51100000000E-03 0.  1.
         11   -1    0    0    0    0 -0.00000000000E+00 -0.00000000000E+00 -0.45593999997E+02  0.45594000000E+02  0.51100000000E-03 0. -1.
         23    2    1    2    0    0  0.00000000000E+00  0.88817841970E-15  0.00000000000E+00  0.91188000000E+02  0.91188000000E+02 0.  0.
    9900012    2    3    3    0    0  0.34708621201E+02  0.78212147359E+01  0.94826273869E+01  0.54367081927E+02  0.39999994868E+02 0.  0.
        -12    1    3    3    0    0 -0.34708621201E+02 -0.78212147359E+01 -0.94826273869E+01  0.36820918073E+02  0.00000000000E+00 0.  1.
         11    1    4    4    0    0  0.15437248524E+02  0.15475632421E+02  0.33832885098E+01  0.22119007261E+02  0.51100000000E-03 0. -1.
        -11    1    4    4    0    0  0.11395562887E+02 -0.16319275071E+02  0.29412461624E+01  0.20120350932E+02  0.51100000000E-03 0.  1.
        -12    1    4    4    0    0  0.78758097898E+01  0.86648573862E+01  0.31580927147E+01  0.12127723734E+02  0.00000000000E+00 0.  1.
</event>
<event>
 8    1  0.1244838E-006  0.9118800E+02  0.7816164E-02  0.1184000E+00
        -11   -1    0    0    0    0  0.00000000000E+00  0.00000000000E+00  0.45593999997E+02  0.45594000000E+02  0.51100000000E-03 0. -1.
         11   -1    0    0    0    0 -0.00000000000E+00 -0.00000000000E+00 -0.45593999997E+02  0.45594000000E+02  0.51100000000E-03 0.  1.
         23    2    1    2    0    0  0.00000000000E+00  0.88817841970E-15 -0.11102230246E-15  0.91188000000E+02  0.91188000000E+02 0.  0.
    9900012    2    3    3    0    0  0.36073889129E+02 -0.73533346531E+01 -0.61884210449E+00  0.54367082399E+02  0.39999995945E+02 0.  0.
         12    1    3    3    0    0 -0.36073889129E+02  0.73533346531E+01  0.61884210449E+00  0.36820917601E+02  0.00000000000E+00 0. -1.
         11    1    4    4    0    0  0.58338774165E+01 -0.15171723102E+02  0.35919737087E+01  0.16646849041E+02  0.51100000000E-03 0. -1.
        -11    1    4    4    0    0  0.88103461653E+01 -0.64643877973E+01 -0.48584107624E+01  0.11958873883E+02  0.51100000000E-03 0.  1.
        -12    1    4    4    0    0  0.21429665548E+02  0.14282776247E+02  0.64759494913E+00  0.25761359475E+02  0.00000000000E+00 0.  1.
</event>
<event>
 8    1  0.1244838E-006  0.9118800E+02  0.7816164E-02  0.1184000E+00
        -11   -1    0    0    0    0  0.00000000000E+00  0.00000000000E+00  0.45593999997E+02  0.45594000000E+02  0.51100000000E-03 0.  1.
         11   -1    0    0    0    0 -0.00000000000E+00 -0.00000000000E+00 -0.45593999997E+02  0.45594000000E+02  0.51100000000E-03 0. -1.
         23    2    1    2    0    0  0.00000000000E+00  0.00000000000E+00  0.00000000000E+00  0.91188000000E+02  0.91188000000E+02 0.  0.
    9900012    2    3    3    0    0 -0.25348824838E+02  0.87722566489E+01  0.25224296629E+02  0.54367074593E+02  0.39999978149E+02 0.  0.
         12    1    3    3    0    0  0.25348824838E+02 -0.87722566489E+01 -0.25224296629E+02  0.36820925407E+02  0.00000000000E+00 0. -1.
         11    1    4    4    0    0  0.72969762625E+01  0.65519768702E+01  0.76454564136E+01  0.12434921291E+02  0.51100000000E-03 0. -1.
        -11    1    4    4    0    0 -0.20502112193E+02  0.10817179146E+02  0.10235135414E+02  0.25339809910E+02  0.51100000000E-03 0.  1.
         12    1    4    4    0    0 -0.12143688908E+02 -0.85968993673E+01  0.73437048017E+01  0.16592343392E+02  0.00000000000E+00 0. -1.
</event>
<event>
 8    1  0.1244838E-006  0.9118800E+02  0.7816164E-02  0.1184000E+00
        -11   -1    0    0    0    0  0.00000000000E+00  0.00000000000E+00  0.45593999997E+02  0.45594000000E+02  0.51100000000E-03 0.  1.
         11   -1    0    0    0    0 -0.00000000000E+00 -0.00000000000E+00 -0.45593999997E+02  0.45594000000E+02  0.51100000000E-03 0. -1.
         23    2    1    2    0    0 -0.17763568394E-14  0.17763568394E-14  0.00000000000E+00  0.91188000000E+02  0.91188000000E+02 0.  0.
    9900012    2    3    3    0    0  0.71693491127E+01 -0.13104477502E+02  0.33654906301E+02  0.54367087254E+02  0.40000007013E+02 0.  0.
         12    1    3    3    0    0 -0.71693491127E+01  0.13104477502E+02 -0.33654906301E+02  0.36820912746E+02  0.00000000000E+00 0. -1.
         11    1    4    4    0    0 -0.11013281606E+02 -0.12805012404E+02  0.90200208494E+01  0.19147362502E+02  0.51100000000E-03 0. -1.
        -11    1    4    4    0    0  0.13777234580E+02  0.11441529110E+01  0.44708256095E+01  0.14529609783E+02  0.51100000000E-03 0.  1.
        -12    1    4    4    0    0  0.44053961388E+01 -0.14436180084E+01  0.20164059842E+02  0.20690114969E+02  0.00000000000E+00 0.  1.
</event>
<event>
 8    1  0.1244838E-006  0.9118800E+02  0.7816164E-02  0.1184000E+00
        -11   -1    0    0    0    0  0.00000000000E+00  0.00000000000E+00  0.45593999997E+02  0.45594000000E+02  0.51100000000E-03 0. -1.
         11   -1    0    0    0    0 -0.00000000000E+00 -0.00000000000E+00 -0.45593999997E+02  0.45594000000E+02  0.51100000000E-03 0.  1.
         23    2    1    2    0    0  0.11102230246E-14  0.17763568394E-14  0.00000000000E+00  0.91188000000E+02  0.91188000000E+02 0.  0.
    9900012    2    3    3    0    0  0.16691013004E+01 -0.11890055770E+02 -0.34808389990E+02  0.54367036691E+02  0.39999891743E+02 0.  0.
         12    1    3    3    0    0 -0.16691013004E+01  0.11890055770E+02  0.34808389990E+02  0.36820963309E+02  0.00000000000E+00 0. -1.
         11    1    4    4    0    0  0.22286375754E+01  0.15171981212E+01 -0.19537703945E+01  0.33295547145E+01  0.51100000000E-03 0. -1.
        -11    1    4    4    0    0  0.12168230120E+02  0.71646041685E+01 -0.74807790865E+01  0.15979969748E+02  0.51100000000E-03 0.  1.
         12    1    4    4    0    0 -0.12727766395E+02 -0.20571858060E+02 -0.25373840509E+02  0.35057512228E+02  0.00000000000E+00 0. -1.
</event>
<event>
 8    1  0.1244838E-006  0.9118800E+02  0.7816164E-02  0.1184000E+00
        -11   -1    0    0    0    0  0.00000000000E+00  0.00000000000E+00  0.45593999997E+02  0.45594000000E+02  0.51100000000E-03 0. -1.
         11   -1    0    0    0    0 -0.00000000000E+00 -0.00000000000E+00 -0.45593999997E+02  0.45594000000E+02  0.51100000000E-03 0.  1.
         23    2    1    2    0    0  0.00000000000E+00  0.17763568394E-14  0.00000000000E+00  0.91188000000E+02  0.91188000000E+02 0.  0.
    9900012    2    3    3    0    0 -0.13641960865E+02 -0.13380130893E+02  0.31474552267E+02  0.54367103225E+02  0.40000043421E+02 0.  0.
        -12    1    3    3    0    0  0.13641960865E+02  0.13380130893E+02 -0.31474552267E+02  0.36820896775E+02  0.00000000000E+00 0.  1.
         11    1    4    4    0    0 -0.44113883753E+01  0.45687302920E+01 -0.17925787599E+00  0.63534067653E+01  0.51100000000E-03 0. -1.
        -11    1    4    4    0    0  0.25089400897E+01 -0.11989661653E+02 -0.15006413285E+01  0.12340935604E+02  0.51100000000E-03 0.  1.
         12    1    4    4    0    0 -0.11739512580E+02 -0.59591995313E+01  0.33154451471E+02  0.35672760855E+02  0.00000000000E+00 0. -1.
</event>
<event>
 8    1  0.1244838E-006  0.9118800E+02  0.7816164E-02  0.1184000E+00
        -11   -1    0    0    0    0  0.00000000000E+00  0.00000000000E+00  0.45593999997E+02  0.45594000000E+02  0.51100000000E-03 0.  1.
         11   -1    0    0    0    0 -0.00000000000E+00 -0.00000000000E+00 -0.45593999997E+02  0.45594000000E+02  0.51100000000E-03 0. -1.
         23    2    1    2    0    0  0.00000000000E+00 -0.26645352591E-14  0.00000000000E+00  0.91188000000E+02  0.91188000000E+02 0.  0.
    9900012    2    3    3    0    0  0.36424628584E+02  0.26135558609E+01 -0.47111875380E+01  0.54367088418E+02  0.40000009666E+02 0.  0.
        -12    1    3    3    0    0 -0.36424628584E+02 -0.26135558609E+01  0.47111875380E+01  0.36820911582E+02  0.00000000000E+00 0.  1.
         11    1    4    4    0    0  0.20756176796E+02 -0.23417891687E+01 -0.13811390863E+01  0.20933475515E+02  0.51100000000E-03 0. -1.
        -11    1    4    4    0    0  0.14161941117E+02 -0.10318237819E+02 -0.43434761826E+01  0.18052489953E+02  0.51100000000E-03 0.  1.
        -12    1    4    4    0    0  0.15065106709E+01  0.15273582848E+02  0.10134277309E+01  0.15381122950E+02  0.00000000000E+00 0.  1.
</event>
<event>
 8    1  0.1244838E-006  0.9118800E+02  0.7816164E-02  0.1184000E+00
        -11   -1    0    0    0    0  0.00000000000E+00  0.00000000000E+00  0.45593999997E+02  0.45594000000E+02  0.51100000000E-03 0.  1.
         11   -1    0    0    0    0 -0.00000000000E+00 -0.00000000000E+00 -0.45593999997E+02  0.45594000000E+02  0.51100000000E-03 0. -1.
         23    2    1    2    0    0  0.88817841970E-15  0.00000000000E+00  0.35527136788E-14  0.91188000000E+02  0.91188000000E+02 0.  0.
    9900012    2    3    3    0    0  0.79313010796E+01 -0.23174333020E+02  0.27492267480E+02  0.54367081775E+02  0.39999994523E+02 0.  0.
         12    1    3    3    0    0 -0.79313010796E+01  0.23174333020E+02 -0.27492267480E+02  0.36820918225E+02  0.00000000000E+00 0. -1.
         11    1    4    4    0    0  0.17581958581E+01 -0.11244232179E+02 -0.35635109966E+01  0.11925712593E+02  0.51100000000E-03 0. -1.
        -11    1    4    4    0    0  0.15744370861E+02 -0.88514257938E+01  0.14909666568E+02  0.23420741018E+02  0.51100000000E-03 0.  1.
         12    1    4    4    0    0 -0.95712656400E+01 -0.30786750469E+01  0.16146111908E+02  0.19020628164E+02  0.00000000000E+00 0. -1.
</event>
<event>
 8    1  0.1244838E-006  0.9118800E+02  0.7816164E-02  0.1184000E+00
        -11   -1    0    0    0    0  0.00000000000E+00  0.00000000000E+00  0.45593999997E+02  0.45594000000E+02  0.51100000000E-03 0.  1.
         11   -1    0    0    0    0 -0.00000000000E+00 -0.00000000000E+00 -0.45593999997E+02  0.45594000000E+02  0.51100000000E-03 0. -1.
         23    2    1    2    0    0 -0.35527136788E-14  0.88817841970E-15  0.71054273576E-14  0.91188000000E+02  0.91188000000E+02 0.  0.
    9900012    2    3    3    0    0 -0.12034089446E+02 -0.66086529089E+01 -0.34165558289E+02  0.54367095947E+02  0.40000026830E+02 0.  0.
        -12    1    3    3    0    0  0.12034089446E+02  0.66086529089E+01  0.34165558289E+02  0.36820904053E+02  0.00000000000E+00 0.  1.
         11    1    4    4    0    0  0.95223820489E+01 -0.48675365720E+01 -0.29661449321E+02  0.31530465399E+02  0.51100000000E-03 0. -1.
        -11    1    4    4    0    0 -0.18840460664E+02 -0.73521661886E+00 -0.19150288317E+01  0.18951803007E+02  0.51100000000E-03 0.  1.
        -12    1    4    4    0    0 -0.27160108306E+01 -0.10058997180E+01 -0.25890801363E+01  0.38848275414E+01  0.00000000000E+00 0.  1.
</event>
<event>
 8    1  0.1244838E-006  0.9118800E+02  0.7816164E-02  0.1184000E+00
        -11   -1    0    0    0    0  0.00000000000E+00  0.00000000000E+00  0.45593999997E+02  0.45594000000E+02  0.51100000000E-03 0. -1.
         11   -1    0    0    0    0 -0.00000000000E+00 -0.00000000000E+00 -0.45593999997E+02  0.45594000000E+02  0.51100000000E-03 0.  1.
         23    2    1    2    0    0 -0.35527136788E-14 -0.88817841970E-15  0.00000000000E+00  0.91188000000E+02  0.91188000000E+02 0.  0.
    9900012    2    3    3    0    0 -0.22669994040E+02  0.73416900611E+01 -0.28070465443E+02  0.54367081042E+02  0.39999992852E+02 0.  0.
         12    1    3    3    0    0  0.22669994040E+02 -0.73416900611E+01  0.28070465443E+02  0.36820918958E+02  0.00000000000E+00 0. -1.
         11    1    4    4    0    0 -0.19778748417E+02  0.11316370186E+02 -0.23363234574E+00  0.22788455574E+02  0.51100000000E-03 0. -1.
        -11    1    4    4    0    0 -0.38456193064E+01  0.36165212536E+01 -0.19761295219E+02  0.20454261239E+02  0.51100000000E-03 0.  1.
         12    1    4    4    0    0  0.95437368326E+00 -0.75912013781E+01 -0.80755378779E+01  0.11124364229E+02  0.00000000000E+00 0. -1.
</event>
<event>
 8    1  0.1244838E-006  0.9118800E+02  0.7816164E-02  0.1184000E+00
        -11   -1    0    0    0    0  0.00000000000E+00  0.00000000000E+00  0.45593999997E+02  0.45594000000E+02  0.51100000000E-03 0. -1.
         11   -1    0    0    0    0 -0.00000000000E+00 -0.00000000000E+00 -0.45593999997E+02  0.45594000000E+02  0.51100000000E-03 0.  1.
         23    2    1    2    0    0  0.88817841970E-15  0.35527136788E-14  0.00000000000E+00  0.91188000000E+02  0.91188000000E+02 0.  0.
    9900012    2    3    3    0    0 -0.62744835057E+01 -0.27841733555E+02 -0.23264742656E+02  0.54367088531E+02  0.40000009923E+02 0.  0.
        -12    1    3    3    0    0  0.62744835057E+01  0.27841733555E+02  0.23264742656E+02  0.36820911469E+02  0.00000000000E+00 0.  1.
         11    1    4    4    0    0 -0.15526614518E+02 -0.55547859270E+00 -0.66876469757E+01  0.16914755014E+02  0.51100000000E-03 0.  1.
        -11    1    4    4    0    0  0.71336173312E+01 -0.51568316075E+01  0.13354747619E+01  0.89030838229E+01  0.51100000000E-03 0. -1.
         12    1    4    4    0    0  0.21185136814E+01 -0.22129423355E+02 -0.17912570442E+02  0.28549249693E+02  0.00000000000E+00 0. -1.
</event>
<event>
 8    1  0.1244838E-006  0.9118800E+02  0.7816164E-02  0.1184000E+00
        -11   -1    0    0    0    0  0.00000000000E+00  0.00000000000E+00  0.45593999997E+02  0.45594000000E+02  0.51100000000E-03 0.  1.
         11   -1    0    0    0    0 -0.00000000000E+00 -0.00000000000E+00 -0.45593999997E+02  0.45594000000E+02  0.51100000000E-03 0. -1.
         23    2    1    2    0    0 -0.35527136788E-14  0.00000000000E+00  0.00000000000E+00  0.91188000000E+02  0.91188000000E+02 0.  0.
    9900012    2    3    3    0    0  0.29096075932E+02 -0.22122164463E+02 -0.44506653777E+01  0.54367079079E+02  0.39999988375E+02 0.  0.
        -12    1    3    3    0    0 -0.29096075932E+02  0.22122164463E+02  0.44506653777E+01  0.36820920921E+02  0.00000000000E+00 0.  1.
         11    1    4    4    0    0  0.17209916135E+02  0.26296559450E+01 -0.13771428377E+02  0.22197940075E+02  0.51100000000E-03 0. -1.
        -11    1    4    4    0    0  0.38568935391E+01  0.74684893565E+00  0.22063007734E+01  0.45056824643E+01  0.51100000000E-03 0.  1.
         12    1    4    4    0    0  0.80292662579E+01 -0.25498669344E+02  0.71144622257E+01  0.27663456539E+02  0.00000000000E+00 0. -1.
</event>
<event>
 8    1  0.1244838E-006  0.9118800E+02  0.7816164E-02  0.1184000E+00
        -11   -1    0    0    0    0  0.00000000000E+00  0.00000000000E+00  0.45593999997E+02  0.45594000000E+02  0.51100000000E-03 0. -1.
         11   -1    0    0    0    0 -0.00000000000E+00 -0.00000000000E+00 -0.45593999997E+02  0.45594000000E+02  0.51100000000E-03 0.  1.
         23    2    1    2    0    0  0.00000000000E+00  0.00000000000E+00  0.00000000000E+00  0.91188000000E+02  0.91188000000E+02 0.  0.
    9900012    2    3    3    0    0  0.36193737023E+02 -0.43200068974E+01 -0.52086752070E+01  0.54367090768E+02  0.40000015023E+02 0.  0.
         12    1    3    3    0    0 -0.36193737023E+02  0.43200068974E+01  0.52086752070E+01  0.36820909232E+02  0.00000000000E+00 0. -1.
         11    1    4    4    0    0  0.62589442220E+00 -0.48567354801E+01 -0.14653291176E+00  0.48990912940E+01  0.51100000000E-03 0. -1.
        -11    1    4    4    0    0  0.20703301088E+00  0.48212255126E+01 -0.12218374067E+02  0.13136808715E+02  0.51100000000E-03 0.  1.
         12    1    4    4    0    0  0.35360809590E+02 -0.42844969300E+01  0.71562317715E+01  0.36331190759E+02  0.00000000000E+00 0. -1.
</event>
<event>
 8    1  0.1244838E-006  0.9118800E+02  0.7816164E-02  0.1184000E+00
        -11   -1    0    0    0    0  0.00000000000E+00  0.00000000000E+00  0.45593999997E+02  0.45594000000E+02  0.51100000000E-03 0.  1.
         11   -1    0    0    0    0 -0.00000000000E+00 -0.00000000000E+00 -0.45593999997E+02  0.45594000000E+02  0.51100000000E-03 0. -1.
         23    2    1    2    0    0  0.00000000000E+00  0.00000000000E+00  0.00000000000E+00  0.91188000000E+02  0.91188000000E+02 0.  0.
    9900012    2    3    3    0    0  0.93348930875E+01  0.29396769958E+02  0.20111417884E+02  0.54367089606E+02  0.40000012376E+02 0.  0.
         12    1    3    3    0    0 -0.93348930875E+01 -0.29396769958E+02 -0.20111417884E+02  0.36820910394E+02  0.00000000000E+00 0. -1.
         11    1    4    4    0    0  0.42007923428E+01 -0.60571362617E+01  0.71360454015E+01  0.10259566279E+02  0.51100000000E-03 0. -1.
        -11    1    4    4    0    0 -0.70695499081E+01  0.51638047534E+01 -0.52616589081E+00  0.87704199580E+01  0.51100000000E-03 0.  1.
        -12    1    4    4    0    0  0.12203650653E+02  0.30290101466E+02  0.13501538374E+02  0.35337103369E+02  0.00000000000E+00 0.  1.
</event>
<event>
 8    1  0.1244838E-006  0.9118800E+02  0.7816164E-02  0.1184000E+00
        -11   -1    0    0    0    0  0.00000000000E+00  0.00000000000E+00  0.45593999997E+02  0.45594000000E+02  0.51100000000E-03 0. -1.
         11   -1    0    0    0    0 -0.00000000000E+00 -0.00000000000E+00 -0.45593999997E+02  0.45594000000E+02  0.51100000000E-03 0.  1.
         23    2    1    2    0    0  0.35527136788E-14 -0.44408920985E-15 -0.71054273576E-14  0.91188000000E+02  0.91188000000E+02 0.  0.
    9900012    2    3    3    0    0 -0.11478403411E+02  0.35612287080E+01  0.34804356224E+02  0.54367091443E+02  0.40000016564E+02 0.  0.
        -12    1    3    3    0    0  0.11478403411E+02 -0.35612287080E+01 -0.34804356224E+02  0.36820908557E+02  0.00000000000E+00 0.  1.
         11    1    4    4    0    0 -0.76618850071E+01  0.11964337777E+02  0.23653409761E+02  0.27592275258E+02  0.51100000000E-03 0. -1.
        -11    1    4    4    0    0  0.81919963565E+01 -0.64023623116E+01  0.19826313517E+00  0.10398959371E+02  0.51100000000E-03 0.  1.
        -12    1    4    4    0    0 -0.12008514760E+02 -0.20007467576E+01  0.10952683328E+02  0.16375856815E+02  0.00000000000E+00 0.  1.
</event>
<event>
 8    1  0.1244838E-006  0.9118800E+02  0.7816164E-02  0.1184000E+00
        -11   -1    0    0    0    0  0.00000000000E+00  0.00000000000E+00  0.45593999997E+02  0.45594000000E+02  0.51100000000E-03 0. -1.
         11   -1    0    0    0    0 -0.00000000000E+00 -0.00000000000E+00 -0.45593999997E+02  0.45594000000E+02  0.51100000000E-03 0.  1.
         23    2    1    2    0    0  0.00000000000E+00  0.00000000000E+00 -0.88817841970E-15  0.91188000000E+02  0.91188000000E+02 0.  0.
    9900012    2    3    3    0    0 -0.11011525161E+02  0.35073980258E+02 -0.20840749873E+01  0.54367066469E+02  0.39999959630E+02 0.  0.
        -12    1    3    3    0    0  0.11011525161E+02 -0.35073980258E+02  0.20840749873E+01  0.36820933531E+02  0.00000000000E+00 0.  1.
         11    1    4    4    0    0 -0.60251144781E+01  0.72702976859E+01  0.34105639266E+00  0.94485741062E+01  0.51100000000E-03 0. -1.
        -11    1    4    4    0    0 -0.10502302849E+01  0.22772199350E+02 -0.17373662043E+02  0.28662173329E+02  0.51100000000E-03 0.  1.
         12    1    4    4    0    0 -0.39361803985E+01  0.50314832220E+01  0.14948530663E+02  0.16256319034E+02  0.00000000000E+00 0. -1.
</event>
<event>
 8    1  0.1244838E-006  0.9118800E+02  0.7816164E-02  0.1184000E+00
        -11   -1    0    0    0    0  0.00000000000E+00  0.00000000000E+00  0.45593999997E+02  0.45594000000E+02  0.51100000000E-03 0. -1.
         11   -1    0    0    0    0 -0.00000000000E+00 -0.00000000000E+00 -0.45593999997E+02  0.45594000000E+02  0.51100000000E-03 0.  1.
         23    2    1    2    0    0  0.35527136788E-14  0.35527136788E-14  0.00000000000E+00  0.91188000000E+02  0.91188000000E+02 0.  0.
    9900012    2    3    3    0    0  0.14954830949E+02  0.30199722500E+02  0.14836105051E+02  0.54367079033E+02  0.39999988271E+02 0.  0.
        -12    1    3    3    0    0 -0.14954830949E+02 -0.30199722500E+02 -0.14836105051E+02  0.36820920967E+02  0.00000000000E+00 0.  1.
         11    1    4    4    0    0 -0.36337960630E+01  0.53822066584E+01  0.19104315321E+01  0.67692223513E+01  0.51100000000E-03 0.  1.
        -11    1    4    4    0    0 -0.90359340699E+01  0.90860508147E+01  0.87919505388E+01  0.15540360950E+02  0.51100000000E-03 0. -1.
         12    1    4    4    0    0  0.27624561082E+02  0.15731465027E+02  0.41337229803E+01  0.32057495731E+02  0.00000000000E+00 0. -1.
</event>
<event>
 8    1  0.1244838E-006  0.9118800E+02  0.7816164E-02  0.1184000E+00
        -11   -1    0    0    0    0  0.00000000000E+00  0.00000000000E+00  0.45593999997E+02  0.45594000000E+02  0.51100000000E-03 0.  1.
         11   -1    0    0    0    0 -0.00000000000E+00 -0.00000000000E+00 -0.45593999997E+02  0.45594000000E+02  0.51100000000E-03 0. -1.
         23    2    1    2    0    0 -0.17763568394E-14 -0.71054273576E-14  0.00000000000E+00  0.91188000000E+02  0.91188000000E+02 0.  0.
    9900012    2    3    3    0    0  0.12747366096E+02  0.21780861522E+02  0.26811907038E+02  0.54367087056E+02  0.40000006562E+02 0.  0.
         12    1    3    3    0    0 -0.12747366096E+02 -0.21780861522E+02 -0.26811907038E+02  0.36820912944E+02  0.00000000000E+00 0. -1.
         11    1    4    4    0    0 -0.10714480522E+01  0.52466050757E+01  0.15396427496E+01  0.55718368431E+01  0.51100000000E-03 0. -1.
        -11    1    4    4    0    0 -0.19704347472E+01  0.50619803114E+00  0.26198455354E+02  0.26277326971E+02  0.51100000000E-03 0.  1.
        -12    1    4    4    0    0  0.15789248895E+02  0.16028058415E+02 -0.92619106614E+00  0.22517923242E+02  0.00000000000E+00 0.  1.
</event>
<event>
 8    1  0.1244838E-006  0.9118800E+02  0.7816164E-02  0.1184000E+00
        -11   -1    0    0    0    0  0.00000000000E+00  0.00000000000E+00  0.45593999997E+02  0.45594000000E+02  0.51100000000E-03 0.  1.
         11   -1    0    0    0    0 -0.00000000000E+00 -0.00000000000E+00 -0.45593999997E+02  0.45594000000E+02  0.51100000000E-03 0. -1.
         23    2    1    2    0    0  0.35527136788E-14  0.35527136788E-14  0.00000000000E+00  0.91188000000E+02  0.91188000000E+02 0.  0.
    9900012    2    3    3    0    0  0.31646844914E+02  0.82107650118E+01 -0.16936356766E+02  0.54367086980E+02  0.40000006389E+02 0.  0.
        -12    1    3    3    0    0 -0.31646844914E+02 -0.82107650118E+01  0.16936356766E+02  0.36820913020E+02  0.00000000000E+00 0.  1.
         11    1    4    4    0    0  0.10045517712E+02 -0.84716388762E+01 -0.20014310370E+02  0.23942717289E+02  0.51100000000E-03 0. -1.
        -11    1    4    4    0    0  0.81132315124E+01  0.17909231636E+01  0.58228672821E+01  0.10145822539E+02  0.51100000000E-03 0.  1.
         12    1    4    4    0    0  0.13488095689E+02  0.14891480724E+02 -0.27449136782E+01  0.20278547152E+02  0.00000000000E+00 0. -1.
</event>
<event>
 8    1  0.1244838E-006  0.9118800E+02  0.7816164E-02  0.1184000E+00
        -11   -1    0    0    0    0  0.00000000000E+00  0.00000000000E+00  0.45593999997E+02  0.45594000000E+02  0.51100000000E-03 0. -1.
         11   -1    0    0    0    0 -0.00000000000E+00 -0.00000000000E+00 -0.45593999997E+02  0.45594000000E+02  0.51100000000E-03 0.  1.
         23    2    1    2    0    0 -0.17763568394E-14  0.00000000000E+00  0.00000000000E+00  0.91188000000E+02  0.91188000000E+02 0.  0.
    9900012    2    3    3    0    0 -0.15887795960E+02  0.14499290395E+02  0.29885248592E+02  0.54367087928E+02  0.40000008550E+02 0.  0.
        -12    1    3    3    0    0  0.15887795960E+02 -0.14499290395E+02 -0.29885248592E+02  0.36820912072E+02  0.00000000000E+00 0.  1.
         11    1    4    4    0    0 -0.35099945849E+00  0.21132554320E+01  0.14363794764E+02  0.14522659861E+02  0.51100000000E-03 0. -1.
        -11    1    4    4    0    0  0.76401477699E+01  0.85891227554E+01  0.11033233920E+02  0.15933522481E+02  0.51100000000E-03 0.  1.
         12    1    4    4    0    0 -0.23176944271E+02  0.37969122073E+01  0.44882199077E+01  0.23910905587E+02  0.00000000000E+00 0. -1.
</event>
<event>
 8    1  0.1244838E-006  0.9118800E+02  0.7816164E-02  0.1184000E+00
        -11   -1    0    0    0    0  0.00000000000E+00  0.00000000000E+00  0.45593999997E+02  0.45594000000E+02  0.51100000000E-03 0.  1.
         11   -1    0    0    0    0 -0.00000000000E+00 -0.00000000000E+00 -0.45593999997E+02  0.45594000000E+02  0.51100000000E-03 0. -1.
         23    2    1    2    0    0  0.00000000000E+00 -0.17763568394E-14 -0.88817841970E-15  0.91188000000E+02  0.91188000000E+02 0.  0.
    9900012    2    3    3    0    0  0.33369583565E+02 -0.14299553722E+02 -0.61458217771E+01  0.54367116398E+02  0.40000073452E+02 0.  0.
         12    1    3    3    0    0 -0.33369583565E+02  0.14299553722E+02  0.61458217771E+01  0.36820883602E+02  0.00000000000E+00 0. -1.
         11    1    4    4    0    0  0.51812131954E+01 -0.86445244433E+01 -0.94216698914E+01  0.13796399415E+02  0.51100000000E-03 0. -1.
        -11    1    4    4    0    0  0.27738629613E+02  0.62418382515E+01  0.10002716840E+01  0.28449827087E+02  0.51100000000E-03 0.  1.
         12    1    4    4    0    0  0.44974075647E+00 -0.11896867530E+02  0.22755764303E+01  0.12120889896E+02  0.00000000000E+00 0. -1.
</event>
<event>
 8    1  0.1244838E-006  0.9118800E+02  0.7816164E-02  0.1184000E+00
        -11   -1    0    0    0    0  0.00000000000E+00  0.00000000000E+00  0.45593999997E+02  0.45594000000E+02  0.51100000000E-03 0.  1.
         11   -1    0    0    0    0 -0.00000000000E+00 -0.00000000000E+00 -0.45593999997E+02  0.45594000000E+02  0.51100000000E-03 0. -1.
         23    2    1    2    0    0  0.00000000000E+00  0.00000000000E+00 -0.17763568394E-14  0.91188000000E+02  0.91188000000E+02 0.  0.
    9900012    2    3    3    0    0  0.11360679145E+02 -0.33554847254E+02 -0.10039258258E+02  0.54367088668E+02  0.40000010238E+02 0.  0.
        -12    1    3    3    0    0 -0.11360679145E+02  0.33554847254E+02  0.10039258258E+02  0.36820911332E+02  0.00000000000E+00 0.  1.
         11    1    4    4    0    0  0.55598396195E+01 -0.32969003484E+02 -0.22874408146E+01  0.33512675111E+02  0.51100000000E-03 0. -1.
        -11    1    4    4    0    0  0.34980585946E+01 -0.23515373185E+01  0.57022517873E+01  0.70909673105E+01  0.51100000000E-03 0.  1.
         12    1    4    4    0    0  0.23027809313E+01  0.17656935485E+01 -0.13454069231E+02  0.13763446247E+02  0.00000000000E+00 0. -1.
</event>
<event>
 8    1  0.1244838E-006  0.9118800E+02  0.7816164E-02  0.1184000E+00
        -11   -1    0    0    0    0  0.00000000000E+00  0.00000000000E+00  0.45593999997E+02  0.45594000000E+02  0.51100000000E-03 0. -1.
         11   -1    0    0    0    0 -0.00000000000E+00 -0.00000000000E+00 -0.45593999997E+02  0.45594000000E+02  0.51100000000E-03 0.  1.
         23    2    1    2    0    0  0.00000000000E+00  0.00000000000E+00  0.88817841970E-15  0.91188000000E+02  0.91188000000E+02 0.  0.
    9900012    2    3    3    0    0  0.33099917290E+02 -0.15691408472E+02  0.37358083971E+01  0.54367067247E+02  0.39999961403E+02 0.  0.
         12    1    3    3    0    0 -0.33099917290E+02  0.15691408472E+02 -0.37358083971E+01  0.36820932753E+02  0.00000000000E+00 0. -1.
         11    1    4    4    0    0 -0.65351139311E+01 -0.64930701819E+01  0.29741726440E+01  0.96805670111E+01  0.51100000000E-03 0. -1.
        -11    1    4    4    0    0  0.15106481284E+02 -0.88038224779E+01 -0.71798009366E+01  0.18901391715E+02  0.51100000000E-03 0.  1.
        -12    1    4    4    0    0  0.24528549937E+02 -0.39451581172E+00  0.79414366896E+01  0.25785108521E+02  0.00000000000E+00 0.  1.
</event>
<event>
 8    1  0.1244838E-006  0.9118800E+02  0.7816164E-02  0.1184000E+00
        -11   -1    0    0    0    0  0.00000000000E+00  0.00000000000E+00  0.45593999997E+02  0.45594000000E+02  0.51100000000E-03 0. -1.
         11   -1    0    0    0    0 -0.00000000000E+00 -0.00000000000E+00 -0.45593999997E+02  0.45594000000E+02  0.51100000000E-03 0.  1.
         23    2    1    2    0    0  0.00000000000E+00 -0.35527136788E-14  0.00000000000E+00  0.91188000000E+02  0.91188000000E+02 0.  0.
    9900012    2    3    3    0    0  0.90348998641E+01  0.27718449726E+02  0.22490832612E+02  0.54367089876E+02  0.40000012990E+02 0.  0.
        -12    1    3    3    0    0 -0.90348998641E+01 -0.27718449726E+02 -0.22490832612E+02  0.36820910124E+02  0.00000000000E+00 0.  1.
         11    1    4    4    0    0  0.12327623499E+02 -0.42749153761E+01  0.14881971501E+02  0.19791874055E+02  0.51100000000E-03 0. -1.
        -11    1    4    4    0    0  0.17610392540E+01  0.21697755829E+02  0.77435463177E+01  0.23105332223E+02  0.51100000000E-03 0.  1.
         12    1    4    4    0    0 -0.50537628887E+01  0.10295609273E+02 -0.13468520694E+00  0.11469883598E+02  0.00000000000E+00 0. -1.
</event>
<event>
 8    1  0.1244838E-006  0.9118800E+02  0.7816164E-02  0.1184000E+00
        -11   -1    0    0    0    0  0.00000000000E+00  0.00000000000E+00  0.45593999997E+02  0.45594000000E+02  0.51100000000E-03 0.  1.
         11   -1    0    0    0    0 -0.00000000000E+00 -0.00000000000E+00 -0.45593999997E+02  0.45594000000E+02  0.51100000000E-03 0. -1.
         23    2    1    2    0    0  0.00000000000E+00  0.00000000000E+00  0.00000000000E+00  0.91188000000E+02  0.91188000000E+02 0.  0.
    9900012    2    3    3    0    0  0.26455186159E+02 -0.21016864627E+02  0.14635397746E+02  0.54367077407E+02  0.39999984564E+02 0.  0.
         12    1    3    3    0    0 -0.26455186159E+02  0.21016864627E+02 -0.14635397746E+02  0.36820922593E+02  0.00000000000E+00 0. -1.
         11    1    4    4    0    0  0.28815978705E+02 -0.20901987877E+02  0.51462250098E+01  0.35968560689E+02  0.51100000000E-03 0. -1.
        -11    1    4    4    0    0 -0.62934825103E+01 -0.23661748213E+01  0.11593633733E+02  0.13402203132E+02  0.51100000000E-03 0.  1.
         12    1    4    4    0    0  0.39326899638E+01  0.22512980714E+01 -0.21044609969E+01  0.49963135855E+01  0.00000000000E+00 0. -1.
</event>
<event>
 8    1  0.1244838E-006  0.9118800E+02  0.7816164E-02  0.1184000E+00
        -11   -1    0    0    0    0  0.00000000000E+00  0.00000000000E+00  0.45593999997E+02  0.45594000000E+02  0.51100000000E-03 0.  1.
         11   -1    0    0    0    0 -0.00000000000E+00 -0.00000000000E+00 -0.45593999997E+02  0.45594000000E+02  0.51100000000E-03 0. -1.
         23    2    1    2    0    0 -0.17763568394E-14  0.00000000000E+00  0.00000000000E+00  0.91188000000E+02  0.91188000000E+02 0.  0.
    9900012    2    3    3    0    0 -0.12553485037E+02  0.31753128690E+02 -0.13781457016E+02  0.54367085757E+02  0.40000003601E+02 0.  0.
        -12    1    3    3    0    0  0.12553485037E+02 -0.31753128690E+02  0.13781457016E+02  0.36820914243E+02  0.00000000000E+00 0.  1.
         11    1    4    4    0    0  0.39325998323E+01 -0.14924032366E+00 -0.77663161997E+01  0.87065080078E+01  0.51100000000E-03 0. -1.
        -11    1    4    4    0    0 -0.20412255750E+02  0.34826164267E+02 -0.53875139266E+01  0.40725264996E+02  0.51100000000E-03 0.  1.
        -12    1    4    4    0    0  0.39261708804E+01 -0.29237952534E+01 -0.62762688916E+00  0.49353127538E+01  0.00000000000E+00 0.  1.
</event>
<event>
 8    1  0.1244838E-006  0.9118800E+02  0.7816164E-02  0.1184000E+00
        -11   -1    0    0    0    0  0.00000000000E+00  0.00000000000E+00  0.45593999997E+02  0.45594000000E+02  0.51100000000E-03 0.  1.
         11   -1    0    0    0    0 -0.00000000000E+00 -0.00000000000E+00 -0.45593999997E+02  0.45594000000E+02  0.51100000000E-03 0. -1.
         23    2    1    2    0    0  0.33306690739E-15  0.00000000000E+00  0.00000000000E+00  0.91188000000E+02  0.91188000000E+02 0.  0.
    9900012    2    3    3    0    0 -0.33606141512E+00  0.22396152029E+02 -0.29224639747E+02  0.54367080249E+02  0.39999991044E+02 0.  0.
        -12    1    3    3    0    0  0.33606141512E+00 -0.22396152029E+02  0.29224639747E+02  0.36820919751E+02  0.00000000000E+00 0.  1.
         11    1    4    4    0    0  0.42324905429E+01 -0.18866924358E+01 -0.48784779514E+01  0.67285311864E+01  0.51100000000E-03 0. -1.
        -11    1    4    4    0    0  0.49097933338E+01  0.12700432045E+02 -0.28939802100E+02  0.31983107894E+02  0.51100000000E-03 0.  1.
         12    1    4    4    0    0 -0.94783452918E+01  0.11582412420E+02  0.45936403049E+01  0.15655441169E+02  0.00000000000E+00 0. -1.
</event>
<event>
 8    1  0.1244838E-006  0.9118800E+02  0.7816164E-02  0.1184000E+00
        -11   -1    0    0    0    0  0.00000000000E+00  0.00000000000E+00  0.45593999997E+02  0.45594000000E+02  0.51100000000E-03 0.  1.
         11   -1    0    0    0    0 -0.00000000000E+00 -0.00000000000E+00 -0.45593999997E+02  0.45594000000E+02  0.51100000000E-03 0. -1.
         23    2    1    2    0    0  0.00000000000E+00 -0.44408920985E-15  0.00000000000E+00  0.91188000000E+02  0.91188000000E+02 0.  0.
    9900012    2    3    3    0    0 -0.66586163027E+01 -0.27974965154E+01  0.36105642499E+02  0.54367074182E+02  0.39999977212E+02 0.  0.
         12    1    3    3    0    0  0.66586163027E+01  0.27974965154E+01 -0.36105642499E+02  0.36820925818E+02  0.00000000000E+00 0. -1.
         11    1    4    4    0    0 -0.40597778039E+01  0.73023492660E+01  0.60909894312E+01  0.10339548014E+02  0.51100000000E-03 0. -1.
        -11    1    4    4    0    0 -0.26925884111E+01  0.63435679078E+01 -0.27089930208E+01  0.74046964556E+01  0.51100000000E-03 0.  1.
        -12    1    4    4    0    0  0.93749912186E-01 -0.16443413689E+02  0.32723646089E+02  0.36622829712E+02  0.00000000000E+00 0.  1.
</event>
<event>
 8    1  0.1244838E-006  0.9118800E+02  0.7816164E-02  0.1184000E+00
        -11   -1    0    0    0    0  0.00000000000E+00  0.00000000000E+00  0.45593999997E+02  0.45594000000E+02  0.51100000000E-03 0.  1.
         11   -1    0    0    0    0 -0.00000000000E+00 -0.00000000000E+00 -0.45593999997E+02  0.45594000000E+02  0.51100000000E-03 0. -1.
         23    2    1    2    0    0  0.00000000000E+00  0.71054273576E-14 -0.88817841970E-15  0.91188000000E+02  0.91188000000E+02 0.  0.
    9900012    2    3    3    0    0  0.17280253820E+02  0.32241894602E+02 -0.41991591481E+01  0.54367083700E+02  0.39999998911E+02 0.  0.
         12    1    3    3    0    0 -0.17280253820E+02 -0.32241894602E+02  0.41991591481E+01  0.36820916300E+02  0.00000000000E+00 0. -1.
         11    1    4    4    0    0  0.50096648480E+01  0.28752367088E+00  0.32509267704E+01  0.59789578421E+01  0.51100000000E-03 0. -1.
        -11    1    4    4    0    0  0.59789268258E+01  0.34822536886E+02  0.34284647177E+01  0.35498042365E+02  0.51100000000E-03 0.  1.
         12    1    4    4    0    0  0.62916621459E+01 -0.28681659548E+01 -0.10878550636E+02  0.12890083493E+02  0.00000000000E+00 0. -1.
</event>
<event>
 8    1  0.1244838E-006  0.9118800E+02  0.7816164E-02  0.1184000E+00
        -11   -1    0    0    0    0  0.00000000000E+00  0.00000000000E+00  0.45593999997E+02  0.45594000000E+02  0.51100000000E-03 0. -1.
         11   -1    0    0    0    0 -0.00000000000E+00 -0.00000000000E+00 -0.45593999997E+02  0.45594000000E+02  0.51100000000E-03 0.  1.
         23    2    1    2    0    0  0.00000000000E+00 -0.88817841970E-15  0.00000000000E+00  0.91188000000E+02  0.91188000000E+02 0.  0.
    9900012    2    3    3    0    0 -0.17808047144E+02  0.30052282313E+01 -0.32087730799E+02  0.54367076497E+02  0.39999982490E+02 0.  0.
         12    1    3    3    0    0  0.17808047144E+02 -0.30052282313E+01  0.32087730799E+02  0.36820923503E+02  0.00000000000E+00 0. -1.
         11    1    4    4    0    0 -0.54669911674E+01 -0.67886797950E+01 -0.75739870903E+01  0.11547270088E+02  0.51100000000E-03 0. -1.
        -11    1    4    4    0    0 -0.78918750997E+01  0.19593186451E+02 -0.24104532156E+02  0.32050009651E+02  0.51100000000E-03 0.  1.
        -12    1    4    4    0    0 -0.44491808767E+01 -0.97992784243E+01 -0.40921155256E+00  0.10769796758E+02  0.00000000000E+00 0.  1.
</event>
<event>
 8    1  0.1244838E-006  0.9118800E+02  0.7816164E-02  0.1184000E+00
        -11   -1    0    0    0    0  0.00000000000E+00  0.00000000000E+00  0.45593999997E+02  0.45594000000E+02  0.51100000000E-03 0.  1.
         11   -1    0    0    0    0 -0.00000000000E+00 -0.00000000000E+00 -0.45593999997E+02  0.45594000000E+02  0.51100000000E-03 0. -1.
         23    2    1    2    0    0  0.00000000000E+00  0.00000000000E+00 -0.66613381478E-15  0.91188000000E+02  0.91188000000E+02 0.  0.
    9900012    2    3    3    0    0  0.17683768929E+02  0.32280732398E+02 -0.10091429887E+01  0.54367085600E+02  0.40000003242E+02 0.  0.
        -12    1    3    3    0    0 -0.17683768929E+02 -0.32280732398E+02  0.10091429887E+01  0.36820914400E+02  0.00000000000E+00 0.  1.
         11    1    4    4    0    0 -0.71797746088E-01  0.44790488480E+01 -0.66701771642E+01  0.80348178051E+01  0.51100000000E-03 0. -1.
        -11    1    4    4    0    0 -0.42003393492E+01 -0.81145245700E-01  0.97415444321E+01  0.10608822903E+02  0.51100000000E-03 0.  1.
        -12    1    4    4    0    0  0.21955906024E+02  0.27882828796E+02 -0.40805102565E+01  0.35723444892E+02  0.00000000000E+00 0.  1.
</event>
<event>
 8    1  0.1244838E-006  0.9118800E+02  0.7816164E-02  0.1184000E+00
        -11   -1    0    0    0    0  0.00000000000E+00  0.00000000000E+00  0.45593999997E+02  0.45594000000E+02  0.51100000000E-03 0. -1.
         11   -1    0    0    0    0 -0.00000000000E+00 -0.00000000000E+00 -0.45593999997E+02  0.45594000000E+02  0.51100000000E-03 0.  1.
         23    2    1    2    0    0  0.00000000000E+00  0.00000000000E+00  0.00000000000E+00  0.91188000000E+02  0.91188000000E+02 0.  0.
    9900012    2    3    3    0    0 -0.21218031419E+02  0.14795857476E+02 -0.26204195310E+02  0.54367053412E+02  0.39999929864E+02 0.  0.
        -12    1    3    3    0    0  0.21218031419E+02 -0.14795857476E+02  0.26204195310E+02  0.36820946588E+02  0.00000000000E+00 0.  1.
         11    1    4    4    0    0 -0.14523392607E+01 -0.11927694259E+01  0.22057327546E+01  0.28978001100E+01  0.51100000000E-03 0. -1.
        -11    1    4    4    0    0  0.14339455802E+01  0.21507139641E+01  0.72725270521E+01  0.77182524231E+01  0.51100000000E-03 0.  1.
        -12    1    4    4    0    0 -0.21199637739E+02  0.13837912938E+02 -0.35682455117E+02  0.43751000879E+02  0.00000000000E+00 0.  1.
</event>
<event>
 8    1  0.1244838E-006  0.9118800E+02  0.7816164E-02  0.1184000E+00
        -11   -1    0    0    0    0  0.00000000000E+00  0.00000000000E+00  0.45593999997E+02  0.45594000000E+02  0.51100000000E-03 0.  1.
         11   -1    0    0    0    0 -0.00000000000E+00 -0.00000000000E+00 -0.45593999997E+02  0.45594000000E+02  0.51100000000E-03 0. -1.
         23    2    1    2    0    0  0.88817841970E-15  0.00000000000E+00  0.35527136788E-14  0.91188000000E+02  0.91188000000E+02 0.  0.
    9900012    2    3    3    0    0 -0.69271508500E+01  0.24889594154E+02 -0.26235525969E+02  0.54367080146E+02  0.39999990809E+02 0.  0.
        -12    1    3    3    0    0  0.69271508500E+01 -0.24889594154E+02  0.26235525969E+02  0.36820919854E+02  0.00000000000E+00 0.  1.
         11    1    4    4    0    0 -0.11532617739E+02  0.68500927685E+01 -0.76798203099E+01  0.15456541757E+02  0.51100000000E-03 0. -1.
        -11    1    4    4    0    0 -0.24520434255E+00  0.52692105745E+01 -0.23725269120E+02  0.24304590108E+02  0.51100000000E-03 0.  1.
        -12    1    4    4    0    0  0.48506712314E+01  0.12770290811E+02  0.51695634615E+01  0.14605948280E+02  0.00000000000E+00 0.  1.
</event>
<event>
 8    1  0.1244838E-006  0.9118800E+02  0.7816164E-02  0.1184000E+00
        -11   -1    0    0    0    0  0.00000000000E+00  0.00000000000E+00  0.45593999997E+02  0.45594000000E+02  0.51100000000E-03 0. -1.
         11   -1    0    0    0    0 -0.00000000000E+00 -0.00000000000E+00 -0.45593999997E+02  0.45594000000E+02  0.51100000000E-03 0.  1.
         23    2    1    2    0    0  0.17763568394E-14  0.00000000000E+00  0.00000000000E+00  0.91188000000E+02  0.91188000000E+02 0.  0.
    9900012    2    3    3    0    0 -0.11637460849E+02  0.34804897224E+02  0.29947997720E+01  0.54367079432E+02  0.39999989182E+02 0.  0.
         12    1    3    3    0    0  0.11637460849E+02 -0.34804897224E+02 -0.29947997720E+01  0.36820920568E+02  0.00000000000E+00 0. -1.
         11    1    4    4    0    0  0.63984742679E+01  0.18392969998E+01  0.53778928030E+01  0.85583419932E+01  0.51100000000E-03 0. -1.
        -11    1    4    4    0    0 -0.49521947955E+00  0.21938545324E+00  0.73793072511E+01  0.73991586060E+01  0.51100000000E-03 0.  1.
        -12    1    4    4    0    0 -0.17540715637E+02  0.32746214771E+02 -0.97624002820E+01  0.38409578833E+02  0.00000000000E+00 0.  1.
</event>
<event>
 8    1  0.1244838E-006  0.9118800E+02  0.7816164E-02  0.1184000E+00
        -11   -1    0    0    0    0  0.00000000000E+00  0.00000000000E+00  0.45593999997E+02  0.45594000000E+02  0.51100000000E-03 0. -1.
         11   -1    0    0    0    0 -0.00000000000E+00 -0.00000000000E+00 -0.45593999997E+02  0.45594000000E+02  0.51100000000E-03 0.  1.
         23    2    1    2    0    0  0.00000000000E+00 -0.88817841970E-15  0.35527136788E-14  0.91188000000E+02  0.91188000000E+02 0.  0.
    9900012    2    3    3    0    0  0.28204091242E+02  0.57129799312E+01 -0.22971060454E+02  0.54367102118E+02  0.40000040898E+02 0.  0.
         12    1    3    3    0    0 -0.28204091242E+02 -0.57129799312E+01  0.22971060454E+02  0.36820897882E+02  0.00000000000E+00 0. -1.
         11    1    4    4    0    0  0.15872846333E+02  0.10550110755E+02 -0.11308064511E+02  0.22161326921E+02  0.51100000000E-03 0.  1.
        -11    1    4    4    0    0  0.15862939957E+02 -0.54231708452E+01  0.30708041886E+01  0.17043282686E+02  0.51100000000E-03 0. -1.
         12    1    4    4    0    0 -0.35316950483E+01  0.58604002142E+00 -0.14733800131E+02  0.15162492510E+02  0.00000000000E+00 0. -1.
</event>
<event>
 8    1  0.1244838E-006  0.9118800E+02  0.7816164E-02  0.1184000E+00
        -11   -1    0    0    0    0  0.00000000000E+00  0.00000000000E+00  0.45593999997E+02  0.45594000000E+02  0.51100000000E-03 0. -1.
         11   -1    0    0    0    0 -0.00000000000E+00 -0.00000000000E+00 -0.45593999997E+02  0.45594000000E+02  0.51100000000E-03 0.  1.
         23    2    1    2    0    0  0.00000000000E+00  0.13322676296E-14 -0.66613381478E-15  0.91188000000E+02  0.91188000000E+02 0.  0.
    9900012    2    3    3    0    0  0.36613179836E+02  0.35841260123E+01  0.15516537976E+01  0.54367102041E+02  0.40000040724E+02 0.  0.
        -12    1    3    3    0    0 -0.36613179836E+02 -0.35841260123E+01 -0.15516537976E+01  0.36820897959E+02  0.00000000000E+00 0.  1.
         11    1    4    4    0    0  0.59101208980E+01  0.80024292326E+01  0.89495663534E+01  0.13381447636E+02  0.51100000000E-03 0. -1.
        -11    1    4    4    0    0  0.14170733706E+02 -0.33963124946E+01  0.94429207015E+01  0.17364140749E+02  0.51100000000E-03 0.  1.
        -12    1    4    4    0    0  0.16532325232E+02 -0.10219907257E+01 -0.16840833257E+02  0.23621513656E+02  0.00000000000E+00 0.  1.
</event>
<event>
 8    1  0.1244838E-006  0.9118800E+02  0.7816164E-02  0.1184000E+00
        -11   -1    0    0    0    0  0.00000000000E+00  0.00000000000E+00  0.45593999997E+02  0.45594000000E+02  0.51100000000E-03 0. -1.
         11   -1    0    0    0    0 -0.00000000000E+00 -0.00000000000E+00 -0.45593999997E+02  0.45594000000E+02  0.51100000000E-03 0.  1.
         23    2    1    2    0    0  0.00000000000E+00  0.00000000000E+00 -0.88817841970E-15  0.91188000000E+02  0.91188000000E+02 0.  0.
    9900012    2    3    3    0    0  0.26154138054E+02 -0.25853107569E+02  0.18327358300E+01  0.54367068060E+02  0.39999963257E+02 0.  0.
        -12    1    3    3    0    0 -0.26154138054E+02  0.25853107569E+02 -0.18327358300E+01  0.36820931940E+02  0.00000000000E+00 0.  1.
         11    1    4    4    0    0  0.18240505919E+02 -0.85360424429E+01  0.17562316005E+02  0.26721059494E+02  0.51100000000E-03 0. -1.
        -11    1    4    4    0    0 -0.72560867697E+00  0.66119299337E+00 -0.48044141079E+01  0.49036801800E+01  0.51100000000E-03 0.  1.
         12    1    4    4    0    0  0.86392408120E+01 -0.17978258119E+02 -0.10925166068E+02  0.22742328386E+02  0.00000000000E+00 0. -1.
</event>
<event>
 8    1  0.1244838E-006  0.9118800E+02  0.7816164E-02  0.1184000E+00
        -11   -1    0    0    0    0  0.00000000000E+00  0.00000000000E+00  0.45593999997E+02  0.45594000000E+02  0.51100000000E-03 0.  1.
         11   -1    0    0    0    0 -0.00000000000E+00 -0.00000000000E+00 -0.45593999997E+02  0.45594000000E+02  0.51100000000E-03 0. -1.
         23    2    1    2    0    0  0.17763568394E-14  0.00000000000E+00  0.35527136788E-14  0.91188000000E+02  0.91188000000E+02 0.  0.
    9900012    2    3    3    0    0 -0.12800365111E+02  0.14057874526E+02 -0.31532618351E+02  0.54367092851E+02  0.40000019773E+02 0.  0.
        -12    1    3    3    0    0  0.12800365111E+02 -0.14057874526E+02  0.31532618351E+02  0.36820907149E+02  0.00000000000E+00 0.  1.
         11    1    4    4    0    0  0.43233839387E+00  0.11929473479E+02 -0.17519586503E+02  0.21199885978E+02  0.51100000000E-03 0. -1.
        -11    1    4    4    0    0 -0.16499321058E+02  0.86962397184E+01 -0.17010552067E+02  0.25243039882E+02  0.51100000000E-03 0.  1.
        -12    1    4    4    0    0  0.32666175531E+01 -0.65678386715E+01  0.29975202183E+01  0.79241669917E+01  0.00000000000E+00 0.  1.
</event>
<event>
 8    1  0.1244838E-006  0.9118800E+02  0.7816164E-02  0.1184000E+00
        -11   -1    0    0    0    0  0.00000000000E+00  0.00000000000E+00  0.45593999997E+02  0.45594000000E+02  0.51100000000E-03 0. -1.
         11   -1    0    0    0    0 -0.00000000000E+00 -0.00000000000E+00 -0.45593999997E+02  0.45594000000E+02  0.51100000000E-03 0.  1.
         23    2    1    2    0    0 -0.35527136788E-14  0.00000000000E+00  0.00000000000E+00  0.91188000000E+02  0.91188000000E+02 0.  0.
    9900012    2    3    3    0    0 -0.22788103162E+02 -0.27593795749E+02  0.86639604428E+01  0.54367089906E+02  0.40000013059E+02 0.  0.
        -12    1    3    3    0    0  0.22788103162E+02  0.27593795749E+02 -0.86639604428E+01  0.36820910094E+02  0.00000000000E+00 0.  1.
         11    1    4    4    0    0 -0.82819406057E+01 -0.28141391459E+01 -0.92169600357E+01  0.12706780548E+02  0.51100000000E-03 0. -1.
        -11    1    4    4    0    0 -0.14600077926E+01 -0.53104292142E+01  0.17366110473E+02  0.18218509116E+02  0.51100000000E-03 0.  1.
        -12    1    4    4    0    0 -0.13046154764E+02 -0.19469227389E+02  0.51481000527E+00  0.23441800242E+02  0.00000000000E+00 0.  1.
</event>
<event>
 8    1  0.1244838E-006  0.9118800E+02  0.7816164E-02  0.1184000E+00
        -11   -1    0    0    0    0  0.00000000000E+00  0.00000000000E+00  0.45593999997E+02  0.45594000000E+02  0.51100000000E-03 0.  1.
         11   -1    0    0    0    0 -0.00000000000E+00 -0.00000000000E+00 -0.45593999997E+02  0.45594000000E+02  0.51100000000E-03 0. -1.
         23    2    1    2    0    0  0.00000000000E+00  0.00000000000E+00  0.00000000000E+00  0.91188000000E+02  0.91188000000E+02 0.  0.
    9900012    2    3    3    0    0  0.24144094239E+02  0.32556708862E+01 -0.27608745672E+02  0.54367088589E+02  0.40000010055E+02 0.  0.
        -12    1    3    3    0    0 -0.24144094239E+02 -0.32556708862E+01  0.27608745672E+02  0.36820911411E+02  0.00000000000E+00 0.  1.
         11    1    4    4    0    0  0.10179370488E+02 -0.35191933653E+01 -0.33371239084E+01  0.11275668571E+02  0.51100000000E-03 0.  1.
        -11    1    4    4    0    0  0.18501051615E+02  0.12137677754E+02 -0.27553471208E+02  0.35338448013E+02  0.51100000000E-03 0. -1.
         12    1    4    4    0    0 -0.45363278632E+01 -0.53628135020E+01  0.32818494438E+01  0.77529720050E+01  0.00000000000E+00 0. -1.
</event>
<event>
 8    1  0.1244838E-006  0.9118800E+02  0.7816164E-02  0.1184000E+00
        -11   -1    0    0    0    0  0.00000000000E+00  0.00000000000E+00  0.45593999997E+02  0.45594000000E+02  0.51100000000E-03 0.  1.
         11   -1    0    0    0    0 -0.00000000000E+00 -0.00000000000E+00 -0.45593999997E+02  0.45594000000E+02  0.51100000000E-03 0. -1.
         23    2    1    2    0    0  0.00000000000E+00  0.00000000000E+00  0.00000000000E+00  0.91188000000E+02  0.91188000000E+02 0.  0.
    9900012    2    3    3    0    0  0.30570358180E+02  0.16948217166E+02 -0.11575324051E+02  0.54367122888E+02  0.40000088249E+02 0.  0.
        -12    1    3    3    0    0 -0.30570358180E+02 -0.16948217166E+02  0.11575324051E+02  0.36820877112E+02  0.00000000000E+00 0.  1.
         11    1    4    4    0    0 -0.12262964010E+01  0.65721627519E+01  0.60608730665E+01  0.90239297809E+01  0.51100000000E-03 0.  1.
        -11    1    4    4    0    0  0.25573696395E+02 -0.64476682493E+00 -0.26364970440E+01  0.25717324676E+02  0.51100000000E-03 0. -1.
        -12    1    4    4    0    0  0.62229581857E+01  0.11020821239E+02 -0.14999700074E+02  0.19625868431E+02  0.00000000000E+00 0.  1.
</event>
<event>
 8    1  0.1244838E-006  0.9118800E+02  0.7816164E-02  0.1184000E+00
        -11   -1    0    0    0    0  0.00000000000E+00  0.00000000000E+00  0.45593999997E+02  0.45594000000E+02  0.51100000000E-03 0. -1.
         11   -1    0    0    0    0 -0.00000000000E+00 -0.00000000000E+00 -0.45593999997E+02  0.45594000000E+02  0.51100000000E-03 0.  1.
         23    2    1    2    0    0  0.00000000000E+00  0.00000000000E+00  0.00000000000E+00  0.91188000000E+02  0.91188000000E+02 0.  0.
    9900012    2    3    3    0    0 -0.23428556272E+02  0.21348803436E+02  0.18737974117E+02  0.54367077535E+02  0.39999984858E+02 0.  0.
        -12    1    3    3    0    0  0.23428556272E+02 -0.21348803436E+02 -0.18737974117E+02  0.36820922465E+02  0.00000000000E+00 0.  1.
         11    1    4    4    0    0 -0.60721770626E+01  0.24856991352E+01  0.75586526102E+01  0.10009159006E+02  0.51100000000E-03 0. -1.
        -11    1    4    4    0    0 -0.21681070618E+02 -0.10214568411E+01  0.10206940465E+02  0.23985283636E+02  0.51100000000E-03 0.  1.
         12    1    4    4    0    0  0.43246914084E+01  0.19884561142E+02  0.97238104229E+00  0.20372634893E+02  0.00000000000E+00 0. -1.
</event>
<event>
 8    1  0.1244838E-006  0.9118800E+02  0.7816164E-02  0.1184000E+00
        -11   -1    0    0    0    0  0.00000000000E+00  0.00000000000E+00  0.45593999997E+02  0.45594000000E+02  0.51100000000E-03 0. -1.
         11   -1    0    0    0    0 -0.00000000000E+00 -0.00000000000E+00 -0.45593999997E+02  0.45594000000E+02  0.51100000000E-03 0.  1.
         23    2    1    2    0    0  0.00000000000E+00 -0.17763568394E-14  0.00000000000E+00  0.91188000000E+02  0.91188000000E+02 0.  0.
    9900012    2    3    3    0    0  0.14686627673E+02  0.15178534901E+02  0.30161155499E+02  0.54367078567E+02  0.39999987209E+02 0.  0.
        -12    1    3    3    0    0 -0.14686627673E+02 -0.15178534901E+02 -0.30161155499E+02  0.36820921433E+02  0.00000000000E+00 0.  1.
         11    1    4    4    0    0  0.69827405841E+01  0.58535186246E+01  0.21959525966E+02  0.23774842318E+02  0.51100000000E-03 0. -1.
        -11    1    4    4    0    0 -0.33871742105E+01 -0.52091687098E+01  0.10464391930E+02  0.12170122699E+02  0.51100000000E-03 0.  1.
        -12    1    4    4    0    0  0.11091061300E+02  0.14534184986E+02 -0.22627623974E+01  0.18422113550E+02  0.00000000000E+00 0.  1.
</event>
<event>
 8    1  0.1244838E-006  0.9118800E+02  0.7816164E-02  0.1184000E+00
        -11   -1    0    0    0    0  0.00000000000E+00  0.00000000000E+00  0.45593999997E+02  0.45594000000E+02  0.51100000000E-03 0. -1.
         11   -1    0    0    0    0 -0.00000000000E+00 -0.00000000000E+00 -0.45593999997E+02  0.45594000000E+02  0.51100000000E-03 0.  1.
         23    2    1    2    0    0  0.00000000000E+00  0.00000000000E+00  0.35527136788E-14  0.91188000000E+02  0.91188000000E+02 0.  0.
    9900012    2    3    3    0    0 -0.11143397847E+02  0.19706256171E+02 -0.29039123645E+02  0.54367047406E+02  0.39999916172E+02 0.  0.
         12    1    3    3    0    0  0.11143397847E+02 -0.19706256171E+02  0.29039123645E+02  0.36820952594E+02  0.00000000000E+00 0. -1.
         11    1    4    4    0    0 -0.69388406340E+01  0.74907287308E+01 -0.48815381669E+00  0.10222368643E+02  0.51100000000E-03 0. -1.
        -11    1    4    4    0    0 -0.17386158871E+02  0.96724045638E+01 -0.20099834779E+02  0.28281394745E+02  0.51100000000E-03 0.  1.
         12    1    4    4    0    0  0.13181601658E+02  0.25431228759E+01 -0.84511350489E+01  0.15863284018E+02  0.00000000000E+00 0. -1.
</event>
<event>
 8    1  0.1244838E-006  0.9118800E+02  0.7816164E-02  0.1184000E+00
        -11   -1    0    0    0    0  0.00000000000E+00  0.00000000000E+00  0.45593999997E+02  0.45594000000E+02  0.51100000000E-03 0.  1.
         11   -1    0    0    0    0 -0.00000000000E+00 -0.00000000000E+00 -0.45593999997E+02  0.45594000000E+02  0.51100000000E-03 0. -1.
         23    2    1    2    0    0  0.13322676296E-14  0.00000000000E+00 -0.71054273576E-14  0.91188000000E+02  0.91188000000E+02 0.  0.
    9900012    2    3    3    0    0 -0.14311100402E+01  0.17983834247E+02 -0.32098497621E+02  0.54367083122E+02  0.39999997594E+02 0.  0.
        -12    1    3    3    0    0  0.14311100402E+01 -0.17983834247E+02  0.32098497621E+02  0.36820916878E+02  0.00000000000E+00 0.  1.
         11    1    4    4    0    0 -0.36214622543E+01 -0.17508083935E+01  0.16655941115E+01  0.43536792367E+01  0.51100000000E-03 0. -1.
        -11    1    4    4    0    0  0.13616076640E+02  0.34602567896E+00 -0.79664433605E+01  0.15779147535E+02  0.51100000000E-03 0.  1.
         12    1    4    4    0    0 -0.11425724426E+02  0.19388616961E+02 -0.25797648372E+02  0.34234256351E+02  0.00000000000E+00 0. -1.
</event>
<event>
 8    1  0.1244838E-006  0.9118800E+02  0.7816164E-02  0.1184000E+00
        -11   -1    0    0    0    0  0.00000000000E+00  0.00000000000E+00  0.45593999997E+02  0.45594000000E+02  0.51100000000E-03 0.  1.
         11   -1    0    0    0    0 -0.00000000000E+00 -0.00000000000E+00 -0.45593999997E+02  0.45594000000E+02  0.51100000000E-03 0. -1.
         23    2    1    2    0    0  0.88817841970E-15  0.44408920985E-15  0.00000000000E+00  0.91188000000E+02  0.91188000000E+02 0.  0.
    9900012    2    3    3    0    0  0.72804421240E+01  0.34585240060E+01  0.35927895170E+02  0.54367083700E+02  0.39999998911E+02 0.  0.
         12    1    3    3    0    0 -0.72804421240E+01 -0.34585240060E+01 -0.35927895170E+02  0.36820916300E+02  0.00000000000E+00 0. -1.
         11    1    4    4    0    0  0.54753970752E+01  0.23976497495E+01  0.27197564330E+02  0.27846655153E+02  0.51100000000E-03 0. -1.
        -11    1    4    4    0    0  0.31559569088E+01 -0.94685006812E+01  0.11814376275E+02  0.15465835128E+02  0.51100000000E-03 0.  1.
         12    1    4    4    0    0 -0.13509118600E+01  0.10529374938E+02 -0.30840454353E+01  0.11054593420E+02  0.00000000000E+00 0. -1.
</event>
<event>
 8    1  0.1244838E-006  0.9118800E+02  0.7816164E-02  0.1184000E+00
        -11   -1    0    0    0    0  0.00000000000E+00  0.00000000000E+00  0.45593999997E+02  0.45594000000E+02  0.51100000000E-03 0.  1.
         11   -1    0    0    0    0 -0.00000000000E+00 -0.00000000000E+00 -0.45593999997E+02  0.45594000000E+02  0.51100000000E-03 0. -1.
         23    2    1    2    0    0  0.00000000000E+00  0.00000000000E+00  0.35527136788E-14  0.91188000000E+02  0.91188000000E+02 0.  0.
    9900012    2    3    3    0    0 -0.97159622493E+01 -0.28619709047E+02  0.21030737683E+02  0.54367087520E+02  0.40000007620E+02 0.  0.
         12    1    3    3    0    0  0.97159622493E+01  0.28619709047E+02 -0.21030737683E+02  0.36820912480E+02  0.00000000000E+00 0. -1.
         11    1    4    4    0    0  0.47368950083E+01  0.14673298216E+01 -0.60802798078E+00  0.49960914134E+01  0.51100000000E-03 0. -1.
        -11    1    4    4    0    0 -0.16517194653E+02 -0.11623139915E+02 -0.83233487125E+00  0.20214051605E+02  0.51100000000E-03 0.  1.
        -12    1    4    4    0    0  0.20643373951E+01 -0.18463898953E+02  0.22471100535E+02  0.29156944502E+02  0.00000000000E+00 0.  1.
</event>
<event>
 8    1  0.1244838E-006  0.9118800E+02  0.7816164E-02  0.1184000E+00
        -11   -1    0    0    0    0  0.00000000000E+00  0.00000000000E+00  0.45593999997E+02  0.45594000000E+02  0.51100000000E-03 0. -1.
         11   -1    0    0    0    0 -0.00000000000E+00 -0.00000000000E+00 -0.45593999997E+02  0.45594000000E+02  0.51100000000E-03 0.  1.
         23    2    1    2    0    0  0.00000000000E+00  0.00000000000E+00  0.00000000000E+00  0.91188000000E+02  0.91188000000E+02 0.  0.
    9900012    2    3    3    0    0 -0.13782467900E+02  0.16553268600E+02 -0.29863223742E+02  0.54367092149E+02  0.40000018171E+02 0.  0.
         12    1    3    3    0    0  0.13782467900E+02 -0.16553268600E+02  0.29863223742E+02  0.36820907851E+02  0.00000000000E+00 0. -1.
         11    1    4    4    0    0 -0.33838325433E+01 -0.11196499578E+02 -0.81633160675E+01  0.14263648024E+02  0.51100000000E-03 0. -1.
        -11    1    4    4    0    0 -0.91816180418E+01  0.14139007104E+02 -0.20268914491E+02  0.26363659204E+02  0.51100000000E-03 0.  1.
        -12    1    4    4    0    0 -0.12170173146E+01  0.13610761074E+02 -0.14309931836E+01  0.13739784920E+02  0.00000000000E+00 0.  1.
</event>
<event>
 8    1  0.1244838E-006  0.9118800E+02  0.7816164E-02  0.1184000E+00
        -11   -1    0    0    0    0  0.00000000000E+00  0.00000000000E+00  0.45593999997E+02  0.45594000000E+02  0.51100000000E-03 0. -1.
         11   -1    0    0    0    0 -0.00000000000E+00 -0.00000000000E+00 -0.45593999997E+02  0.45594000000E+02  0.51100000000E-03 0.  1.
         23    2    1    2    0    0  0.00000000000E+00 -0.35527136788E-14  0.00000000000E+00  0.91188000000E+02  0.91188000000E+02 0.  0.
    9900012    2    3    3    0    0 -0.29068756707E+02  0.15141947476E+02  0.16778181877E+02  0.54367101356E+02  0.40000039161E+02 0.  0.
         12    1    3    3    0    0  0.29068756707E+02 -0.15141947476E+02 -0.16778181877E+02  0.36820898644E+02  0.00000000000E+00 0. -1.
         11    1    4    4    0    0  0.62438484467E+00  0.13947904945E+02 -0.50745864665E+00  0.13971092417E+02  0.51100000000E-03 0. -1.
        -11    1    4    4    0    0 -0.22025695814E+02  0.10537478378E+02  0.11174558123E+02  0.26852196859E+02  0.51100000000E-03 0.  1.
        -12    1    4    4    0    0 -0.76674457385E+01 -0.93434358462E+01  0.61110824004E+01  0.13543812080E+02  0.00000000000E+00 0.  1.
</event>
<event>
 8    1  0.1244838E-006  0.9118800E+02  0.7816164E-02  0.1184000E+00
        -11   -1    0    0    0    0  0.00000000000E+00  0.00000000000E+00  0.45593999997E+02  0.45594000000E+02  0.51100000000E-03 0.  1.
         11   -1    0    0    0    0 -0.00000000000E+00 -0.00000000000E+00 -0.45593999997E+02  0.45594000000E+02  0.51100000000E-03 0. -1.
         23    2    1    2    0    0 -0.17763568394E-14  0.00000000000E+00 -0.71054273576E-14  0.91188000000E+02  0.91188000000E+02 0.  0.
    9900012    2    3    3    0    0  0.11629849759E+02  0.72670960108E+01 -0.34171869650E+02  0.54367071641E+02  0.39999971420E+02 0.  0.
        -12    1    3    3    0    0 -0.11629849759E+02 -0.72670960108E+01  0.34171869650E+02  0.36820928359E+02  0.00000000000E+00 0.  1.
         11    1    4    4    0    0  0.15026215399E+02 -0.17160988996E-01 -0.12727907989E+02  0.19692310320E+02  0.51100000000E-03 0. -1.
        -11    1    4    4    0    0  0.10693472012E+02  0.65607447893E+01 -0.13716969998E+02  0.18588947847E+02  0.51100000000E-03 0.  1.
        -12    1    4    4    0    0 -0.14089837651E+02  0.72351221057E+00 -0.77269916631E+01  0.16085813474E+02  0.00000000000E+00 0.  1.
</event>
<event>
 8    1  0.1244838E-006  0.9118800E+02  0.7816164E-02  0.1184000E+00
        -11   -1    0    0    0    0  0.00000000000E+00  0.00000000000E+00  0.45593999997E+02  0.45594000000E+02  0.51100000000E-03 0.  1.
         11   -1    0    0    0    0 -0.00000000000E+00 -0.00000000000E+00 -0.45593999997E+02  0.45594000000E+02  0.51100000000E-03 0. -1.
         23    2    1    2    0    0  0.00000000000E+00  0.00000000000E+00 -0.52735593670E-15  0.91188000000E+02  0.91188000000E+02 0.  0.
    9900012    2    3    3    0    0  0.27204522191E+02 -0.24813028839E+02  0.76045471132E-01  0.54367106329E+02  0.40000050499E+02 0.  0.
        -12    1    3    3    0    0 -0.27204522191E+02  0.24813028839E+02 -0.76045471132E-01  0.36820893671E+02  0.00000000000E+00 0.  1.
         11    1    4    4    0    0  0.20414526493E+02 -0.23077393129E+02  0.20069423871E+01  0.30876314281E+02  0.51100000000E-03 0. -1.
        -11    1    4    4    0    0  0.11491841059E+02  0.43434637920E+01  0.48827432542E+01  0.13220032927E+02  0.51100000000E-03 0.  1.
        -12    1    4    4    0    0 -0.47018453616E+01 -0.60790995015E+01 -0.68136401702E+01  0.10270759121E+02  0.00000000000E+00 0.  1.
</event>
<event>
 8    1  0.1244838E-006  0.9118800E+02  0.7816164E-02  0.1184000E+00
        -11   -1    0    0    0    0  0.00000000000E+00  0.00000000000E+00  0.45593999997E+02  0.45594000000E+02  0.51100000000E-03 0. -1.
         11   -1    0    0    0    0 -0.00000000000E+00 -0.00000000000E+00 -0.45593999997E+02  0.45594000000E+02  0.51100000000E-03 0.  1.
         23    2    1    2    0    0  0.00000000000E+00  0.71054273576E-14  0.00000000000E+00  0.91188000000E+02  0.91188000000E+02 0.  0.
    9900012    2    3    3    0    0  0.61847357474E+01 -0.35440745459E+02 -0.78411292808E+01  0.54367072481E+02  0.39999973336E+02 0.  0.
         12    1    3    3    0    0 -0.61847357474E+01  0.35440745459E+02  0.78411292808E+01  0.36820927519E+02  0.00000000000E+00 0. -1.
         11    1    4    4    0    0 -0.43089665682E+01 -0.12500880757E+02 -0.99469048853E+01  0.16546302597E+02  0.51100000000E-03 0. -1.
        -11    1    4    4    0    0 -0.56045051610E+01 -0.20742088625E+02  0.46953458455E+00  0.21491048872E+02  0.51100000000E-03 0.  1.
         12    1    4    4    0    0  0.16098207477E+02 -0.21977760765E+01  0.16362410200E+01  0.16329721012E+02  0.00000000000E+00 0. -1.
</event>
<event>
 8    1  0.1244838E-006  0.9118800E+02  0.7816164E-02  0.1184000E+00
        -11   -1    0    0    0    0  0.00000000000E+00  0.00000000000E+00  0.45593999997E+02  0.45594000000E+02  0.51100000000E-03 0.  1.
         11   -1    0    0    0    0 -0.00000000000E+00 -0.00000000000E+00 -0.45593999997E+02  0.45594000000E+02  0.51100000000E-03 0. -1.
         23    2    1    2    0    0  0.00000000000E+00 -0.17763568394E-14 -0.35527136788E-14  0.91188000000E+02  0.91188000000E+02 0.  0.
    9900012    2    3    3    0    0  0.14845870017E+02  0.15816538579E+02  0.29752591523E+02  0.54367089480E+02  0.40000012088E+02 0.  0.
         12    1    3    3    0    0 -0.14845870017E+02 -0.15816538579E+02 -0.29752591523E+02  0.36820910520E+02  0.00000000000E+00 0. -1.
         11    1    4    4    0    0  0.12048198707E+02 -0.19575344640E+01  0.23653132843E+02  0.26616944355E+02  0.51100000000E-03 0. -1.
        -11    1    4    4    0    0  0.10049846062E+02  0.29697630954E+01  0.35768213352E+01  0.11073055127E+02  0.51100000000E-03 0.  1.
         12    1    4    4    0    0 -0.72521747520E+01  0.14804309947E+02  0.25226373454E+01  0.16677089999E+02  0.00000000000E+00 0. -1.
</event>
<event>
 8    1  0.1244838E-006  0.9118800E+02  0.7816164E-02  0.1184000E+00
        -11   -1    0    0    0    0  0.00000000000E+00  0.00000000000E+00  0.45593999997E+02  0.45594000000E+02  0.51100000000E-03 0.  1.
         11   -1    0    0    0    0 -0.00000000000E+00 -0.00000000000E+00 -0.45593999997E+02  0.45594000000E+02  0.51100000000E-03 0. -1.
         23    2    1    2    0    0  0.35527136788E-14  0.00000000000E+00  0.35527136788E-14  0.91188000000E+02  0.91188000000E+02 0.  0.
    9900012    2    3    3    0    0  0.29805874061E+02  0.12286757082E+02  0.17788347432E+02  0.54367084307E+02  0.40000000294E+02 0.  0.
         12    1    3    3    0    0 -0.29805874061E+02 -0.12286757082E+02 -0.17788347432E+02  0.36820915693E+02  0.00000000000E+00 0. -1.
         11    1    4    4    0    0  0.72816275809E+01  0.68965227790E+01  0.83179898878E+01  0.13029700023E+02  0.51100000000E-03 0. -1.
        -11    1    4    4    0    0  0.58297478596E+01  0.13924413234E+02  0.15505993547E+02  0.21640496302E+02  0.51100000000E-03 0.  1.
        -12    1    4    4    0    0  0.16694498620E+02 -0.85341789311E+01 -0.60356360027E+01  0.19696887982E+02  0.00000000000E+00 0.  1.
</event>
<event>
 8    1  0.1244838E-006  0.9118800E+02  0.7816164E-02  0.1184000E+00
        -11   -1    0    0    0    0  0.00000000000E+00  0.00000000000E+00  0.45593999997E+02  0.45594000000E+02  0.51100000000E-03 0.  1.
         11   -1    0    0    0    0 -0.00000000000E+00 -0.00000000000E+00 -0.45593999997E+02  0.45594000000E+02  0.51100000000E-03 0. -1.
         23    2    1    2    0    0 -0.88817841970E-15  0.35527136788E-14  0.00000000000E+00  0.91188000000E+02  0.91188000000E+02 0.  0.
    9900012    2    3    3    0    0  0.36430340903E+01 -0.29486227825E+02  0.21750165885E+02  0.54367095003E+02  0.40000024679E+02 0.  0.
         12    1    3    3    0    0 -0.36430340903E+01  0.29486227825E+02 -0.21750165885E+02  0.36820904997E+02  0.00000000000E+00 0. -1.
         11    1    4    4    0    0  0.48588414179E+01  0.68914171302E+01 -0.20640127685E+01  0.86810206172E+01  0.51100000000E-03 0. -1.
        -11    1    4    4    0    0 -0.34866140582E+00 -0.16582436673E+02  0.19142644859E+02  0.25328632479E+02  0.51100000000E-03 0.  1.
        -12    1    4    4    0    0 -0.86714592180E+00 -0.19795208283E+02  0.46715337945E+01  0.20357441907E+02  0.00000000000E+00 0.  1.
</event>
<event>
 8    1  0.1244838E-006  0.9118800E+02  0.7816164E-02  0.1184000E+00
        -11   -1    0    0    0    0  0.00000000000E+00  0.00000000000E+00  0.45593999997E+02  0.45594000000E+02  0.51100000000E-03 0.  1.
         11   -1    0    0    0    0 -0.00000000000E+00 -0.00000000000E+00 -0.45593999997E+02  0.45594000000E+02  0.51100000000E-03 0. -1.
         23    2    1    2    0    0  0.00000000000E+00  0.00000000000E+00  0.00000000000E+00  0.91188000000E+02  0.91188000000E+02 0.  0.
    9900012    2    3    3    0    0 -0.14177826030E+02 -0.30922624805E+02 -0.14091087105E+02  0.54367106318E+02  0.40000050473E+02 0.  0.
        -12    1    3    3    0    0  0.14177826030E+02  0.30922624805E+02  0.14091087105E+02  0.36820893682E+02  0.00000000000E+00 0.  1.
         11    1    4    4    0    0 -0.74848883467E+01 -0.26763549213E+02  0.50489504710E+01  0.28245407080E+02  0.51100000000E-03 0. -1.
        -11    1    4    4    0    0 -0.81851340825E+00  0.46651334461E+01 -0.61247508942E+00  0.47758308456E+01  0.51100000000E-03 0.  1.
         12    1    4    4    0    0 -0.58744242749E+01 -0.88242090384E+01 -0.18527562486E+02  0.21345868392E+02  0.00000000000E+00 0. -1.
</event>
<event>
 8    1  0.1244838E-006  0.9118800E+02  0.7816164E-02  0.1184000E+00
        -11   -1    0    0    0    0  0.00000000000E+00  0.00000000000E+00  0.45593999997E+02  0.45594000000E+02  0.51100000000E-03 0.  1.
         11   -1    0    0    0    0 -0.00000000000E+00 -0.00000000000E+00 -0.45593999997E+02  0.45594000000E+02  0.51100000000E-03 0. -1.
         23    2    1    2    0    0  0.00000000000E+00  0.00000000000E+00  0.35527136788E-14  0.91188000000E+02  0.91188000000E+02 0.  0.
    9900012    2    3    3    0    0  0.24709910729E+02  0.40623827368E+01 -0.26994388332E+02  0.54367086878E+02  0.40000006155E+02 0.  0.
        -12    1    3    3    0    0 -0.24709910729E+02 -0.40623827368E+01  0.26994388332E+02  0.36820913122E+02  0.00000000000E+00 0.  1.
         11    1    4    4    0    0 -0.30525687516E+01  0.62249588024E+00 -0.17357613833E+01  0.35663069057E+01  0.51100000000E-03 0. -1.
        -11    1    4    4    0    0  0.29618191905E+01 -0.12070899619E+02 -0.43621209854E+00  0.12436610140E+02  0.51100000000E-03 0.  1.
        -12    1    4    4    0    0  0.24800660290E+02  0.15510786475E+02 -0.24822414850E+02  0.38364169832E+02  0.00000000000E+00 0.  1.
</event>
<event>
 8    1  0.1244838E-006  0.9118800E+02  0.7816164E-02  0.1184000E+00
        -11   -1    0    0    0    0  0.00000000000E+00  0.00000000000E+00  0.45593999997E+02  0.45594000000E+02  0.51100000000E-03 0. -1.
         11   -1    0    0    0    0 -0.00000000000E+00 -0.00000000000E+00 -0.45593999997E+02  0.45594000000E+02  0.51100000000E-03 0.  1.
         23    2    1    2    0    0  0.00000000000E+00  0.00000000000E+00 -0.17763568394E-14  0.91188000000E+02  0.91188000000E+02 0.  0.
    9900012    2    3    3    0    0  0.21168727726E+02  0.27539291753E+02 -0.12216872981E+02  0.54367087338E+02  0.40000007205E+02 0.  0.
         12    1    3    3    0    0 -0.21168727726E+02 -0.27539291753E+02  0.12216872981E+02  0.36820912662E+02  0.00000000000E+00 0. -1.
         11    1    4    4    0    0  0.42752483398E+01 -0.58713143600E+01 -0.52669898248E+00  0.72819978550E+01  0.51100000000E-03 0. -1.
        -11    1    4    4    0    0  0.80711589971E+01  0.29544480243E+02 -0.18042801559E+02  0.35546625842E+02  0.51100000000E-03 0.  1.
        -12    1    4    4    0    0  0.88223203892E+01  0.38661258700E+01  0.63526275597E+01  0.11538463641E+02  0.00000000000E+00 0.  1.
</event>
<event>
 8    1  0.1244838E-006  0.9118800E+02  0.7816164E-02  0.1184000E+00
        -11   -1    0    0    0    0  0.00000000000E+00  0.00000000000E+00  0.45593999997E+02  0.45594000000E+02  0.51100000000E-03 0.  1.
         11   -1    0    0    0    0 -0.00000000000E+00 -0.00000000000E+00 -0.45593999997E+02  0.45594000000E+02  0.51100000000E-03 0. -1.
         23    2    1    2    0    0  0.00000000000E+00  0.00000000000E+00 -0.22204460493E-14  0.91188000000E+02  0.91188000000E+02 0.  0.
    9900012    2    3    3    0    0 -0.36190052701E+02 -0.65421251141E+01  0.18070112526E+01  0.54367019497E+02  0.39999852547E+02 0.  0.
         12    1    3    3    0    0  0.36190052701E+02  0.65421251141E+01 -0.18070112526E+01  0.36820980503E+02  0.00000000000E+00 0. -1.
         11    1    4    4    0    0 -0.28572175680E+02  0.64012205482E+01  0.92847001194E+01  0.30717267199E+02  0.51100000000E-03 0.  1.
        -11    1    4    4    0    0 -0.10299886811E+02 -0.14045791502E+02 -0.97544457084E+01  0.19962994229E+02  0.51100000000E-03 0. -1.
        -12    1    4    4    0    0  0.26820097898E+01  0.11024458401E+01  0.22767568417E+01  0.36867580689E+01  0.00000000000E+00 0.  1.
</event>
<event>
 8    1  0.1244838E-006  0.9118800E+02  0.7816164E-02  0.1184000E+00
        -11   -1    0    0    0    0  0.00000000000E+00  0.00000000000E+00  0.45593999997E+02  0.45594000000E+02  0.51100000000E-03 0.  1.
         11   -1    0    0    0    0 -0.00000000000E+00 -0.00000000000E+00 -0.45593999997E+02  0.45594000000E+02  0.51100000000E-03 0. -1.
         23    2    1    2    0    0  0.00000000000E+00  0.00000000000E+00  0.00000000000E+00  0.91188000000E+02  0.91188000000E+02 0.  0.
    9900012    2    3    3    0    0 -0.12114557743E+01 -0.12570266914E+02 -0.34587552578E+02  0.54367108801E+02  0.40000056134E+02 0.  0.
        -12    1    3    3    0    0  0.12114557743E+01  0.12570266914E+02  0.34587552578E+02  0.36820891199E+02  0.00000000000E+00 0.  1.
         11    1    4    4    0    0 -0.70207471431E+01 -0.18938620235E+02 -0.36983289847E+02  0.42139363486E+02  0.51100000000E-03 0. -1.
        -11    1    4    4    0    0 -0.10526872061E+01  0.47891016612E+01  0.15113293723E+01  0.51310585466E+01  0.51100000000E-03 0.  1.
        -12    1    4    4    0    0  0.68619785749E+01  0.15792516597E+01  0.88440789668E+00  0.70966867688E+01  0.00000000000E+00 0.  1.
</event>
<event>
 8    1  0.1244838E-006  0.9118800E+02  0.7816164E-02  0.1184000E+00
        -11   -1    0    0    0    0  0.00000000000E+00  0.00000000000E+00  0.45593999997E+02  0.45594000000E+02  0.51100000000E-03 0.  1.
         11   -1    0    0    0    0 -0.00000000000E+00 -0.00000000000E+00 -0.45593999997E+02  0.45594000000E+02  0.51100000000E-03 0. -1.
         23    2    1    2    0    0  0.00000000000E+00  0.17763568394E-14 -0.35527136788E-14  0.91188000000E+02  0.91188000000E+02 0.  0.
    9900012    2    3    3    0    0 -0.29807554648E+02 -0.10435274420E+02  0.18931379292E+02  0.54367049602E+02  0.39999921178E+02 0.  0.
         12    1    3    3    0    0  0.29807554648E+02  0.10435274420E+02 -0.18931379292E+02  0.36820950398E+02  0.00000000000E+00 0. -1.
         11    1    4    4    0    0 -0.21523773793E+02  0.33189327834E+00  0.11339713693E+02  0.24330476739E+02  0.51100000000E-03 0. -1.
        -11    1    4    4    0    0 -0.73763454521E+01 -0.85887741185E+01  0.16951089917E+02  0.20384233190E+02  0.51100000000E-03 0.  1.
         12    1    4    4    0    0 -0.90743540227E+00 -0.21783935801E+01 -0.93594243181E+01  0.96523396732E+01  0.00000000000E+00 0. -1.
</event>
<event>
 8    1  0.1244838E-006  0.9118800E+02  0.7816164E-02  0.1184000E+00
        -11   -1    0    0    0    0  0.00000000000E+00  0.00000000000E+00  0.45593999997E+02  0.45594000000E+02  0.51100000000E-03 0.  1.
         11   -1    0    0    0    0 -0.00000000000E+00 -0.00000000000E+00 -0.45593999997E+02  0.45594000000E+02  0.51100000000E-03 0. -1.
         23    2    1    2    0    0 -0.88817841970E-15 -0.35527136788E-14  0.00000000000E+00  0.91188000000E+02  0.91188000000E+02 0.  0.
    9900012    2    3    3    0    0  0.30022774341E+01  0.21259111394E+02 -0.29913498007E+02  0.54367070489E+02  0.39999968793E+02 0.  0.
        -12    1    3    3    0    0 -0.30022774341E+01 -0.21259111394E+02  0.29913498007E+02  0.36820929511E+02  0.00000000000E+00 0.  1.
         11    1    4    4    0    0  0.20924701785E+01 -0.40797716522E+01 -0.17769563245E+02  0.18351576127E+02  0.51100000000E-03 0. -1.
        -11    1    4    4    0    0  0.11251697924E+02  0.83326502028E+01 -0.51647532572E+01  0.14923419248E+02  0.51100000000E-03 0.  1.
        -12    1    4    4    0    0 -0.10341890669E+02  0.17006232843E+02 -0.69791815053E+01  0.21092075114E+02  0.00000000000E+00 0.  1.
</event>
<event>
 8    1  0.1244838E-006  0.9118800E+02  0.7816164E-02  0.1184000E+00
        -11   -1    0    0    0    0  0.00000000000E+00  0.00000000000E+00  0.45593999997E+02  0.45594000000E+02  0.51100000000E-03 0.  1.
         11   -1    0    0    0    0 -0.00000000000E+00 -0.00000000000E+00 -0.45593999997E+02  0.45594000000E+02  0.51100000000E-03 0. -1.
         23    2    1    2    0    0 -0.44408920985E-15  0.00000000000E+00  0.00000000000E+00  0.91188000000E+02  0.91188000000E+02 0.  0.
    9900012    2    3    3    0    0  0.38514195658E+01  0.34328371797E+02 -0.12747843641E+02  0.54367108371E+02  0.40000055153E+02 0.  0.
        -12    1    3    3    0    0 -0.38514195658E+01 -0.34328371797E+02  0.12747843641E+02  0.36820891629E+02  0.00000000000E+00 0.  1.
         11    1    4    4    0    0  0.33406921598E+01  0.94117960355E+01 -0.14383144916E+02  0.17510482194E+02  0.51100000000E-03 0. -1.
        -11    1    4    4    0    0  0.56151960853E+01 -0.34750806912E+01  0.43106616064E+01  0.78859632660E+01  0.51100000000E-03 0.  1.
        -12    1    4    4    0    0 -0.51044686793E+01  0.28391656452E+02 -0.26753603310E+01  0.28970662911E+02  0.00000000000E+00 0.  1.
</event>
<event>
 8    1  0.1244838E-006  0.9118800E+02  0.7816164E-02  0.1184000E+00
        -11   -1    0    0    0    0  0.00000000000E+00  0.00000000000E+00  0.45593999997E+02  0.45594000000E+02  0.51100000000E-03 0.  1.
         11   -1    0    0    0    0 -0.00000000000E+00 -0.00000000000E+00 -0.45593999997E+02  0.45594000000E+02  0.51100000000E-03 0. -1.
         23    2    1    2    0    0  0.00000000000E+00  0.00000000000E+00  0.00000000000E+00  0.91188000000E+02  0.91188000000E+02 0.  0.
    9900012    2    3    3    0    0  0.71694969355E+01 -0.23098041813E+02  0.27764329246E+02  0.54367092890E+02  0.40000019862E+02 0.  0.
        -12    1    3    3    0    0 -0.71694969355E+01  0.23098041813E+02 -0.27764329246E+02  0.36820907110E+02  0.00000000000E+00 0.  1.
         11    1    4    4    0    0  0.40869070078E+01 -0.13311512632E+01 -0.40144001481E+01  0.58813418015E+01  0.51100000000E-03 0. -1.
        -11    1    4    4    0    0  0.14134684091E+02 -0.54996243398E+01  0.21454049817E+02  0.26273778107E+02  0.51100000000E-03 0.  1.
        -12    1    4    4    0    0 -0.11052094163E+02 -0.16267266210E+02  0.10324679578E+02  0.22211972981E+02  0.00000000000E+00 0.  1.
</event>
<event>
 8    1  0.1244838E-006  0.9118800E+02  0.7816164E-02  0.1184000E+00
        -11   -1    0    0    0    0  0.00000000000E+00  0.00000000000E+00  0.45593999997E+02  0.45594000000E+02  0.51100000000E-03 0. -1.
         11   -1    0    0    0    0 -0.00000000000E+00 -0.00000000000E+00 -0.45593999997E+02  0.45594000000E+02  0.51100000000E-03 0.  1.
         23    2    1    2    0    0  0.00000000000E+00 -0.71054273576E-14  0.00000000000E+00  0.91188000000E+02  0.91188000000E+02 0.  0.
    9900012    2    3    3    0    0  0.15467341163E+01  0.34322176611E+02 -0.13242975479E+02  0.54367073976E+02  0.39999976744E+02 0.  0.
         12    1    3    3    0    0 -0.15467341163E+01 -0.34322176611E+02  0.13242975479E+02  0.36820926024E+02  0.00000000000E+00 0. -1.
         11    1    4    4    0    0  0.79436129381E+01  0.10794381305E+02  0.72018722894E+01  0.15214684322E+02  0.51100000000E-03 0. -1.
        -11    1    4    4    0    0 -0.33938124184E+01  0.13918114388E+02  0.20835429427E+01  0.14476637120E+02  0.51100000000E-03 0.  1.
        -12    1    4    4    0    0 -0.30030664034E+01  0.96096809179E+01 -0.22528390711E+02  0.24675752535E+02  0.00000000000E+00 0.  1.
</event>
<event>
 8    1  0.1244838E-006  0.9118800E+02  0.7816164E-02  0.1184000E+00
        -11   -1    0    0    0    0  0.00000000000E+00  0.00000000000E+00  0.45593999997E+02  0.45594000000E+02  0.51100000000E-03 0.  1.
         11   -1    0    0    0    0 -0.00000000000E+00 -0.00000000000E+00 -0.45593999997E+02  0.45594000000E+02  0.51100000000E-03 0. -1.
         23    2    1    2    0    0  0.35527136788E-14  0.53290705182E-14  0.00000000000E+00  0.91188000000E+02  0.91188000000E+02 0.  0.
    9900012    2    3    3    0    0 -0.30967526228E+02 -0.11400598172E+02  0.16334551814E+02  0.54367096938E+02  0.40000029090E+02 0.  0.
        -12    1    3    3    0    0  0.30967526228E+02  0.11400598172E+02 -0.16334551814E+02  0.36820903062E+02  0.00000000000E+00 0.  1.
         11    1    4    4    0    0 -0.15478925451E+02 -0.21281225693E+02 -0.64507674007E-01  0.26315240101E+02  0.51100000000E-03 0. -1.
        -11    1    4    4    0    0 -0.12176256074E+02  0.82784454676E+01  0.42018491190E+01  0.15311740842E+02  0.51100000000E-03 0.  1.
        -12    1    4    4    0    0 -0.33123447029E+01  0.16021820533E+01  0.12197210369E+02  0.12740115995E+02  0.00000000000E+00 0.  1.
</event>
<event>
 8    1  0.1244838E-006  0.9118800E+02  0.7816164E-02  0.1184000E+00
        -11   -1    0    0    0    0  0.00000000000E+00  0.00000000000E+00  0.45593999997E+02  0.45594000000E+02  0.51100000000E-03 0.  1.
         11   -1    0    0    0    0 -0.00000000000E+00 -0.00000000000E+00 -0.45593999997E+02  0.45594000000E+02  0.51100000000E-03 0. -1.
         23    2    1    2    0    0  0.35527136788E-14 -0.88817841970E-15  0.00000000000E+00  0.91188000000E+02  0.91188000000E+02 0.  0.
    9900012    2    3    3    0    0 -0.31240057117E+02 -0.57473365506E+01  0.18622768843E+02  0.54367074353E+02  0.39999977603E+02 0.  0.
         12    1    3    3    0    0  0.31240057117E+02  0.57473365506E+01 -0.18622768843E+02  0.36820925647E+02  0.00000000000E+00 0. -1.
         11    1    4    4    0    0 -0.21186892814E+02 -0.16997159063E+02  0.75303276791E+01  0.28186764244E+02  0.51100000000E-03 0. -1.
        -11    1    4    4    0    0 -0.29809596376E+01  0.47353450708E+01  0.14840483524E+02  0.15860314145E+02  0.51100000000E-03 0.  1.
         12    1    4    4    0    0 -0.70722046659E+01  0.65144774420E+01 -0.37480423601E+01  0.10319995965E+02  0.00000000000E+00 0. -1.
</event>
<event>
 8    1  0.1244838E-006  0.9118800E+02  0.7816164E-02  0.1184000E+00
        -11   -1    0    0    0    0  0.00000000000E+00  0.00000000000E+00  0.45593999997E+02  0.45594000000E+02  0.51100000000E-03 0. -1.
         11   -1    0    0    0    0 -0.00000000000E+00 -0.00000000000E+00 -0.45593999997E+02  0.45594000000E+02  0.51100000000E-03 0.  1.
         23    2    1    2    0    0  0.88817841970E-15  0.22204460493E-15  0.00000000000E+00  0.91188000000E+02  0.91188000000E+02 0.  0.
    9900012    2    3    3    0    0 -0.65341739814E+01 -0.14223749859E+01 -0.36208576488E+02  0.54367087579E+02  0.40000007754E+02 0.  0.
         12    1    3    3    0    0  0.65341739814E+01  0.14223749859E+01  0.36208576488E+02  0.36820912421E+02  0.00000000000E+00 0. -1.
         11    1    4    4    0    0 -0.14923213890E+01  0.89636849474E+01 -0.85052208957E+01  0.12446423330E+02  0.51100000000E-03 0. -1.
        -11    1    4    4    0    0 -0.49942597695E+01  0.38285153050E+01 -0.26962062692E+02  0.27686693283E+02  0.51100000000E-03 0.  1.
         12    1    4    4    0    0 -0.47592822932E-01 -0.14214575238E+02 -0.74129290019E+00  0.14233970966E+02  0.00000000000E+00 0. -1.
</event>
<event>
 8    1  0.1244838E-006  0.9118800E+02  0.7816164E-02  0.1184000E+00
        -11   -1    0    0    0    0  0.00000000000E+00  0.00000000000E+00  0.45593999997E+02  0.45594000000E+02  0.51100000000E-03 0.  1.
         11   -1    0    0    0    0 -0.00000000000E+00 -0.00000000000E+00 -0.45593999997E+02  0.45594000000E+02  0.51100000000E-03 0. -1.
         23    2    1    2    0    0  0.00000000000E+00 -0.35527136788E-14  0.00000000000E+00  0.91188000000E+02  0.91188000000E+02 0.  0.
    9900012    2    3    3    0    0  0.21643820062E+02  0.25081432616E+02  0.16070076544E+02  0.54367074305E+02  0.39999977492E+02 0.  0.
         12    1    3    3    0    0 -0.21643820062E+02 -0.25081432616E+02 -0.16070076544E+02  0.36820925695E+02  0.00000000000E+00 0. -1.
         11    1    4    4    0    0  0.11256115697E+02  0.23058283978E-01  0.10599637508E+02  0.15461338487E+02  0.51100000000E-03 0. -1.
        -11    1    4    4    0    0  0.81854288923E+01 -0.32293511094E+01  0.57849004160E+01  0.10530670815E+02  0.51100000000E-03 0.  1.
        -12    1    4    4    0    0  0.22022754732E+01  0.28287725441E+02 -0.31446137999E+00  0.28375065002E+02  0.00000000000E+00 0.  1.
</event>
<event>
 8    1  0.1244838E-006  0.9118800E+02  0.7816164E-02  0.1184000E+00
        -11   -1    0    0    0    0  0.00000000000E+00  0.00000000000E+00  0.45593999997E+02  0.45594000000E+02  0.51100000000E-03 0. -1.
         11   -1    0    0    0    0 -0.00000000000E+00 -0.00000000000E+00 -0.45593999997E+02  0.45594000000E+02  0.51100000000E-03 0.  1.
         23    2    1    2    0    0 -0.35527136788E-14  0.00000000000E+00  0.71054273576E-14  0.91188000000E+02  0.91188000000E+02 0.  0.
    9900012    2    3    3    0    0 -0.16460697132E+02  0.16060169819E+02  0.28755826805E+02  0.54367066010E+02  0.39999958582E+02 0.  0.
        -12    1    3    3    0    0  0.16460697132E+02 -0.16060169819E+02 -0.28755826805E+02  0.36820933990E+02  0.00000000000E+00 0.  1.
         11    1    4    4    0    0  0.10732866956E+02 -0.11041066035E+01  0.51811449545E+01  0.11969032868E+02  0.51100000000E-03 0. -1.
        -11    1    4    4    0    0 -0.11997541450E+02  0.66523632245E-01  0.52839204688E+01  0.13109738442E+02  0.51100000000E-03 0.  1.
         12    1    4    4    0    0 -0.15196022638E+02  0.17097752790E+02  0.18290761382E+02  0.29288294700E+02  0.00000000000E+00 0. -1.
</event>
<event>
 8    1  0.1244838E-006  0.9118800E+02  0.7816164E-02  0.1184000E+00
        -11   -1    0    0    0    0  0.00000000000E+00  0.00000000000E+00  0.45593999997E+02  0.45594000000E+02  0.51100000000E-03 0.  1.
         11   -1    0    0    0    0 -0.00000000000E+00 -0.00000000000E+00 -0.45593999997E+02  0.45594000000E+02  0.51100000000E-03 0. -1.
         23    2    1    2    0    0  0.00000000000E+00  0.35527136788E-14  0.53290705182E-14  0.91188000000E+02  0.91188000000E+02 0.  0.
    9900012    2    3    3    0    0 -0.17359102300E+02  0.29425644648E+02  0.13732197173E+02  0.54367078844E+02  0.39999987840E+02 0.  0.
         12    1    3    3    0    0  0.17359102300E+02 -0.29425644648E+02 -0.13732197173E+02  0.36820921156E+02  0.00000000000E+00 0. -1.
         11    1    4    4    0    0 -0.10508180272E+02  0.46724403723E+01 -0.12484828392E+02  0.16974230230E+02  0.51100000000E-03 0. -1.
        -11    1    4    4    0    0 -0.90691229943E+00  0.64481780591E+01  0.28169150031E+01  0.70948220976E+01  0.51100000000E-03 0.  1.
         12    1    4    4    0    0 -0.59440097283E+01  0.18305026217E+02  0.23400110562E+02  0.30298026516E+02  0.00000000000E+00 0. -1.
</event>
<event>
 8    1  0.1244838E-006  0.9118800E+02  0.7816164E-02  0.1184000E+00
        -11   -1    0    0    0    0  0.00000000000E+00  0.00000000000E+00  0.45593999997E+02  0.45594000000E+02  0.51100000000E-03 0.  1.
         11   -1    0    0    0    0 -0.00000000000E+00 -0.00000000000E+00 -0.45593999997E+02  0.45594000000E+02  0.51100000000E-03 0. -1.
         23    2    1    2    0    0 -0.88817841970E-15  0.00000000000E+00  0.35527136788E-14  0.91188000000E+02  0.91188000000E+02 0.  0.
    9900012    2    3    3    0    0  0.65659007338E+01 -0.29560305233E+02  0.20948924831E+02  0.54367080003E+02  0.39999990482E+02 0.  0.
         12    1    3    3    0    0 -0.65659007338E+01  0.29560305233E+02 -0.20948924831E+02  0.36820919997E+02  0.00000000000E+00 0. -1.
         11    1    4    4    0    0  0.14010463726E+02 -0.31608051536E+02  0.12655015136E+02  0.36817270731E+02  0.51100000000E-03 0. -1.
        -11    1    4    4    0    0 -0.80317509159E+01 -0.77886743116E+00  0.10966680691E+02  0.13615569870E+02  0.51100000000E-03 0.  1.
         12    1    4    4    0    0  0.58718792346E+00  0.28266137350E+01 -0.26727709965E+01  0.39342394009E+01  0.00000000000E+00 0. -1.
</event>
<event>
 8    1  0.1244838E-006  0.9118800E+02  0.7816164E-02  0.1184000E+00
        -11   -1    0    0    0    0  0.00000000000E+00  0.00000000000E+00  0.45593999997E+02  0.45594000000E+02  0.51100000000E-03 0.  1.
         11   -1    0    0    0    0 -0.00000000000E+00 -0.00000000000E+00 -0.45593999997E+02  0.45594000000E+02  0.51100000000E-03 0. -1.
         23    2    1    2    0    0 -0.71054273576E-14  0.00000000000E+00  0.17763568394E-14  0.91188000000E+02  0.91188000000E+02 0.  0.
    9900012    2    3    3    0    0 -0.28925580503E+02  0.19679267916E+02 -0.11481182853E+02  0.54367077240E+02  0.39999984185E+02 0.  0.
        -12    1    3    3    0    0  0.28925580503E+02 -0.19679267916E+02  0.11481182853E+02  0.36820922760E+02  0.00000000000E+00 0.  1.
         11    1    4    4    0    0 -0.31150216597E+02  0.18038524614E+02 -0.74639826550E+01  0.36761874294E+02  0.51100000000E-03 0. -1.
        -11    1    4    4    0    0  0.84282671663E+01  0.32691873497E+01 -0.60490713820E+01  0.10877248650E+02  0.51100000000E-03 0.  1.
        -12    1    4    4    0    0 -0.62036310731E+01 -0.16284440470E+01  0.20318711845E+01  0.67279542965E+01  0.00000000000E+00 0.  1.
</event>
<event>
 8    1  0.1244838E-006  0.9118800E+02  0.7816164E-02  0.1184000E+00
        -11   -1    0    0    0    0  0.00000000000E+00  0.00000000000E+00  0.45593999997E+02  0.45594000000E+02  0.51100000000E-03 0.  1.
         11   -1    0    0    0    0 -0.00000000000E+00 -0.00000000000E+00 -0.45593999997E+02  0.45594000000E+02  0.51100000000E-03 0. -1.
         23    2    1    2    0    0  0.00000000000E+00  0.26645352591E-14  0.35527136788E-14  0.91188000000E+02  0.91188000000E+02 0.  0.
    9900012    2    3    3    0    0  0.22986245728E+02  0.79108533147E+01 -0.27655575769E+02  0.54367082522E+02  0.39999996225E+02 0.  0.
        -12    1    3    3    0    0 -0.22986245728E+02 -0.79108533147E+01  0.27655575769E+02  0.36820917478E+02  0.00000000000E+00 0.  1.
         11    1    4    4    0    0 -0.89462516296E+00 -0.30459729449E+01 -0.11814990990E+01  0.33873656055E+01  0.51100000000E-03 0. -1.
        -11    1    4    4    0    0  0.22343179351E+02  0.17663890596E+02 -0.56353006295E+01  0.29034243712E+02  0.51100000000E-03 0.  1.
         12    1    4    4    0    0  0.15376915402E+01 -0.67070643366E+01 -0.20838776040E+02  0.21945473204E+02  0.00000000000E+00 0. -1.
</event>
<event>
 8    1  0.1244838E-006  0.9118800E+02  0.7816164E-02  0.1184000E+00
        -11   -1    0    0    0    0  0.00000000000E+00  0.00000000000E+00  0.45593999997E+02  0.45594000000E+02  0.51100000000E-03 0. -1.
         11   -1    0    0    0    0 -0.00000000000E+00 -0.00000000000E+00 -0.45593999997E+02  0.45594000000E+02  0.51100000000E-03 0.  1.
         23    2    1    2    0    0  0.88817841970E-15  0.00000000000E+00  0.00000000000E+00  0.91188000000E+02  0.91188000000E+02 0.  0.
    9900012    2    3    3    0    0 -0.78902555851E+01 -0.17217849697E+02 -0.31576387736E+02  0.54367099090E+02  0.40000033995E+02 0.  0.
         12    1    3    3    0    0  0.78902555851E+01  0.17217849697E+02  0.31576387736E+02  0.36820900910E+02  0.00000000000E+00 0. -1.
         11    1    4    4    0    0 -0.12245072415E+02  0.11459627065E+01 -0.90161786754E+01  0.15249475635E+02  0.51100000000E-03 0. -1.
        -11    1    4    4    0    0  0.11582467927E+01 -0.53702203345E+01  0.56587564729E+01  0.78868451966E+01  0.51100000000E-03 0.  1.
        -12    1    4    4    0    0  0.31965700371E+01 -0.12993592069E+02 -0.28218965533E+02  0.31230778258E+02  0.00000000000E+00 0.  1.
</event>
<event>
 8    1  0.1244838E-006  0.9118800E+02  0.7816164E-02  0.1184000E+00
        -11   -1    0    0    0    0  0.00000000000E+00  0.00000000000E+00  0.45593999997E+02  0.45594000000E+02  0.51100000000E-03 0. -1.
         11   -1    0    0    0    0 -0.00000000000E+00 -0.00000000000E+00 -0.45593999997E+02  0.45594000000E+02  0.51100000000E-03 0.  1.
         23    2    1    2    0    0  0.00000000000E+00  0.00000000000E+00  0.35527136788E-14  0.91188000000E+02  0.91188000000E+02 0.  0.
    9900012    2    3    3    0    0  0.86477233140E+01 -0.31456748012E+02  0.17072478524E+02  0.54367086961E+02  0.40000006346E+02 0.  0.
        -12    1    3    3    0    0 -0.86477233140E+01  0.31456748012E+02 -0.17072478524E+02  0.36820913039E+02  0.00000000000E+00 0.  1.
         11    1    4    4    0    0  0.35087325994E+01 -0.67815184323E+01 -0.49787840669E-01  0.76356188873E+01  0.51100000000E-03 0. -1.
        -11    1    4    4    0    0  0.17872632265E+01 -0.31623290353E+02  0.45749919399E+01  0.32002458564E+02  0.51100000000E-03 0.  1.
         12    1    4    4    0    0  0.33517274881E+01  0.69480607732E+01  0.12547274425E+02  0.14729009511E+02  0.00000000000E+00 0. -1.
</event>
<event>
 8    1  0.1244838E-006  0.9118800E+02  0.7816164E-02  0.1184000E+00
        -11   -1    0    0    0    0  0.00000000000E+00  0.00000000000E+00  0.45593999997E+02  0.45594000000E+02  0.51100000000E-03 0. -1.
         11   -1    0    0    0    0 -0.00000000000E+00 -0.00000000000E+00 -0.45593999997E+02  0.45594000000E+02  0.51100000000E-03 0.  1.
         23    2    1    2    0    0 -0.88817841970E-15  0.00000000000E+00  0.00000000000E+00  0.91188000000E+02  0.91188000000E+02 0.  0.
    9900012    2    3    3    0    0  0.65752987713E+01  0.35856378982E+02  0.51832324441E+01  0.54367077060E+02  0.39999983773E+02 0.  0.
         12    1    3    3    0    0 -0.65752987713E+01 -0.35856378982E+02 -0.51832324441E+01  0.36820922940E+02  0.00000000000E+00 0. -1.
         11    1    4    4    0    0  0.35203815170E+01 -0.17749393960E+01  0.11548007238E+02  0.12202457429E+02  0.51100000000E-03 0. -1.
        -11    1    4    4    0    0 -0.57419896977E+01  0.12472922213E+02 -0.71902691096E+01  0.15499813043E+02  0.51100000000E-03 0.  1.
        -12    1    4    4    0    0  0.87969069520E+01  0.25158396165E+02  0.82549431572E+00  0.26664806588E+02  0.00000000000E+00 0.  1.
</event>
<event>
 8    1  0.1244838E-006  0.9118800E+02  0.7816164E-02  0.1184000E+00
        -11   -1    0    0    0    0  0.00000000000E+00  0.00000000000E+00  0.45593999997E+02  0.45594000000E+02  0.51100000000E-03 0. -1.
         11   -1    0    0    0    0 -0.00000000000E+00 -0.00000000000E+00 -0.45593999997E+02  0.45594000000E+02  0.51100000000E-03 0.  1.
         23    2    1    2    0    0 -0.35527136788E-14  0.00000000000E+00  0.00000000000E+00  0.91188000000E+02  0.91188000000E+02 0.  0.
    9900012    2    3    3    0    0  0.24221389202E+02 -0.23378373377E+02 -0.14918186049E+02  0.54367132118E+02  0.40000109289E+02 0.  0.
         12    1    3    3    0    0 -0.24221389202E+02  0.23378373377E+02  0.14918186049E+02  0.36820867882E+02  0.00000000000E+00 0. -1.
         11    1    4    4    0    0  0.16325904765E+02 -0.16939308800E+02  0.72737731319E+01  0.24624847713E+02  0.51100000000E-03 0. -1.
        -11    1    4    4    0    0 -0.50144724094E+01 -0.44748456946E+01 -0.82231702326E+01  0.10620249831E+02  0.51100000000E-03 0.  1.
         12    1    4    4    0    0  0.12909956846E+02 -0.19642188815E+01 -0.13968788948E+02  0.19122034575E+02  0.00000000000E+00 0. -1.
</event>
<event>
 8    1  0.1244838E-006  0.9118800E+02  0.7816164E-02  0.1184000E+00
        -11   -1    0    0    0    0  0.00000000000E+00  0.00000000000E+00  0.45593999997E+02  0.45594000000E+02  0.51100000000E-03 0.  1.
         11   -1    0    0    0    0 -0.00000000000E+00 -0.00000000000E+00 -0.45593999997E+02  0.45594000000E+02  0.51100000000E-03 0. -1.
         23    2    1    2    0    0  0.00000000000E+00  0.17763568394E-14  0.88817841970E-15  0.91188000000E+02  0.91188000000E+02 0.  0.
    9900012    2    3    3    0    0  0.33642758723E+02  0.13942619080E+02 -0.54357965956E+01  0.54367085754E+02  0.40000003593E+02 0.  0.
        -12    1    3    3    0    0 -0.33642758723E+02 -0.13942619080E+02  0.54357965956E+01  0.36820914246E+02  0.00000000000E+00 0.  1.
         11    1    4    4    0    0  0.15226874086E+02  0.44960749647E+01 -0.16649895100E+02  0.23006333728E+02  0.51100000000E-03 0. -1.
        -11    1    4    4    0    0  0.58003504016E+01  0.13160389246E+02  0.48771117743E+00  0.14390197091E+02  0.51100000000E-03 0.  1.
         12    1    4    4    0    0  0.12615534236E+02 -0.37138451301E+01  0.10726387327E+02  0.16970554934E+02  0.00000000000E+00 0. -1.
</event>
<event>
 8    1  0.1244838E-006  0.9118800E+02  0.7816164E-02  0.1184000E+00
        -11   -1    0    0    0    0  0.00000000000E+00  0.00000000000E+00  0.45593999997E+02  0.45594000000E+02  0.51100000000E-03 0. -1.
         11   -1    0    0    0    0 -0.00000000000E+00 -0.00000000000E+00 -0.45593999997E+02  0.45594000000E+02  0.51100000000E-03 0.  1.
         23    2    1    2    0    0  0.00000000000E+00 -0.35527136788E-14 -0.88817841970E-15  0.91188000000E+02  0.91188000000E+02 0.  0.
    9900012    2    3    3    0    0 -0.20508479955E+02 -0.30119082455E+02  0.52937626068E+01  0.54367071161E+02  0.39999970326E+02 0.  0.
        -12    1    3    3    0    0  0.20508479955E+02  0.30119082455E+02 -0.52937626068E+01  0.36820928839E+02  0.00000000000E+00 0.  1.
         11    1    4    4    0    0 -0.77350410642E+01 -0.12451995508E+02 -0.38536321469E+01  0.15156963198E+02  0.51100000000E-03 0. -1.
        -11    1    4    4    0    0 -0.47376973773E+01 -0.97595337944E+01 -0.11422456926E+02  0.15753310725E+02  0.51100000000E-03 0.  1.
        -12    1    4    4    0    0 -0.80357415136E+01 -0.79075531524E+01  0.20569851680E+02  0.23456797238E+02  0.00000000000E+00 0.  1.
</event>
<event>
 8    1  0.1244838E-006  0.9118800E+02  0.7816164E-02  0.1184000E+00
        -11   -1    0    0    0    0  0.00000000000E+00  0.00000000000E+00  0.45593999997E+02  0.45594000000E+02  0.51100000000E-03 0. -1.
         11   -1    0    0    0    0 -0.00000000000E+00 -0.00000000000E+00 -0.45593999997E+02  0.45594000000E+02  0.51100000000E-03 0.  1.
         23    2    1    2    0    0 -0.71054273576E-14  0.00000000000E+00  0.00000000000E+00  0.91188000000E+02  0.91188000000E+02 0.  0.
    9900012    2    3    3    0    0  0.27842743129E+02 -0.23533606110E+02 -0.51701235464E+01  0.54367093724E+02  0.40000021762E+02 0.  0.
         12    1    3    3    0    0 -0.27842743129E+02  0.23533606110E+02  0.51701235464E+01  0.36820906276E+02  0.00000000000E+00 0. -1.
         11    1    4    4    0    0  0.14294276351E+02 -0.16836575979E+02 -0.85020507069E+01  0.23666040936E+02  0.51100000000E-03 0. -1.
        -11    1    4    4    0    0 -0.24246337067E+01 -0.47013083084E+01  0.11493946731E+02  0.12652745162E+02  0.51100000000E-03 0.  1.
        -12    1    4    4    0    0  0.15973100485E+02 -0.19957218225E+01 -0.81620195701E+01  0.18048307626E+02  0.00000000000E+00 0.  1.
</event>
<event>
 8    1  0.1244838E-006  0.9118800E+02  0.7816164E-02  0.1184000E+00
        -11   -1    0    0    0    0  0.00000000000E+00  0.00000000000E+00  0.45593999997E+02  0.45594000000E+02  0.51100000000E-03 0. -1.
         11   -1    0    0    0    0 -0.00000000000E+00 -0.00000000000E+00 -0.45593999997E+02  0.45594000000E+02  0.51100000000E-03 0.  1.
         23    2    1    2    0    0 -0.71054273576E-14  0.00000000000E+00 -0.88817841970E-15  0.91188000000E+02  0.91188000000E+02 0.  0.
    9900012    2    3    3    0    0  0.35653308982E+02 -0.79627128419E+01  0.46061723092E+01  0.54367081211E+02  0.39999993236E+02 0.  0.
        -12    1    3    3    0    0 -0.35653308982E+02  0.79627128419E+01 -0.46061723092E+01  0.36820918789E+02  0.00000000000E+00 0.  1.
         11    1    4    4    0    0  0.28518403016E+00 -0.30238262262E+01 -0.50270070938E+01  0.58733002273E+01  0.51100000000E-03 0. -1.
        -11    1    4    4    0    0  0.13982875951E+02 -0.12898768105E+02 -0.69847168778E+01  0.20265372156E+02  0.51100000000E-03 0.  1.
         12    1    4    4    0    0  0.21385249001E+02  0.79598814892E+01  0.16617896281E+02  0.28228408828E+02  0.00000000000E+00 0. -1.
</event>
<event>
 8    1  0.1244838E-006  0.9118800E+02  0.7816164E-02  0.1184000E+00
        -11   -1    0    0    0    0  0.00000000000E+00  0.00000000000E+00  0.45593999997E+02  0.45594000000E+02  0.51100000000E-03 0. -1.
         11   -1    0    0    0    0 -0.00000000000E+00 -0.00000000000E+00 -0.45593999997E+02  0.45594000000E+02  0.51100000000E-03 0.  1.
         23    2    1    2    0    0  0.35527136788E-14  0.27755575616E-14  0.00000000000E+00  0.91188000000E+02  0.91188000000E+02 0.  0.
    9900012    2    3    3    0    0  0.17299458730E+02  0.74121806159E+00  0.32495478044E+02  0.54367125894E+02  0.40000095102E+02 0.  0.
        -12    1    3    3    0    0 -0.17299458730E+02 -0.74121806159E+00 -0.32495478044E+02  0.36820874106E+02  0.00000000000E+00 0.  1.
         11    1    4    4    0    0  0.45046500736E+01  0.49707115655E+01  0.18158351487E+02  0.19357829804E+02  0.51100000000E-03 0. -1.
        -11    1    4    4    0    0  0.68804559236E+00 -0.13082688841E+02  0.15100594982E+02  0.19991451251E+02  0.51100000000E-03 0.  1.
        -12    1    4    4    0    0  0.12106763064E+02  0.88531953374E+01 -0.76346842466E+00  0.15017844839E+02  0.00000000000E+00 0.  1.
</event>
<event>
 8    1  0.1244838E-006  0.9118800E+02  0.7816164E-02  0.1184000E+00
        -11   -1    0    0    0    0  0.00000000000E+00  0.00000000000E+00  0.45593999997E+02  0.45594000000E+02  0.51100000000E-03 0. -1.
         11   -1    0    0    0    0 -0.00000000000E+00 -0.00000000000E+00 -0.45593999997E+02  0.45594000000E+02  0.51100000000E-03 0.  1.
         23    2    1    2    0    0  0.00000000000E+00  0.00000000000E+00  0.00000000000E+00  0.91188000000E+02  0.91188000000E+02 0.  0.
    9900012    2    3    3    0    0 -0.93327904656E+01 -0.32924389810E+02  0.13589106849E+02  0.54367078676E+02  0.39999987457E+02 0.  0.
        -12    1    3    3    0    0  0.93327904656E+01  0.32924389810E+02 -0.13589106849E+02  0.36820921324E+02  0.00000000000E+00 0.  1.
         11    1    4    4    0    0  0.12512040333E+02 -0.15072849338E+02  0.82162584446E+01  0.21242618566E+02  0.51100000000E-03 0. -1.
        -11    1    4    4    0    0 -0.16677746689E+02 -0.16514527198E+02 -0.25101211084E+01  0.23604608691E+02  0.51100000000E-03 0.  1.
         12    1    4    4    0    0 -0.51670841095E+01 -0.13370132734E+01  0.78829695132E+01  0.95198514187E+01  0.00000000000E+00 0. -1.
</event>
<event>
 8    1  0.1244838E-006  0.9118800E+02  0.7816164E-02  0.1184000E+00
        -11   -1    0    0    0    0  0.00000000000E+00  0.00000000000E+00  0.45593999997E+02  0.45594000000E+02  0.51100000000E-03 0.  1.
         11   -1    0    0    0    0 -0.00000000000E+00 -0.00000000000E+00 -0.45593999997E+02  0.45594000000E+02  0.51100000000E-03 0. -1.
         23    2    1    2    0    0  0.00000000000E+00  0.00000000000E+00  0.35527136788E-14  0.91188000000E+02  0.91188000000E+02 0.  0.
    9900012    2    3    3    0    0 -0.70014337973E+01 -0.21229069532E+02 -0.29258920789E+02  0.54367110357E+02  0.40000059680E+02 0.  0.
        -12    1    3    3    0    0  0.70014337973E+01  0.21229069532E+02  0.29258920789E+02  0.36820889643E+02  0.00000000000E+00 0.  1.
         11    1    4    4    0    0  0.11712729375E+02 -0.15512824889E+02 -0.24553969859E+02  0.31316660127E+02  0.51100000000E-03 0. -1.
        -11    1    4    4    0    0 -0.81048288213E+01  0.10535953907E+01  0.25023996859E+01  0.85475328557E+01  0.51100000000E-03 0.  1.
         12    1    4    4    0    0 -0.10609334351E+02 -0.67698400339E+01 -0.72073506162E+01  0.14502917374E+02  0.00000000000E+00 0. -1.
</event>
<event>
 8    1  0.1244838E-006  0.9118800E+02  0.7816164E-02  0.1184000E+00
        -11   -1    0    0    0    0  0.00000000000E+00  0.00000000000E+00  0.45593999997E+02  0.45594000000E+02  0.51100000000E-03 0.  1.
         11   -1    0    0    0    0 -0.00000000000E+00 -0.00000000000E+00 -0.45593999997E+02  0.45594000000E+02  0.51100000000E-03 0. -1.
         23    2    1    2    0    0  0.00000000000E+00 -0.17763568394E-14  0.00000000000E+00  0.91188000000E+02  0.91188000000E+02 0.  0.
    9900012    2    3    3    0    0 -0.30042930785E+02  0.10253950788E+02  0.18656379332E+02  0.54367059128E+02  0.39999942895E+02 0.  0.
         12    1    3    3    0    0  0.30042930785E+02 -0.10253950788E+02 -0.18656379332E+02  0.36820940872E+02  0.00000000000E+00 0. -1.
         11    1    4    4    0    0 -0.23037056742E+02 -0.16619279593E+01  0.14230381428E+02  0.27128799157E+02  0.51100000000E-03 0. -1.
        -11    1    4    4    0    0 -0.15289253350E+02  0.94913518448E+01  0.12412236102E+01  0.18038505042E+02  0.51100000000E-03 0.  1.
         12    1    4    4    0    0  0.82833793072E+01  0.24245269028E+01  0.31847742938E+01  0.91997549289E+01  0.00000000000E+00 0. -1.
</event>
<event>
 8    1  0.1244838E-006  0.9118800E+02  0.7816164E-02  0.1184000E+00
        -11   -1    0    0    0    0  0.00000000000E+00  0.00000000000E+00  0.45593999997E+02  0.45594000000E+02  0.51100000000E-03 0. -1.
         11   -1    0    0    0    0 -0.00000000000E+00 -0.00000000000E+00 -0.45593999997E+02  0.45594000000E+02  0.51100000000E-03 0.  1.
         23    2    1    2    0    0  0.00000000000E+00 -0.17763568394E-14  0.35527136788E-14  0.91188000000E+02  0.91188000000E+02 0.  0.
    9900012    2    3    3    0    0 -0.28231863800E+02  0.15569938982E+02 -0.17785326948E+02  0.54367095772E+02  0.40000026432E+02 0.  0.
         12    1    3    3    0    0  0.28231863800E+02 -0.15569938982E+02  0.17785326948E+02  0.36820904228E+02  0.00000000000E+00 0. -1.
         11    1    4    4    0    0 -0.69932463983E+01  0.30451682878E+01 -0.16529415966E+02  0.18204398851E+02  0.51100000000E-03 0. -1.
        -11    1    4    4    0    0 -0.21739000367E+01 -0.11116761236E+01  0.99050200346E+01  0.10201523774E+02  0.51100000000E-03 0.  1.
        -12    1    4    4    0    0 -0.19064717365E+02  0.13636446817E+02 -0.11160931017E+02  0.25961173147E+02  0.00000000000E+00 0.  1.
</event>
<event>
 8    1  0.1244838E-006  0.9118800E+02  0.7816164E-02  0.1184000E+00
        -11   -1    0    0    0    0  0.00000000000E+00  0.00000000000E+00  0.45593999997E+02  0.45594000000E+02  0.51100000000E-03 0.  1.
         11   -1    0    0    0    0 -0.00000000000E+00 -0.00000000000E+00 -0.45593999997E+02  0.45594000000E+02  0.51100000000E-03 0. -1.
         23    2    1    2    0    0  0.00000000000E+00  0.00000000000E+00 -0.17763568394E-14  0.91188000000E+02  0.91188000000E+02 0.  0.
    9900012    2    3    3    0    0 -0.34466023308E+02  0.67993604749E+01  0.11029081774E+02  0.54367099545E+02  0.40000035032E+02 0.  0.
        -12    1    3    3    0    0  0.34466023308E+02 -0.67993604749E+01 -0.11029081774E+02  0.36820900455E+02  0.00000000000E+00 0.  1.
         11    1    4    4    0    0 -0.26997731283E+02  0.28653604095E+01  0.12764916449E+02  0.30000514611E+02  0.51100000000E-03 0. -1.
        -11    1    4    4    0    0 -0.14640097403E+02  0.63099895960E+01 -0.40805322003E+01  0.16455976543E+02  0.51100000000E-03 0.  1.
        -12    1    4    4    0    0  0.71718053779E+01 -0.23759895306E+01  0.23446975256E+01  0.79106083910E+01  0.00000000000E+00 0.  1.
</event>
<event>
 8    1  0.1244838E-006  0.9118800E+02  0.7816164E-02  0.1184000E+00
        -11   -1    0    0    0    0  0.00000000000E+00  0.00000000000E+00  0.45593999997E+02  0.45594000000E+02  0.51100000000E-03 0.  1.
         11   -1    0    0    0    0 -0.00000000000E+00 -0.00000000000E+00 -0.45593999997E+02  0.45594000000E+02  0.51100000000E-03 0. -1.
         23    2    1    2    0    0 -0.17763568394E-14 -0.35527136788E-14  0.35527136788E-14  0.91188000000E+02  0.91188000000E+02 0.  0.
    9900012    2    3    3    0    0 -0.13991108005E+02  0.26658329160E+02 -0.21198164573E+02  0.54367084774E+02  0.40000001359E+02 0.  0.
        -12    1    3    3    0    0  0.13991108005E+02 -0.26658329160E+02  0.21198164573E+02  0.36820915226E+02  0.00000000000E+00 0.  1.
         11    1    4    4    0    0 -0.40495472505E+01  0.97893340181E+01 -0.13724677218E+02  0.17337723566E+02  0.51100000000E-03 0. -1.
        -11    1    4    4    0    0 -0.15273061271E+02  0.68897437827E+01 -0.15762169906E+02  0.23003933802E+02  0.51100000000E-03 0.  1.
         12    1    4    4    0    0  0.53315005166E+01  0.99792513596E+01  0.82886825516E+01  0.14025427405E+02  0.00000000000E+00 0. -1.
</event>
<event>
 8    1  0.1244838E-006  0.9118800E+02  0.7816164E-02  0.1184000E+00
        -11   -1    0    0    0    0  0.00000000000E+00  0.00000000000E+00  0.45593999997E+02  0.45594000000E+02  0.51100000000E-03 0. -1.
         11   -1    0    0    0    0 -0.00000000000E+00 -0.00000000000E+00 -0.45593999997E+02  0.45594000000E+02  0.51100000000E-03 0.  1.
         23    2    1    2    0    0  0.22204460493E-15  0.00000000000E+00  0.00000000000E+00  0.91188000000E+02  0.91188000000E+02 0.  0.
    9900012    2    3    3    0    0 -0.14183169149E+01  0.35582452585E+02  0.93625419423E+01  0.54367085475E+02  0.40000002958E+02 0.  0.
         12    1    3    3    0    0  0.14183169149E+01 -0.35582452585E+02 -0.93625419423E+01  0.36820914525E+02  0.00000000000E+00 0. -1.
         11    1    4    4    0    0  0.24380680408E+01  0.17659131375E+02  0.14457000401E+02  0.22951992453E+02  0.51100000000E-03 0. -1.
        -11    1    4    4    0    0 -0.14402365468E+02  0.98786610619E+01 -0.83781992454E+00  0.17484793906E+02  0.51100000000E-03 0.  1.
         12    1    4    4    0    0  0.10545980512E+02  0.80446601481E+01 -0.42566385345E+01  0.13930299117E+02  0.00000000000E+00 0. -1.
</event>
<event>
 8    1  0.1244838E-006  0.9118800E+02  0.7816164E-02  0.1184000E+00
        -11   -1    0    0    0    0  0.00000000000E+00  0.00000000000E+00  0.45593999997E+02  0.45594000000E+02  0.51100000000E-03 0.  1.
         11   -1    0    0    0    0 -0.00000000000E+00 -0.00000000000E+00 -0.45593999997E+02  0.45594000000E+02  0.51100000000E-03 0. -1.
         23    2    1    2    0    0  0.00000000000E+00  0.44408920985E-15 -0.17763568394E-14  0.91188000000E+02  0.91188000000E+02 0.  0.
    9900012    2    3    3    0    0 -0.33600285827E+02 -0.24648164156E+01  0.14856930592E+02  0.54367042458E+02  0.39999904893E+02 0.  0.
         12    1    3    3    0    0  0.33600285827E+02  0.24648164156E+01 -0.14856930592E+02  0.36820957542E+02  0.00000000000E+00 0. -1.
         11    1    4    4    0    0 -0.83085437906E+01 -0.30744200672E+01  0.16128950717E+02  0.18401820838E+02  0.51100000000E-03 0. -1.
        -11    1    4    4    0    0  0.36658420597E+01 -0.18926267528E+01  0.47405393006E+01  0.62843573381E+01  0.51100000000E-03 0.  1.
         12    1    4    4    0    0 -0.28957584097E+02  0.25022304044E+01 -0.60125594251E+01  0.29680864282E+02  0.00000000000E+00 0. -1.
</event>
<event>
 8    1  0.1244838E-006  0.9118800E+02  0.7816164E-02  0.1184000E+00
        -11   -1    0    0    0    0  0.00000000000E+00  0.00000000000E+00  0.45593999997E+02  0.45594000000E+02  0.51100000000E-03 0.  1.
         11   -1    0    0    0    0 -0.00000000000E+00 -0.00000000000E+00 -0.45593999997E+02  0.45594000000E+02  0.51100000000E-03 0. -1.
         23    2    1    2    0    0 -0.35527136788E-14  0.00000000000E+00 -0.44408920985E-15  0.91188000000E+02  0.91188000000E+02 0.  0.
    9900012    2    3    3    0    0  0.23812480919E+02  0.27991859895E+02  0.22806391133E+01  0.54367084984E+02  0.40000001838E+02 0.  0.
         12    1    3    3    0    0 -0.23812480919E+02 -0.27991859895E+02 -0.22806391133E+01  0.36820915016E+02  0.00000000000E+00 0. -1.
         11    1    4    4    0    0 -0.16668436560E+01  0.15734271906E+02 -0.86392290229E+01  0.18027255990E+02  0.51100000000E-03 0. -1.
        -11    1    4    4    0    0  0.21549067345E+02  0.10345058958E+01  0.11474457612E+02  0.24435541402E+02  0.51100000000E-03 0.  1.
        -12    1    4    4    0    0  0.39302572299E+01  0.11223082093E+02 -0.55458947557E+00  0.11904287591E+02  0.00000000000E+00 0.  1.
</event>
<event>
 8    1  0.1244838E-006  0.9118800E+02  0.7816164E-02  0.1184000E+00
        -11   -1    0    0    0    0  0.00000000000E+00  0.00000000000E+00  0.45593999997E+02  0.45594000000E+02  0.51100000000E-03 0.  1.
         11   -1    0    0    0    0 -0.00000000000E+00 -0.00000000000E+00 -0.45593999997E+02  0.45594000000E+02  0.51100000000E-03 0. -1.
         23    2    1    2    0    0  0.44408920985E-15 -0.17763568394E-14  0.00000000000E+00  0.91188000000E+02  0.91188000000E+02 0.  0.
    9900012    2    3    3    0    0  0.27462377759E+01  0.82442533666E+01  0.35780868934E+02  0.54367080442E+02  0.39999991483E+02 0.  0.
         12    1    3    3    0    0 -0.27462377759E+01 -0.82442533666E+01 -0.35780868934E+02  0.36820919558E+02  0.00000000000E+00 0. -1.
         11    1    4    4    0    0 -0.35048464462E+01  0.98347478689E+01  0.24893715706E+02  0.26994504926E+02  0.51100000000E-03 0. -1.
        -11    1    4    4    0    0  0.51858491115E+01  0.10059617477E+02  0.10843363416E+02  0.15673782735E+02  0.51100000000E-03 0.  1.
         12    1    4    4    0    0  0.10652351106E+01 -0.11650111980E+02  0.43789811406E-01  0.11698792781E+02  0.00000000000E+00 0. -1.
</event>
<event>
 8    1  0.1244838E-006  0.9118800E+02  0.7816164E-02  0.1184000E+00
        -11   -1    0    0    0    0  0.00000000000E+00  0.00000000000E+00  0.45593999997E+02  0.45594000000E+02  0.51100000000E-03 0. -1.
         11   -1    0    0    0    0 -0.00000000000E+00 -0.00000000000E+00 -0.45593999997E+02  0.45594000000E+02  0.51100000000E-03 0.  1.
         23    2    1    2    0    0 -0.16653345369E-14  0.00000000000E+00 -0.33306690739E-15  0.91188000000E+02  0.91188000000E+02 0.  0.
    9900012    2    3    3    0    0  0.57197075896E+00 -0.36808618489E+02 -0.76196186284E+00  0.54367053088E+02  0.39999929124E+02 0.  0.
         12    1    3    3    0    0 -0.57197075896E+00  0.36808618489E+02  0.76196186284E+00  0.36820946912E+02  0.00000000000E+00 0. -1.
         11    1    4    4    0    0  0.14498719055E+02 -0.14430601677E+02  0.81824534722E+01  0.22031969137E+02  0.51100000000E-03 0. -1.
        -11    1    4    4    0    0 -0.67122749267E+01 -0.22849721443E+02 -0.62737837916E+01  0.24627723566E+02  0.51100000000E-03 0.  1.
        -12    1    4    4    0    0 -0.72144733694E+01  0.47170462980E+00 -0.26706315434E+01  0.77073603845E+01  0.00000000000E+00 0.  1.
</event>
<event>
 8    1  0.1244838E-006  0.9118800E+02  0.7816164E-02  0.1184000E+00
        -11   -1    0    0    0    0  0.00000000000E+00  0.00000000000E+00  0.45593999997E+02  0.45594000000E+02  0.51100000000E-03 0. -1.
         11   -1    0    0    0    0 -0.00000000000E+00 -0.00000000000E+00 -0.45593999997E+02  0.45594000000E+02  0.51100000000E-03 0.  1.
         23    2    1    2    0    0  0.00000000000E+00  0.00000000000E+00  0.17763568394E-14  0.91188000000E+02  0.91188000000E+02 0.  0.
    9900012    2    3    3    0    0  0.25068455033E+02 -0.22590956104E+02 -0.14731027658E+02  0.54367056079E+02  0.39999935942E+02 0.  0.
         12    1    3    3    0    0 -0.25068455033E+02  0.22590956104E+02  0.14731027658E+02  0.36820943921E+02  0.00000000000E+00 0. -1.
         11    1    4    4    0    0  0.15600655265E+00 -0.24537169368E+01 -0.37428638264E+01  0.44781798462E+01  0.51100000000E-03 0. -1.
        -11    1    4    4    0    0  0.28757117954E+02 -0.22044732829E+02 -0.18915224531E+02  0.40874537279E+02  0.51100000000E-03 0.  1.
         12    1    4    4    0    0 -0.38446694738E+01  0.19074936621E+01  0.79270606990E+01  0.90143389530E+01  0.00000000000E+00 0. -1.
</event>
<event>
 8    1  0.1244838E-006  0.9118800E+02  0.7816164E-02  0.1184000E+00
        -11   -1    0    0    0    0  0.00000000000E+00  0.00000000000E+00  0.45593999997E+02  0.45594000000E+02  0.51100000000E-03 0. -1.
         11   -1    0    0    0    0 -0.00000000000E+00 -0.00000000000E+00 -0.45593999997E+02  0.45594000000E+02  0.51100000000E-03 0.  1.
         23    2    1    2    0    0  0.00000000000E+00  0.00000000000E+00  0.35527136788E-14  0.91188000000E+02  0.91188000000E+02 0.  0.
    9900012    2    3    3    0    0 -0.92647984303E+01  0.16158478335E+02 -0.31762353622E+02  0.54367081765E+02  0.39999994500E+02 0.  0.
         12    1    3    3    0    0  0.92647984303E+01 -0.16158478335E+02  0.31762353622E+02  0.36820918235E+02  0.00000000000E+00 0. -1.
         11    1    4    4    0    0  0.23191622374E+01  0.14839373527E+02 -0.82024097718E+01  0.17113300280E+02  0.51100000000E-03 0. -1.
        -11    1    4    4    0    0 -0.73669852791E+01 -0.12435737137E+02 -0.11168245839E+02  0.18266081836E+02  0.51100000000E-03 0.  1.
        -12    1    4    4    0    0 -0.42169753886E+01  0.13754841945E+02 -0.12391698011E+02  0.18987699649E+02  0.00000000000E+00 0.  1.
</event>
<event>
 8    1  0.1244838E-006  0.9118800E+02  0.7816164E-02  0.1184000E+00
        -11   -1    0    0    0    0  0.00000000000E+00  0.00000000000E+00  0.45593999997E+02  0.45594000000E+02  0.51100000000E-03 0. -1.
         11   -1    0    0    0    0 -0.00000000000E+00 -0.00000000000E+00 -0.45593999997E+02  0.45594000000E+02  0.51100000000E-03 0.  1.
         23    2    1    2    0    0 -0.44408920985E-15 -0.17763568394E-14  0.00000000000E+00  0.91188000000E+02  0.91188000000E+02 0.  0.
    9900012    2    3    3    0    0 -0.22963861507E+01 -0.82926803138E+01  0.35801362525E+02  0.54367088892E+02  0.40000010747E+02 0.  0.
        -12    1    3    3    0    0  0.22963861507E+01  0.82926803138E+01 -0.35801362525E+02  0.36820911108E+02  0.00000000000E+00 0.  1.
         11    1    4    4    0    0  0.37571538525E+01  0.43258602921E+01  0.10008011606E+02  0.11532110341E+02  0.51100000000E-03 0. -1.
        -11    1    4    4    0    0  0.66456011770E+00 -0.18940353334E+02  0.27555072498E+02  0.33443394642E+02  0.51100000000E-03 0.  1.
        -12    1    4    4    0    0 -0.67181001209E+01  0.63218127280E+01 -0.17617215787E+01  0.93915839092E+01  0.00000000000E+00 0.  1.
</event>
<event>
 8    1  0.1244838E-006  0.9118800E+02  0.7816164E-02  0.1184000E+00
        -11   -1    0    0    0    0  0.00000000000E+00  0.00000000000E+00  0.45593999997E+02  0.45594000000E+02  0.51100000000E-03 0. -1.
         11   -1    0    0    0    0 -0.00000000000E+00 -0.00000000000E+00 -0.45593999997E+02  0.45594000000E+02  0.51100000000E-03 0.  1.
         23    2    1    2    0    0  0.00000000000E+00 -0.17763568394E-14  0.71054273576E-14  0.91188000000E+02  0.91188000000E+02 0.  0.
    9900012    2    3    3    0    0  0.22487450126E+02 -0.14231137530E+02  0.25447411476E+02  0.54367062486E+02  0.39999950550E+02 0.  0.
        -12    1    3    3    0    0 -0.22487450126E+02  0.14231137530E+02 -0.25447411476E+02  0.36820937514E+02  0.00000000000E+00 0.  1.
         11    1    4    4    0    0  0.11582652345E+02 -0.11917851070E+02  0.34391330568E+02  0.38196290762E+02  0.51100000000E-03 0. -1.
        -11    1    4    4    0    0  0.58043148026E+01 -0.19382124696E+01 -0.29938888308E+00  0.61266933879E+01  0.51100000000E-03 0.  1.
        -12    1    4    4    0    0  0.51004829780E+01 -0.37507399092E+00 -0.86445302088E+01  0.10044078337E+02  0.00000000000E+00 0.  1.
</event>
<event>
 8    1  0.1244838E-006  0.9118800E+02  0.7816164E-02  0.1184000E+00
        -11   -1    0    0    0    0  0.00000000000E+00  0.00000000000E+00  0.45593999997E+02  0.45594000000E+02  0.51100000000E-03 0.  1.
         11   -1    0    0    0    0 -0.00000000000E+00 -0.00000000000E+00 -0.45593999997E+02  0.45594000000E+02  0.51100000000E-03 0. -1.
         23    2    1    2    0    0  0.00000000000E+00  0.00000000000E+00 -0.17763568394E-14  0.91188000000E+02  0.91188000000E+02 0.  0.
    9900012    2    3    3    0    0 -0.24836715729E+02 -0.26867858574E+02  0.41272951626E+01  0.54367097813E+02  0.40000031084E+02 0.  0.
        -12    1    3    3    0    0  0.24836715729E+02  0.26867858574E+02 -0.41272951626E+01  0.36820902187E+02  0.00000000000E+00 0.  1.
         11    1    4    4    0    0  0.76878762488E+00 -0.49974277936E+01 -0.14140983696E+02  0.15017747472E+02  0.51100000000E-03 0. -1.
        -11    1    4    4    0    0 -0.71640225891E+01 -0.14780918722E+01  0.46438742020E+01  0.86644990106E+01  0.51100000000E-03 0.  1.
         12    1    4    4    0    0 -0.18441480765E+02 -0.20392338908E+02  0.13624404657E+02  0.30684851330E+02  0.00000000000E+00 0. -1.
</event>
<event>
 8    1  0.1244838E-006  0.9118800E+02  0.7816164E-02  0.1184000E+00
        -11   -1    0    0    0    0  0.00000000000E+00  0.00000000000E+00  0.45593999997E+02  0.45594000000E+02  0.51100000000E-03 0.  1.
         11   -1    0    0    0    0 -0.00000000000E+00 -0.00000000000E+00 -0.45593999997E+02  0.45594000000E+02  0.51100000000E-03 0. -1.
         23    2    1    2    0    0 -0.35527136788E-14  0.35527136788E-14  0.00000000000E+00  0.91188000000E+02  0.91188000000E+02 0.  0.
    9900012    2    3    3    0    0 -0.28391254209E+02 -0.19771140428E+02 -0.12602389540E+02  0.54367061236E+02  0.39999947699E+02 0.  0.
        -12    1    3    3    0    0  0.28391254209E+02  0.19771140428E+02  0.12602389540E+02  0.36820938764E+02  0.00000000000E+00 0.  1.
         11    1    4    4    0    0 -0.18568219157E+02 -0.15937251720E+02  0.15929601427E+01  0.24521669546E+02  0.51100000000E-03 0. -1.
        -11    1    4    4    0    0 -0.10558057124E+02  0.86438074386E+01 -0.60491973871E+01  0.14925842240E+02  0.51100000000E-03 0.  1.
        -12    1    4    4    0    0  0.73502207201E+00 -0.12477696146E+02 -0.81461522960E+01  0.14919549450E+02  0.00000000000E+00 0.  1.
</event>
<event>
 8    1  0.1244838E-006  0.9118800E+02  0.7816164E-02  0.1184000E+00
        -11   -1    0    0    0    0  0.00000000000E+00  0.00000000000E+00  0.45593999997E+02  0.45594000000E+02  0.51100000000E-03 0. -1.
         11   -1    0    0    0    0 -0.00000000000E+00 -0.00000000000E+00 -0.45593999997E+02  0.45594000000E+02  0.51100000000E-03 0.  1.
         23    2    1    2    0    0  0.00000000000E+00  0.31086244690E-14  0.00000000000E+00  0.91188000000E+02  0.91188000000E+02 0.  0.
    9900012    2    3    3    0    0 -0.18691499921E+02  0.29381406700E+01  0.31587570317E+02  0.54367089658E+02  0.40000012494E+02 0.  0.
        -12    1    3    3    0    0  0.18691499921E+02 -0.29381406700E+01 -0.31587570317E+02  0.36820910342E+02  0.00000000000E+00 0.  1.
         11    1    4    4    0    0 -0.84877096854E+01  0.14209170345E+02  0.28997953835E+02  0.33388966208E+02  0.51100000000E-03 0. -1.
        -11    1    4    4    0    0 -0.30471823417E+01  0.19700161587E+01 -0.32133926335E+01  0.48468728442E+01  0.51100000000E-03 0.  1.
         12    1    4    4    0    0 -0.71566078938E+01 -0.13241045833E+02  0.58030091155E+01  0.16131250606E+02  0.00000000000E+00 0. -1.
</event>
<event>
 8    1  0.1244838E-006  0.9118800E+02  0.7816164E-02  0.1184000E+00
        -11   -1    0    0    0    0  0.00000000000E+00  0.00000000000E+00  0.45593999997E+02  0.45594000000E+02  0.51100000000E-03 0.  1.
         11   -1    0    0    0    0 -0.00000000000E+00 -0.00000000000E+00 -0.45593999997E+02  0.45594000000E+02  0.51100000000E-03 0. -1.
         23    2    1    2    0    0  0.00000000000E+00 -0.88817841970E-15  0.00000000000E+00  0.91188000000E+02  0.91188000000E+02 0.  0.
    9900012    2    3    3    0    0  0.33828760743E+02  0.29202375941E+01  0.14243160646E+02  0.54367075701E+02  0.39999980676E+02 0.  0.
        -12    1    3    3    0    0 -0.33828760743E+02 -0.29202375941E+01 -0.14243160646E+02  0.36820924299E+02  0.00000000000E+00 0.  1.
         11    1    4    4    0    0  0.28957578161E+02  0.78665103619E+01  0.13415994041E+01  0.30037030603E+02  0.51100000000E-03 0. -1.
        -11    1    4    4    0    0 -0.58223662630E+01 -0.34751753207E+01 -0.86569876584E+00  0.68356584924E+01  0.51100000000E-03 0.  1.
        -12    1    4    4    0    0  0.10693548845E+02 -0.14710974471E+01  0.13767260008E+02  0.17494386606E+02  0.00000000000E+00 0.  1.
</event>
<event>
 8    1  0.1244838E-006  0.9118800E+02  0.7816164E-02  0.1184000E+00
        -11   -1    0    0    0    0  0.00000000000E+00  0.00000000000E+00  0.45593999997E+02  0.45594000000E+02  0.51100000000E-03 0. -1.
         11   -1    0    0    0    0 -0.00000000000E+00 -0.00000000000E+00 -0.45593999997E+02  0.45594000000E+02  0.51100000000E-03 0.  1.
         23    2    1    2    0    0  0.00000000000E+00 -0.17763568394E-14  0.00000000000E+00  0.91188000000E+02  0.91188000000E+02 0.  0.
    9900012    2    3    3    0    0  0.17401207589E+02 -0.14536415554E+02  0.29011512021E+02  0.54367119613E+02  0.40000080781E+02 0.  0.
        -12    1    3    3    0    0 -0.17401207589E+02  0.14536415554E+02 -0.29011512021E+02  0.36820880387E+02  0.00000000000E+00 0.  1.
         11    1    4    4    0    0  0.80074593557E-01  0.29827198008E+01  0.34478582132E+00  0.30036489266E+01  0.51100000000E-03 0. -1.
        -11    1    4    4    0    0  0.13303407516E+02  0.34597355557E+01  0.26551701565E+02  0.29898884225E+02  0.51100000000E-03 0.  1.
         12    1    4    4    0    0  0.40177254795E+01 -0.20978870911E+02  0.21150246351E+01  0.21464586461E+02  0.00000000000E+00 0. -1.
</event>
<event>
 8    1  0.1244838E-006  0.9118800E+02  0.7816164E-02  0.1184000E+00
        -11   -1    0    0    0    0  0.00000000000E+00  0.00000000000E+00  0.45593999997E+02  0.45594000000E+02  0.51100000000E-03 0. -1.
         11   -1    0    0    0    0 -0.00000000000E+00 -0.00000000000E+00 -0.45593999997E+02  0.45594000000E+02  0.51100000000E-03 0.  1.
         23    2    1    2    0    0  0.00000000000E+00  0.00000000000E+00 -0.71054273576E-14  0.91188000000E+02  0.91188000000E+02 0.  0.
    9900012    2    3    3    0    0  0.12181387940E+02  0.28523664154E+01 -0.34630292459E+02  0.54367090694E+02  0.40000014856E+02 0.  0.
         12    1    3    3    0    0 -0.12181387940E+02 -0.28523664154E+01  0.34630292459E+02  0.36820909306E+02  0.00000000000E+00 0. -1.
         11    1    4    4    0    0  0.41219482740E+01  0.19969343619E+01 -0.43430838518E+00  0.46007421634E+01  0.51100000000E-03 0. -1.
        -11    1    4    4    0    0  0.14013961982E+01  0.62271386986E+01 -0.39293111215E+02  0.39808161939E+02  0.51100000000E-03 0.  1.
        -12    1    4    4    0    0  0.66580434682E+01 -0.53717066451E+01  0.50971271420E+01  0.99581865923E+01  0.00000000000E+00 0.  1.
</event>
<event>
 8    1  0.1244838E-006  0.9118800E+02  0.7816164E-02  0.1184000E+00
        -11   -1    0    0    0    0  0.00000000000E+00  0.00000000000E+00  0.45593999997E+02  0.45594000000E+02  0.51100000000E-03 0. -1.
         11   -1    0    0    0    0 -0.00000000000E+00 -0.00000000000E+00 -0.45593999997E+02  0.45594000000E+02  0.51100000000E-03 0.  1.
         23    2    1    2    0    0  0.71054273576E-14  0.00000000000E+00 -0.17763568394E-14  0.91188000000E+02  0.91188000000E+02 0.  0.
    9900012    2    3    3    0    0  0.35511328839E+02 -0.85636892506E+01  0.46249161901E+01  0.54367067105E+02  0.39999961080E+02 0.  0.
        -12    1    3    3    0    0 -0.35511328839E+02  0.85636892506E+01 -0.46249161901E+01  0.36820932895E+02  0.00000000000E+00 0.  1.
         11    1    4    4    0    0  0.13284149475E+02 -0.26403135820E+01  0.44272074544E+01  0.14249212230E+02  0.51100000000E-03 0.  1.
        -11    1    4    4    0    0 -0.17086652594E+00  0.62715465103E+00  0.13326261248E+02  0.13342104686E+02  0.51100000000E-03 0. -1.
        -12    1    4    4    0    0  0.22398045890E+02 -0.65505303197E+01 -0.13128552512E+02  0.26775750190E+02  0.00000000000E+00 0.  1.
</event>
<event>
 8    1  0.1244838E-006  0.9118800E+02  0.7816164E-02  0.1184000E+00
        -11   -1    0    0    0    0  0.00000000000E+00  0.00000000000E+00  0.45593999997E+02  0.45594000000E+02  0.51100000000E-03 0. -1.
         11   -1    0    0    0    0 -0.00000000000E+00 -0.00000000000E+00 -0.45593999997E+02  0.45594000000E+02  0.51100000000E-03 0.  1.
         23    2    1    2    0    0  0.00000000000E+00  0.00000000000E+00  0.00000000000E+00  0.91188000000E+02  0.91188000000E+02 0.  0.
    9900012    2    3    3    0    0  0.30768471917E+02  0.18723041153E+02  0.76503820510E+01  0.54367089099E+02  0.40000011218E+02 0.  0.
         12    1    3    3    0    0 -0.30768471917E+02 -0.18723041153E+02 -0.76503820510E+01  0.36820910901E+02  0.00000000000E+00 0. -1.
         11    1    4    4    0    0  0.71963111625E+01  0.15128467035E+01  0.11654828428E+02  0.13780806415E+02  0.51100000000E-03 0. -1.
        -11    1    4    4    0    0  0.11951615519E+02  0.18818293430E+02 -0.12997033487E+02  0.25804886376E+02  0.51100000000E-03 0.  1.
        -12    1    4    4    0    0  0.11620545235E+02 -0.16080989807E+01  0.89925871096E+01  0.14781396308E+02  0.00000000000E+00 0.  1.
</event>
<event>
 8    1  0.1244838E-006  0.9118800E+02  0.7816164E-02  0.1184000E+00
        -11   -1    0    0    0    0  0.00000000000E+00  0.00000000000E+00  0.45593999997E+02  0.45594000000E+02  0.51100000000E-03 0.  1.
         11   -1    0    0    0    0 -0.00000000000E+00 -0.00000000000E+00 -0.45593999997E+02  0.45594000000E+02  0.51100000000E-03 0. -1.
         23    2    1    2    0    0  0.35527136788E-14  0.00000000000E+00  0.00000000000E+00  0.91188000000E+02  0.91188000000E+02 0.  0.
    9900012    2    3    3    0    0  0.24046374754E+02 -0.15456848746E+02 -0.23208598548E+02  0.54367063585E+02  0.39999953054E+02 0.  0.
        -12    1    3    3    0    0 -0.24046374754E+02  0.15456848746E+02  0.23208598548E+02  0.36820936415E+02  0.00000000000E+00 0.  1.
         11    1    4    4    0    0  0.66280005438E+00 -0.47783687811E+01 -0.38258319699E+01  0.61570368395E+01  0.51100000000E-03 0. -1.
        -11    1    4    4    0    0 -0.51143901684E+01  0.24432787779E+01  0.57027649152E+01  0.80404058306E+01  0.51100000000E-03 0.  1.
        -12    1    4    4    0    0  0.28497964868E+02 -0.13121758743E+02 -0.25085531493E+02  0.40169620914E+02  0.00000000000E+00 0.  1.
</event>
<event>
 8    1  0.1244838E-006  0.9118800E+02  0.7816164E-02  0.1184000E+00
        -11   -1    0    0    0    0  0.00000000000E+00  0.00000000000E+00  0.45593999997E+02  0.45594000000E+02  0.51100000000E-03 0. -1.
         11   -1    0    0    0    0 -0.00000000000E+00 -0.00000000000E+00 -0.45593999997E+02  0.45594000000E+02  0.51100000000E-03 0.  1.
         23    2    1    2    0    0 -0.17763568394E-14  0.00000000000E+00  0.00000000000E+00  0.91188000000E+02  0.91188000000E+02 0.  0.
    9900012    2    3    3    0    0  0.11481483019E+02  0.19056211177E+02  0.29339672908E+02  0.54367081447E+02  0.39999993776E+02 0.  0.
        -12    1    3    3    0    0 -0.11481483019E+02 -0.19056211177E+02 -0.29339672908E+02  0.36820918553E+02  0.00000000000E+00 0.  1.
         11    1    4    4    0    0  0.72078978429E+01  0.67476012668E+01  0.23956215032E+02  0.25911081666E+02  0.51100000000E-03 0. -1.
        -11    1    4    4    0    0  0.38761495455E+01 -0.57933125959E+01 -0.40271892224E+01  0.80501713912E+01  0.51100000000E-03 0.  1.
        -12    1    4    4    0    0  0.39743563027E+00  0.18101922506E+02  0.94106470980E+01  0.20405828390E+02  0.00000000000E+00 0.  1.
</event>
<event>
 8    1  0.1244838E-006  0.9118800E+02  0.7816164E-02  0.1184000E+00
        -11   -1    0    0    0    0  0.00000000000E+00  0.00000000000E+00  0.45593999997E+02  0.45594000000E+02  0.51100000000E-03 0.  1.
         11   -1    0    0    0    0 -0.00000000000E+00 -0.00000000000E+00 -0.45593999997E+02  0.45594000000E+02  0.51100000000E-03 0. -1.
         23    2    1    2    0    0  0.00000000000E+00  0.00000000000E+00  0.17763568394E-14  0.91188000000E+02  0.91188000000E+02 0.  0.
    9900012    2    3    3    0    0 -0.24621950761E+02  0.23380363893E+02 -0.14244212844E+02  0.54367089167E+02  0.40000011373E+02 0.  0.
        -12    1    3    3    0    0  0.24621950761E+02 -0.23380363893E+02  0.14244212844E+02  0.36820910833E+02  0.00000000000E+00 0.  1.
         11    1    4    4    0    0  0.42350649525E+01 -0.14726556631E+01 -0.72194814836E+01  0.84985529949E+01  0.51100000000E-03 0. -1.
        -11    1    4    4    0    0 -0.18013653874E+02  0.89509268532E+01 -0.14941125805E+02  0.25056896416E+02  0.51100000000E-03 0.  1.
        -12    1    4    4    0    0 -0.10843361839E+02  0.15902092703E+02  0.79163944446E+01  0.20811639755E+02  0.00000000000E+00 0.  1.
</event>
<event>
 8    1  0.1244838E-006  0.9118800E+02  0.7816164E-02  0.1184000E+00
        -11   -1    0    0    0    0  0.00000000000E+00  0.00000000000E+00  0.45593999997E+02  0.45594000000E+02  0.51100000000E-03 0.  1.
         11   -1    0    0    0    0 -0.00000000000E+00 -0.00000000000E+00 -0.45593999997E+02  0.45594000000E+02  0.51100000000E-03 0. -1.
         23    2    1    2    0    0 -0.88817841970E-15  0.00000000000E+00  0.35527136788E-14  0.91188000000E+02  0.91188000000E+02 0.  0.
    9900012    2    3    3    0    0 -0.55858942412E+01  0.34429117860E+02  0.11798872857E+02  0.54367085131E+02  0.40000002173E+02 0.  0.
         12    1    3    3    0    0  0.55858942412E+01 -0.34429117860E+02 -0.11798872857E+02  0.36820914869E+02  0.00000000000E+00 0. -1.
         11    1    4    4    0    0  0.40713053837E+01  0.36715123857E+01 -0.46775428701E+01  0.72065899209E+01  0.51100000000E-03 0. -1.
        -11    1    4    4    0    0  0.68747526505E+01  0.21334054646E+02  0.16987696604E+02  0.28124472401E+02  0.51100000000E-03 0.  1.
        -12    1    4    4    0    0 -0.16531952275E+02  0.94235508284E+01 -0.51128087758E+00  0.19036022809E+02  0.00000000000E+00 0.  1.
</event>
<event>
 8    1  0.1244838E-006  0.9118800E+02  0.7816164E-02  0.1184000E+00
        -11   -1    0    0    0    0  0.00000000000E+00  0.00000000000E+00  0.45593999997E+02  0.45594000000E+02  0.51100000000E-03 0.  1.
         11   -1    0    0    0    0 -0.00000000000E+00 -0.00000000000E+00 -0.45593999997E+02  0.45594000000E+02  0.51100000000E-03 0. -1.
         23    2    1    2    0    0  0.00000000000E+00 -0.35527136788E-14  0.00000000000E+00  0.91188000000E+02  0.91188000000E+02 0.  0.
    9900012    2    3    3    0    0 -0.16046885965E+02 -0.19124704461E+02 -0.27065163115E+02  0.54367083060E+02  0.39999997451E+02 0.  0.
        -12    1    3    3    0    0  0.16046885965E+02  0.19124704461E+02  0.27065163115E+02  0.36820916940E+02  0.00000000000E+00 0.  1.
         11    1    4    4    0    0 -0.12464686097E+02  0.26878482807E+01 -0.27508306255E+01  0.13044538983E+02  0.51100000000E-03 0. -1.
        -11    1    4    4    0    0  0.89937707990E+01 -0.22145975045E+01 -0.29500975467E+01  0.97208760453E+01  0.51100000000E-03 0.  1.
         12    1    4    4    0    0 -0.12575970667E+02 -0.19597955237E+02 -0.21364234943E+02  0.31601668032E+02  0.00000000000E+00 0. -1.
</event>
<event>
 8    1  0.1244838E-006  0.9118800E+02  0.7816164E-02  0.1184000E+00
        -11   -1    0    0    0    0  0.00000000000E+00  0.00000000000E+00  0.45593999997E+02  0.45594000000E+02  0.51100000000E-03 0.  1.
         11   -1    0    0    0    0 -0.00000000000E+00 -0.00000000000E+00 -0.45593999997E+02  0.45594000000E+02  0.51100000000E-03 0. -1.
         23    2    1    2    0    0 -0.71054273576E-14  0.35527136788E-14  0.00000000000E+00  0.91188000000E+02  0.91188000000E+02 0.  0.
    9900012    2    3    3    0    0  0.32098159570E+02 -0.16075338326E+02 -0.81897360875E+01  0.54367080304E+02  0.39999991169E+02 0.  0.
        -12    1    3    3    0    0 -0.32098159570E+02  0.16075338326E+02  0.81897360875E+01  0.36820919696E+02  0.00000000000E+00 0.  1.
         11    1    4    4    0    0  0.21993103996E+02 -0.14750948371E+02 -0.10641290688E+02  0.28539869814E+02  0.51100000000E-03 0. -1.
        -11    1    4    4    0    0  0.12483595282E+01 -0.52284749994E+01  0.11426332071E+02  0.12627605362E+02  0.51100000000E-03 0.  1.
        -12    1    4    4    0    0  0.88566960463E+01  0.39040850448E+01 -0.89747774699E+01  0.13199605128E+02  0.00000000000E+00 0.  1.
</event>
<event>
 8    1  0.1244838E-006  0.9118800E+02  0.7816164E-02  0.1184000E+00
        -11   -1    0    0    0    0  0.00000000000E+00  0.00000000000E+00  0.45593999997E+02  0.45594000000E+02  0.51100000000E-03 0.  1.
         11   -1    0    0    0    0 -0.00000000000E+00 -0.00000000000E+00 -0.45593999997E+02  0.45594000000E+02  0.51100000000E-03 0. -1.
         23    2    1    2    0    0 -0.35527136788E-14  0.66613381478E-15  0.00000000000E+00  0.91188000000E+02  0.91188000000E+02 0.  0.
    9900012    2    3    3    0    0  0.31658196503E+02 -0.17280233067E+01  0.18723116523E+02  0.54367047232E+02  0.39999915776E+02 0.  0.
         12    1    3    3    0    0 -0.31658196503E+02  0.17280233067E+01 -0.18723116523E+02  0.36820952768E+02  0.00000000000E+00 0. -1.
         11    1    4    4    0    0  0.20022024453E+02 -0.10688572325E+02  0.28219752779E+02  0.36214382346E+02  0.51100000000E-03 0. -1.
        -11    1    4    4    0    0  0.47419287869E+01  0.32236872790E+01 -0.10437553613E+01  0.58281621295E+01  0.51100000000E-03 0.  1.
         12    1    4    4    0    0  0.68942432635E+01  0.57368617389E+01 -0.84528808946E+01  0.12324502757E+02  0.00000000000E+00 0. -1.
</event>
<event>
 8    1  0.1244838E-006  0.9118800E+02  0.7816164E-02  0.1184000E+00
        -11   -1    0    0    0    0  0.00000000000E+00  0.00000000000E+00  0.45593999997E+02  0.45594000000E+02  0.51100000000E-03 0.  1.
         11   -1    0    0    0    0 -0.00000000000E+00 -0.00000000000E+00 -0.45593999997E+02  0.45594000000E+02  0.51100000000E-03 0. -1.
         23    2    1    2    0    0  0.88817841970E-15  0.00000000000E+00  0.00000000000E+00  0.91188000000E+02  0.91188000000E+02 0.  0.
    9900012    2    3    3    0    0 -0.34522561713E+01 -0.33598479667E+02  0.14663087893E+02  0.54367054124E+02  0.39999931487E+02 0.  0.
         12    1    3    3    0    0  0.34522561713E+01  0.33598479667E+02 -0.14663087893E+02  0.36820945876E+02  0.00000000000E+00 0. -1.
         11    1    4    4    0    0 -0.94433510970E+01  0.24230745556E+01  0.22420046562E+01  0.10003737071E+02  0.51100000000E-03 0. -1.
        -11    1    4    4    0    0  0.14247886883E+02 -0.25512732187E+02  0.87617946274E+01  0.30506898067E+02  0.51100000000E-03 0.  1.
         12    1    4    4    0    0 -0.82567919575E+01 -0.10508822036E+02  0.36592886095E+01  0.13856418987E+02  0.00000000000E+00 0. -1.
</event>
<event>
 8    1  0.1244838E-006  0.9118800E+02  0.7816164E-02  0.1184000E+00
        -11   -1    0    0    0    0  0.00000000000E+00  0.00000000000E+00  0.45593999997E+02  0.45594000000E+02  0.51100000000E-03 0.  1.
         11   -1    0    0    0    0 -0.00000000000E+00 -0.00000000000E+00 -0.45593999997E+02  0.45594000000E+02  0.51100000000E-03 0. -1.
         23    2    1    2    0    0  0.00000000000E+00 -0.17763568394E-14 -0.17763568394E-14  0.91188000000E+02  0.91188000000E+02 0.  0.
    9900012    2    3    3    0    0  0.31448897563E+02  0.14978012419E+02  0.11933409136E+02  0.54367078399E+02  0.39999986826E+02 0.  0.
        -12    1    3    3    0    0 -0.31448897563E+02 -0.14978012419E+02 -0.11933409136E+02  0.36820921601E+02  0.00000000000E+00 0.  1.
         11    1    4    4    0    0  0.15493092711E+02  0.87793223695E+01 -0.19366838504E+01  0.17912653840E+02  0.51100000000E-03 0. -1.
        -11    1    4    4    0    0  0.16830428563E+02  0.14408536204E+02  0.16680609684E+02  0.27732868240E+02  0.51100000000E-03 0.  1.
        -12    1    4    4    0    0 -0.87462371056E+00 -0.82098461543E+01 -0.28105166973E+01  0.87215563185E+01  0.00000000000E+00 0.  1.
</event>
<event>
 8    1  0.1244838E-006  0.9118800E+02  0.7816164E-02  0.1184000E+00
        -11   -1    0    0    0    0  0.00000000000E+00  0.00000000000E+00  0.45593999997E+02  0.45594000000E+02  0.51100000000E-03 0.  1.
         11   -1    0    0    0    0 -0.00000000000E+00 -0.00000000000E+00 -0.45593999997E+02  0.45594000000E+02  0.51100000000E-03 0. -1.
         23    2    1    2    0    0  0.00000000000E+00 -0.35527136788E-14 -0.26645352591E-14  0.91188000000E+02  0.91188000000E+02 0.  0.
    9900012    2    3    3    0    0  0.27214165511E+02 -0.24122233089E+02 -0.57694707073E+01  0.54367085754E+02  0.40000003593E+02 0.  0.
        -12    1    3    3    0    0 -0.27214165511E+02  0.24122233089E+02  0.57694707073E+01  0.36820914246E+02  0.00000000000E+00 0.  1.
         11    1    4    4    0    0  0.21260074466E+02 -0.21042111376E+02 -0.10644524513E+02  0.31750072753E+02  0.51100000000E-03 0. -1.
        -11    1    4    4    0    0  0.67760016092E+01  0.49016798945E+01  0.10045776647E+02  0.13071277378E+02  0.51100000000E-03 0.  1.
        -12    1    4    4    0    0 -0.82191056391E+00 -0.79818016075E+01 -0.51707228413E+01  0.95457356227E+01  0.00000000000E+00 0.  1.
</event>
<event>
 8    1  0.1244838E-006  0.9118800E+02  0.7816164E-02  0.1184000E+00
        -11   -1    0    0    0    0  0.00000000000E+00  0.00000000000E+00  0.45593999997E+02  0.45594000000E+02  0.51100000000E-03 0.  1.
         11   -1    0    0    0    0 -0.00000000000E+00 -0.00000000000E+00 -0.45593999997E+02  0.45594000000E+02  0.51100000000E-03 0. -1.
         23    2    1    2    0    0  0.00000000000E+00  0.00000000000E+00  0.88817841970E-15  0.91188000000E+02  0.91188000000E+02 0.  0.
    9900012    2    3    3    0    0  0.36112039075E+02  0.27568390850E+01 -0.66407296036E+01  0.54367098089E+02  0.40000031713E+02 0.  0.
        -12    1    3    3    0    0 -0.36112039075E+02 -0.27568390850E+01  0.66407296036E+01  0.36820901911E+02  0.00000000000E+00 0.  1.
         11    1    4    4    0    0  0.20526965061E+02 -0.14169016280E+02 -0.72545907254E+01  0.25975881194E+02  0.51100000000E-03 0. -1.
        -11    1    4    4    0    0 -0.15656594955E+01 -0.18194786496E+01  0.17307874160E+01  0.29592934212E+01  0.51100000000E-03 0.  1.
        -12    1    4    4    0    0  0.17150733510E+02  0.18745334014E+02 -0.11169262943E+01  0.25431923474E+02  0.00000000000E+00 0.  1.
</event>
<event>
 8    1  0.1244838E-006  0.9118800E+02  0.7816164E-02  0.1184000E+00
        -11   -1    0    0    0    0  0.00000000000E+00  0.00000000000E+00  0.45593999997E+02  0.45594000000E+02  0.51100000000E-03 0.  1.
         11   -1    0    0    0    0 -0.00000000000E+00 -0.00000000000E+00 -0.45593999997E+02  0.45594000000E+02  0.51100000000E-03 0. -1.
         23    2    1    2    0    0  0.00000000000E+00  0.17763568394E-14 -0.88817841970E-15  0.91188000000E+02  0.91188000000E+02 0.  0.
    9900012    2    3    3    0    0  0.34232298629E+02 -0.12034369896E+02 -0.62532105157E+01  0.54367096019E+02  0.40000026995E+02 0.  0.
         12    1    3    3    0    0 -0.34232298629E+02  0.12034369896E+02  0.62532105157E+01  0.36820903981E+02  0.00000000000E+00 0. -1.
         11    1    4    4    0    0  0.26035268806E+00 -0.24621838884E+01 -0.81817488795E+01  0.85481663537E+01  0.51100000000E-03 0. -1.
        -11    1    4    4    0    0  0.32085590898E+01 -0.30500895068E+01  0.12006289747E+02  0.12796440567E+02  0.51100000000E-03 0.  1.
         12    1    4    4    0    0  0.30763386851E+02 -0.65220965008E+01 -0.10077751383E+02  0.33022489098E+02  0.00000000000E+00 0. -1.
</event>
<event>
 8    1  0.1244838E-006  0.9118800E+02  0.7816164E-02  0.1184000E+00
        -11   -1    0    0    0    0  0.00000000000E+00  0.00000000000E+00  0.45593999997E+02  0.45594000000E+02  0.51100000000E-03 0. -1.
         11   -1    0    0    0    0 -0.00000000000E+00 -0.00000000000E+00 -0.45593999997E+02  0.45594000000E+02  0.51100000000E-03 0.  1.
         23    2    1    2    0    0 -0.97144514655E-16  0.00000000000E+00  0.00000000000E+00  0.91188000000E+02  0.91188000000E+02 0.  0.
    9900012    2    3    3    0    0 -0.39110997125E-01  0.34497304321E+02 -0.12873035425E+02  0.54367074208E+02  0.39999977272E+02 0.  0.
         12    1    3    3    0    0  0.39110997125E-01 -0.34497304321E+02  0.12873035425E+02  0.36820925792E+02  0.00000000000E+00 0. -1.
         11    1    4    4    0    0 -0.19844679177E+01  0.21907181506E+02  0.58927946832E+01  0.22772521685E+02  0.51100000000E-03 0. -1.
        -11    1    4    4    0    0  0.11921423986E+01  0.77170362490E+01  0.36665958903E+01  0.86265739231E+01  0.51100000000E-03 0.  1.
        -12    1    4    4    0    0  0.75321452192E+00  0.48730865666E+01 -0.22432425999E+02  0.22967978600E+02  0.00000000000E+00 0.  1.
</event>
<event>
 8    1  0.1244838E-006  0.9118800E+02  0.7816164E-02  0.1184000E+00
        -11   -1    0    0    0    0  0.00000000000E+00  0.00000000000E+00  0.45593999997E+02  0.45594000000E+02  0.51100000000E-03 0. -1.
         11   -1    0    0    0    0 -0.00000000000E+00 -0.00000000000E+00 -0.45593999997E+02  0.45594000000E+02  0.51100000000E-03 0.  1.
         23    2    1    2    0    0  0.71054273576E-14 -0.88817841970E-15  0.35527136788E-14  0.91188000000E+02  0.91188000000E+02 0.  0.
    9900012    2    3    3    0    0 -0.27555502803E+02 -0.63729902553E+01 -0.23576648245E+02  0.54367094498E+02  0.40000023527E+02 0.  0.
         12    1    3    3    0    0  0.27555502803E+02  0.63729902553E+01  0.23576648245E+02  0.36820905502E+02  0.00000000000E+00 0. -1.
         11    1    4    4    0    0 -0.19727854840E-01 -0.39774441097E+01 -0.12677416145E+02  0.13286735160E+02  0.51100000000E-03 0. -1.
        -11    1    4    4    0    0 -0.52359948654E+01 -0.13283709168E+02 -0.83987547914E+00  0.14303075283E+02  0.51100000000E-03 0.  1.
         12    1    4    4    0    0 -0.22299780082E+02  0.10888163022E+02 -0.10059356621E+02  0.26777284055E+02  0.00000000000E+00 0. -1.
</event>
<event>
 8    1  0.1244838E-006  0.9118800E+02  0.7816164E-02  0.1184000E+00
        -11   -1    0    0    0    0  0.00000000000E+00  0.00000000000E+00  0.45593999997E+02  0.45594000000E+02  0.51100000000E-03 0. -1.
         11   -1    0    0    0    0 -0.00000000000E+00 -0.00000000000E+00 -0.45593999997E+02  0.45594000000E+02  0.51100000000E-03 0.  1.
         23    2    1    2    0    0  0.00000000000E+00  0.17763568394E-14 -0.71054273576E-14  0.91188000000E+02  0.91188000000E+02 0.  0.
    9900012    2    3    3    0    0  0.14260182126E+02 -0.63144597166E+01  0.33354972493E+02  0.54367090373E+02  0.40000014123E+02 0.  0.
        -12    1    3    3    0    0 -0.14260182126E+02  0.63144597166E+01 -0.33354972493E+02  0.36820909627E+02  0.00000000000E+00 0.  1.
         11    1    4    4    0    0  0.11860757266E+02 -0.36063982805E+00  0.29117039200E+02  0.31442162713E+02  0.51100000000E-03 0. -1.
        -11    1    4    4    0    0 -0.48644642294E+00  0.13673049796E+01  0.11872414423E+02  0.11960784988E+02  0.51100000000E-03 0.  1.
        -12    1    4    4    0    0  0.28858712830E+01 -0.73211248681E+01 -0.76344811307E+01  0.10964142672E+02  0.00000000000E+00 0.  1.
</event>
<event>
 8    1  0.1244838E-006  0.9118800E+02  0.7816164E-02  0.1184000E+00
        -11   -1    0    0    0    0  0.00000000000E+00  0.00000000000E+00  0.45593999997E+02  0.45594000000E+02  0.51100000000E-03 0.  1.
         11   -1    0    0    0    0 -0.00000000000E+00 -0.00000000000E+00 -0.45593999997E+02  0.45594000000E+02  0.51100000000E-03 0. -1.
         23    2    1    2    0    0  0.35527136788E-14 -0.88817841970E-15 -0.71054273576E-14  0.91188000000E+02  0.91188000000E+02 0.  0.
    9900012    2    3    3    0    0 -0.28088917713E+02 -0.79638531925E+01 -0.22435934389E+02  0.54367062914E+02  0.39999951525E+02 0.  0.
        -12    1    3    3    0    0  0.28088917713E+02  0.79638531925E+01  0.22435934389E+02  0.36820937086E+02  0.00000000000E+00 0.  1.
         11    1    4    4    0    0 -0.46283180557E+01  0.31285027881E+01  0.43431430140E+01  0.70761394292E+01  0.51100000000E-03 0. -1.
        -11    1    4    4    0    0  0.46422278193E+01 -0.96788642779E+01 -0.58720493711E+01  0.12235671494E+02  0.51100000000E-03 0.  1.
         12    1    4    4    0    0 -0.28102827477E+02 -0.14134917027E+01 -0.20907028032E+02  0.35055251991E+02  0.00000000000E+00 0. -1.
</event>
<event>
 8    1  0.1244838E-006  0.9118800E+02  0.7816164E-02  0.1184000E+00
        -11   -1    0    0    0    0  0.00000000000E+00  0.00000000000E+00  0.45593999997E+02  0.45594000000E+02  0.51100000000E-03 0. -1.
         11   -1    0    0    0    0 -0.00000000000E+00 -0.00000000000E+00 -0.45593999997E+02  0.45594000000E+02  0.51100000000E-03 0.  1.
         23    2    1    2    0    0  0.00000000000E+00  0.33306690739E-14  0.35527136788E-14  0.91188000000E+02  0.91188000000E+02 0.  0.
    9900012    2    3    3    0    0 -0.30570055164E+02 -0.19642705644E+01 -0.20430205676E+02  0.54367082907E+02  0.39999997104E+02 0.  0.
         12    1    3    3    0    0  0.30570055164E+02  0.19642705644E+01  0.20430205676E+02  0.36820917093E+02  0.00000000000E+00 0. -1.
         11    1    4    4    0    0 -0.19053998682E+02  0.39830820706E+01 -0.14664312886E+01  0.19521020197E+02  0.51100000000E-03 0. -1.
        -11    1    4    4    0    0 -0.31104475756E+01 -0.15290944563E+02 -0.58030640258E+01  0.16648225794E+02  0.51100000000E-03 0.  1.
        -12    1    4    4    0    0 -0.84056089058E+01  0.93435919276E+01 -0.13160710362E+02  0.18197836916E+02  0.00000000000E+00 0.  1.
</event>
<event>
 8    1  0.1244838E-006  0.9118800E+02  0.7816164E-02  0.1184000E+00
        -11   -1    0    0    0    0  0.00000000000E+00  0.00000000000E+00  0.45593999997E+02  0.45594000000E+02  0.51100000000E-03 0.  1.
         11   -1    0    0    0    0 -0.00000000000E+00 -0.00000000000E+00 -0.45593999997E+02  0.45594000000E+02  0.51100000000E-03 0. -1.
         23    2    1    2    0    0  0.00000000000E+00  0.00000000000E+00  0.35527136788E-14  0.91188000000E+02  0.91188000000E+02 0.  0.
    9900012    2    3    3    0    0 -0.29844004087E+02  0.35430539755E+01 -0.21273528368E+02  0.54367070888E+02  0.39999969704E+02 0.  0.
         12    1    3    3    0    0  0.29844004087E+02 -0.35430539755E+01  0.21273528368E+02  0.36820929112E+02  0.00000000000E+00 0. -1.
         11    1    4    4    0    0 -0.22245583160E+02  0.23686616298E+01 -0.31131705184E+02  0.38336139554E+02  0.51100000000E-03 0. -1.
        -11    1    4    4    0    0 -0.44916230326E+01 -0.24192093772E+01  0.10056353613E+02  0.11276413425E+02  0.51100000000E-03 0.  1.
         12    1    4    4    0    0 -0.31067978948E+01  0.35936017229E+01 -0.19817679738E+00  0.47545179088E+01  0.00000000000E+00 0. -1.
</event>
<event>
 8    1  0.1244838E-006  0.9118800E+02  0.7816164E-02  0.1184000E+00
        -11   -1    0    0    0    0  0.00000000000E+00  0.00000000000E+00  0.45593999997E+02  0.45594000000E+02  0.51100000000E-03 0.  1.
         11   -1    0    0    0    0 -0.00000000000E+00 -0.00000000000E+00 -0.45593999997E+02  0.45594000000E+02  0.51100000000E-03 0. -1.
         23    2    1    2    0    0  0.00000000000E+00  0.17763568394E-14  0.00000000000E+00  0.91188000000E+02  0.91188000000E+02 0.  0.
    9900012    2    3    3    0    0  0.28933559512E+02  0.11790629083E+02  0.19483556751E+02  0.54367098546E+02  0.40000032756E+02 0.  0.
        -12    1    3    3    0    0 -0.28933559512E+02 -0.11790629083E+02 -0.19483556751E+02  0.36820901454E+02  0.00000000000E+00 0.  1.
         11    1    4    4    0    0  0.27649286370E+01 -0.34323000011E+01  0.11081332541E+01  0.45446092500E+01  0.51100000000E-03 0. -1.
        -11    1    4    4    0    0  0.25125139167E+02 -0.37219315178E+01  0.17469920051E+02  0.30827317419E+02  0.51100000000E-03 0.  1.
        -12    1    4    4    0    0  0.10434917082E+01  0.18944860602E+02  0.90550344539E+00  0.18995171877E+02  0.00000000000E+00 0.  1.
</event>
<event>
 8    1  0.1244838E-006  0.9118800E+02  0.7816164E-02  0.1184000E+00
        -11   -1    0    0    0    0  0.00000000000E+00  0.00000000000E+00  0.45593999997E+02  0.45594000000E+02  0.51100000000E-03 0.  1.
         11   -1    0    0    0    0 -0.00000000000E+00 -0.00000000000E+00 -0.45593999997E+02  0.45594000000E+02  0.51100000000E-03 0. -1.
         23    2    1    2    0    0  0.00000000000E+00  0.17763568394E-14  0.00000000000E+00  0.91188000000E+02  0.91188000000E+02 0.  0.
    9900012    2    3    3    0    0  0.14596348318E+02  0.92762334400E+01  0.32506583026E+02  0.54367084326E+02  0.40000000339E+02 0.  0.
         12    1    3    3    0    0 -0.14596348318E+02 -0.92762334400E+01 -0.32506583026E+02  0.36820915674E+02  0.00000000000E+00 0. -1.
         11    1    4    4    0    0  0.12548897144E+02  0.22318377141E+02  0.16593238924E+02  0.30510987463E+02  0.51100000000E-03 0. -1.
        -11    1    4    4    0    0 -0.49681753389E+01 -0.61790074643E+01  0.78028212154E+01  0.11124159232E+02  0.51100000000E-03 0.  1.
         12    1    4    4    0    0  0.70156265123E+01 -0.68631362363E+01  0.81105228861E+01  0.12731937631E+02  0.00000000000E+00 0. -1.
</event>
<event>
 8    1  0.1244838E-006  0.9118800E+02  0.7816164E-02  0.1184000E+00
        -11   -1    0    0    0    0  0.00000000000E+00  0.00000000000E+00  0.45593999997E+02  0.45594000000E+02  0.51100000000E-03 0.  1.
         11   -1    0    0    0    0 -0.00000000000E+00 -0.00000000000E+00 -0.45593999997E+02  0.45594000000E+02  0.51100000000E-03 0. -1.
         23    2    1    2    0    0  0.35527136788E-14  0.53290705182E-14  0.35527136788E-14  0.91188000000E+02  0.91188000000E+02 0.  0.
    9900012    2    3    3    0    0 -0.24791542094E+02 -0.11921096038E+02 -0.24475453296E+02  0.54367069754E+02  0.39999967118E+02 0.  0.
        -12    1    3    3    0    0  0.24791542094E+02  0.11921096038E+02  0.24475453296E+02  0.36820930246E+02  0.00000000000E+00 0.  1.
         11    1    4    4    0    0 -0.18861843443E+02  0.17360830026E+01 -0.55989542098E+01  0.19751744499E+02  0.51100000000E-03 0. -1.
        -11    1    4    4    0    0 -0.21714824676E+01  0.55778183251E+01  0.16763117553E+01  0.62159001550E+01  0.51100000000E-03 0.  1.
         12    1    4    4    0    0 -0.37582161837E+01 -0.19234997365E+02 -0.20552810842E+02  0.28399425100E+02  0.00000000000E+00 0. -1.
</event>
<event>
 8    1  0.1244838E-006  0.9118800E+02  0.7816164E-02  0.1184000E+00
        -11   -1    0    0    0    0  0.00000000000E+00  0.00000000000E+00  0.45593999997E+02  0.45594000000E+02  0.51100000000E-03 0. -1.
         11   -1    0    0    0    0 -0.00000000000E+00 -0.00000000000E+00 -0.45593999997E+02  0.45594000000E+02  0.51100000000E-03 0.  1.
         23    2    1    2    0    0  0.00000000000E+00  0.00000000000E+00 -0.35527136788E-14  0.91188000000E+02  0.91188000000E+02 0.  0.
    9900012    2    3    3    0    0 -0.12724017044E+02  0.16345657728E+02  0.30441729629E+02  0.54367081501E+02  0.39999993898E+02 0.  0.
        -12    1    3    3    0    0  0.12724017044E+02 -0.16345657728E+02 -0.30441729629E+02  0.36820918499E+02  0.00000000000E+00 0.  1.
         11    1    4    4    0    0  0.68674772178E+01 -0.62795075846E+00  0.21197915714E+02  0.22291437737E+02  0.51100000000E-03 0. -1.
        -11    1    4    4    0    0 -0.81915780193E+01  0.12514362296E+02 -0.24387504179E+01  0.15154494976E+02  0.51100000000E-03 0.  1.
         12    1    4    4    0    0 -0.11399916242E+02  0.44592461898E+01  0.11682564333E+02  0.16921148788E+02  0.00000000000E+00 0. -1.
</event>
<event>
 8    1  0.1244838E-006  0.9118800E+02  0.7816164E-02  0.1184000E+00
        -11   -1    0    0    0    0  0.00000000000E+00  0.00000000000E+00  0.45593999997E+02  0.45594000000E+02  0.51100000000E-03 0.  1.
         11   -1    0    0    0    0 -0.00000000000E+00 -0.00000000000E+00 -0.45593999997E+02  0.45594000000E+02  0.51100000000E-03 0. -1.
         23    2    1    2    0    0 -0.35527136788E-14 -0.88817841970E-15  0.00000000000E+00  0.91188000000E+02  0.91188000000E+02 0.  0.
    9900012    2    3    3    0    0  0.18773384582E+02 -0.65030083933E+01 -0.31000848895E+02  0.54367058689E+02  0.39999941894E+02 0.  0.
        -12    1    3    3    0    0 -0.18773384582E+02  0.65030083933E+01  0.31000848895E+02  0.36820941311E+02  0.00000000000E+00 0.  1.
         11    1    4    4    0    0  0.10946922666E+02  0.58741059754E+01 -0.14847984414E+02  0.19359826401E+02  0.51100000000E-03 0. -1.
        -11    1    4    4    0    0  0.15375813677E+02 -0.11171999242E+02 -0.18976309306E+02  0.26857578603E+02  0.51100000000E-03 0.  1.
         12    1    4    4    0    0 -0.75493517617E+01 -0.12051151272E+01  0.28234448258E+01  0.81496536844E+01  0.00000000000E+00 0. -1.
</event>
<event>
 8    1  0.1244838E-006  0.9118800E+02  0.7816164E-02  0.1184000E+00
        -11   -1    0    0    0    0  0.00000000000E+00  0.00000000000E+00  0.45593999997E+02  0.45594000000E+02  0.51100000000E-03 0. -1.
         11   -1    0    0    0    0 -0.00000000000E+00 -0.00000000000E+00 -0.45593999997E+02  0.45594000000E+02  0.51100000000E-03 0.  1.
         23    2    1    2    0    0  0.00000000000E+00 -0.22204460493E-15  0.00000000000E+00  0.91188000000E+02  0.91188000000E+02 0.  0.
    9900012    2    3    3    0    0  0.21918876414E+02  0.14014581181E+01 -0.29553005793E+02  0.54367063299E+02  0.39999952404E+02 0.  0.
         12    1    3    3    0    0 -0.21918876414E+02 -0.14014581181E+01  0.29553005793E+02  0.36820936701E+02  0.00000000000E+00 0. -1.
         11    1    4    4    0    0  0.17642295737E+02  0.66318123994E+01  0.13355148415E+01  0.18894844130E+02  0.51100000000E-03 0. -1.
        -11    1    4    4    0    0  0.60005871023E+01 -0.10377938714E+02 -0.22110439163E+02  0.25151146649E+02  0.51100000000E-03 0.  1.
        -12    1    4    4    0    0 -0.17240064250E+01  0.51475844324E+01 -0.87780814718E+01  0.10321072520E+02  0.00000000000E+00 0.  1.
</event>
<event>
 8    1  0.1244838E-006  0.9118800E+02  0.7816164E-02  0.1184000E+00
        -11   -1    0    0    0    0  0.00000000000E+00  0.00000000000E+00  0.45593999997E+02  0.45594000000E+02  0.51100000000E-03 0. -1.
         11   -1    0    0    0    0 -0.00000000000E+00 -0.00000000000E+00 -0.45593999997E+02  0.45594000000E+02  0.51100000000E-03 0.  1.
         23    2    1    2    0    0  0.00000000000E+00  0.88817841970E-15  0.00000000000E+00  0.91188000000E+02  0.91188000000E+02 0.  0.
    9900012    2    3    3    0    0  0.27039238648E+02  0.66039942071E+01  0.24104928077E+02  0.54367072204E+02  0.39999972704E+02 0.  0.
        -12    1    3    3    0    0 -0.27039238648E+02 -0.66039942071E+01 -0.24104928077E+02  0.36820927796E+02  0.00000000000E+00 0.  1.
         11    1    4    4    0    0  0.21790648570E+02 -0.13170646113E+02  0.11912634782E+02  0.28110659043E+02  0.51100000000E-03 0. -1.
        -11    1    4    4    0    0  0.77007449609E+01  0.18065765303E+02  0.12456458887E+02  0.23255896396E+02  0.51100000000E-03 0.  1.
         12    1    4    4    0    0 -0.24521548830E+01  0.17088750169E+01 -0.26416559200E+00  0.30005167644E+01  0.00000000000E+00 0. -1.
</event>
<event>
 8    1  0.1244838E-006  0.9118800E+02  0.7816164E-02  0.1184000E+00
        -11   -1    0    0    0    0  0.00000000000E+00  0.00000000000E+00  0.45593999997E+02  0.45594000000E+02  0.51100000000E-03 0.  1.
         11   -1    0    0    0    0 -0.00000000000E+00 -0.00000000000E+00 -0.45593999997E+02  0.45594000000E+02  0.51100000000E-03 0. -1.
         23    2    1    2    0    0  0.00000000000E+00  0.00000000000E+00  0.00000000000E+00  0.91188000000E+02  0.91188000000E+02 0.  0.
    9900012    2    3    3    0    0  0.26641793038E+02  0.23356402802E+02 -0.10023634899E+02  0.54367082783E+02  0.39999996820E+02 0.  0.
        -12    1    3    3    0    0 -0.26641793038E+02 -0.23356402802E+02  0.10023634899E+02  0.36820917217E+02  0.00000000000E+00 0.  1.
         11    1    4    4    0    0  0.16141238724E+01  0.87707687238E+01 -0.82825610287E+01  0.12170973557E+02  0.51100000000E-03 0. -1.
        -11    1    4    4    0    0  0.27676895217E+02  0.17978544487E+02 -0.85932354121E+01  0.34103992227E+02  0.51100000000E-03 0.  1.
        -12    1    4    4    0    0 -0.26492260511E+01 -0.33929104095E+01  0.68521615413E+01  0.80921169978E+01  0.00000000000E+00 0.  1.
</event>
<event>
 8    1  0.1244838E-006  0.9118800E+02  0.7816164E-02  0.1184000E+00
        -11   -1    0    0    0    0  0.00000000000E+00  0.00000000000E+00  0.45593999997E+02  0.45594000000E+02  0.51100000000E-03 0.  1.
         11   -1    0    0    0    0 -0.00000000000E+00 -0.00000000000E+00 -0.45593999997E+02  0.45594000000E+02  0.51100000000E-03 0. -1.
         23    2    1    2    0    0  0.00000000000E+00  0.88817841970E-15  0.00000000000E+00  0.91188000000E+02  0.91188000000E+02 0.  0.
    9900012    2    3    3    0    0 -0.27502375607E+02 -0.62039131121E+01  0.23683548744E+02  0.54367086336E+02  0.40000004920E+02 0.  0.
         12    1    3    3    0    0  0.27502375607E+02  0.62039131121E+01 -0.23683548744E+02  0.36820913664E+02  0.00000000000E+00 0. -1.
         11    1    4    4    0    0 -0.15318825987E+02 -0.16243041042E+01  0.10832197356E+02  0.18831922187E+02  0.51100000000E-03 0. -1.
        -11    1    4    4    0    0 -0.81491237185E+01  0.58981946219E+01  0.19886067633E+02  0.22285704013E+02  0.51100000000E-03 0.  1.
         12    1    4    4    0    0 -0.40344259021E+01 -0.10477803630E+02 -0.70347162451E+01  0.13249460137E+02  0.00000000000E+00 0. -1.
</event>
<event>
 8    1  0.1244838E-006  0.9118800E+02  0.7816164E-02  0.1184000E+00
        -11   -1    0    0    0    0  0.00000000000E+00  0.00000000000E+00  0.45593999997E+02  0.45594000000E+02  0.51100000000E-03 0.  1.
         11   -1    0    0    0    0 -0.00000000000E+00 -0.00000000000E+00 -0.45593999997E+02  0.45594000000E+02  0.51100000000E-03 0. -1.
         23    2    1    2    0    0  0.12212453271E-14 -0.35527136788E-14 -0.35527136788E-14  0.91188000000E+02  0.91188000000E+02 0.  0.
    9900012    2    3    3    0    0  0.73009759662E+00  0.24909511580E+02  0.27106512568E+02  0.54367084297E+02  0.40000000271E+02 0.  0.
         12    1    3    3    0    0 -0.73009759662E+00 -0.24909511580E+02 -0.27106512568E+02  0.36820915703E+02  0.00000000000E+00 0. -1.
         11    1    4    4    0    0  0.10480045364E+02  0.19430142901E+02  0.88251815064E+00  0.22093905099E+02  0.51100000000E-03 0. -1.
        -11    1    4    4    0    0 -0.29450520823E+01  0.82968221526E+01  0.22196619844E+02  0.23878871882E+02  0.51100000000E-03 0.  1.
         12    1    4    4    0    0 -0.68048956849E+01 -0.28174534736E+01  0.40273745730E+01  0.83943073156E+01  0.00000000000E+00 0. -1.
</event>
<event>
 8    1  0.1244838E-006  0.9118800E+02  0.7816164E-02  0.1184000E+00
        -11   -1    0    0    0    0  0.00000000000E+00  0.00000000000E+00  0.45593999997E+02  0.45594000000E+02  0.51100000000E-03 0. -1.
         11   -1    0    0    0    0 -0.00000000000E+00 -0.00000000000E+00 -0.45593999997E+02  0.45594000000E+02  0.51100000000E-03 0.  1.
         23    2    1    2    0    0  0.00000000000E+00 -0.44408920985E-15  0.00000000000E+00  0.91188000000E+02  0.91188000000E+02 0.  0.
    9900012    2    3    3    0    0  0.49055604273E+01  0.55678049919E+00  0.36488442815E+02  0.54367068633E+02  0.39999964563E+02 0.  0.
        -12    1    3    3    0    0 -0.49055604273E+01 -0.55678049919E+00 -0.36488442815E+02  0.36820931367E+02  0.00000000000E+00 0.  1.
         11    1    4    4    0    0 -0.74508439915E+01 -0.32229390459E+01  0.12099398713E+02  0.14570444803E+02  0.51100000000E-03 0. -1.
        -11    1    4    4    0    0 -0.11011255802E+01  0.14308931277E+02  0.10655528727E+02  0.17874514946E+02  0.51100000000E-03 0.  1.
         12    1    4    4    0    0  0.13457529999E+02 -0.10529211732E+02  0.13733515376E+02  0.21922108885E+02  0.00000000000E+00 0. -1.
</event>
<event>
 8    1  0.1244838E-006  0.9118800E+02  0.7816164E-02  0.1184000E+00
        -11   -1    0    0    0    0  0.00000000000E+00  0.00000000000E+00  0.45593999997E+02  0.45594000000E+02  0.51100000000E-03 0. -1.
         11   -1    0    0    0    0 -0.00000000000E+00 -0.00000000000E+00 -0.45593999997E+02  0.45594000000E+02  0.51100000000E-03 0.  1.
         23    2    1    2    0    0 -0.55511151231E-16 -0.71054273576E-14  0.17763568394E-14  0.91188000000E+02  0.91188000000E+02 0.  0.
    9900012    2    3    3    0    0  0.47320712666E+00 -0.34773617283E+02  0.12097312949E+02  0.54367172137E+02  0.40000200520E+02 0.  0.
         12    1    3    3    0    0 -0.47320712666E+00  0.34773617283E+02 -0.12097312949E+02  0.36820827863E+02  0.00000000000E+00 0. -1.
         11    1    4    4    0    0 -0.10719192002E+02 -0.20661560833E+02  0.82553746373E+01  0.24697214092E+02  0.51100000000E-03 0. -1.
        -11    1    4    4    0    0  0.22770707287E+00 -0.13981591244E+02 -0.57324327438E+01  0.15112826660E+02  0.51100000000E-03 0.  1.
        -12    1    4    4    0    0  0.10964692056E+02 -0.13046520579E+00  0.95743710553E+01  0.14557131385E+02  0.00000000000E+00 0.  1.
</event>
<event>
 8    1  0.1244838E-006  0.9118800E+02  0.7816164E-02  0.1184000E+00
        -11   -1    0    0    0    0  0.00000000000E+00  0.00000000000E+00  0.45593999997E+02  0.45594000000E+02  0.51100000000E-03 0.  1.
         11   -1    0    0    0    0 -0.00000000000E+00 -0.00000000000E+00 -0.45593999997E+02  0.45594000000E+02  0.51100000000E-03 0. -1.
         23    2    1    2    0    0 -0.35527136788E-14 -0.17763568394E-14  0.00000000000E+00  0.91188000000E+02  0.91188000000E+02 0.  0.
    9900012    2    3    3    0    0  0.31314854006E+02  0.93028798620E+01 -0.16988876998E+02  0.54367006032E+02  0.39999821850E+02 0.  0.
        -12    1    3    3    0    0 -0.31314854006E+02 -0.93028798620E+01  0.16988876998E+02  0.36820993968E+02  0.00000000000E+00 0.  1.
         11    1    4    4    0    0  0.21951481145E+01  0.84151376829E+01 -0.13433790185E+01  0.87998798240E+01  0.51100000000E-03 0. -1.
        -11    1    4    4    0    0  0.14201610797E+02  0.14306090457E+02 -0.56665408833E-01  0.20158203903E+02  0.51100000000E-03 0.  1.
         12    1    4    4    0    0  0.14918095095E+02 -0.13418348278E+02 -0.15588832571E+02  0.25408922305E+02  0.00000000000E+00 0. -1.
</event>
<event>
 8    1  0.1244838E-006  0.9118800E+02  0.7816164E-02  0.1184000E+00
        -11   -1    0    0    0    0  0.00000000000E+00  0.00000000000E+00  0.45593999997E+02  0.45594000000E+02  0.51100000000E-03 0. -1.
         11   -1    0    0    0    0 -0.00000000000E+00 -0.00000000000E+00 -0.45593999997E+02  0.45594000000E+02  0.51100000000E-03 0.  1.
         23    2    1    2    0    0 -0.88817841970E-15 -0.35527136788E-14 -0.71054273576E-14  0.91188000000E+02  0.91188000000E+02 0.  0.
    9900012    2    3    3    0    0  0.73087577173E+01  0.80187850561E+01  0.35186081430E+02  0.54367093174E+02  0.40000020508E+02 0.  0.
        -12    1    3    3    0    0 -0.73087577173E+01 -0.80187850561E+01 -0.35186081430E+02  0.36820906826E+02  0.00000000000E+00 0.  1.
         11    1    4    4    0    0  0.16585642536E+01  0.21474099488E+02  0.20360012082E+02  0.29638115264E+02  0.51100000000E-03 0. -1.
        -11    1    4    4    0    0  0.46536170931E+01  0.86178419125E+00  0.68017277846E+01  0.82862732974E+01  0.51100000000E-03 0.  1.
        -12    1    4    4    0    0  0.99657637060E+00 -0.14317098623E+02  0.80243415634E+01  0.16442704612E+02  0.00000000000E+00 0.  1.
</event>
<event>
 8    1  0.1244838E-006  0.9118800E+02  0.7816164E-02  0.1184000E+00
        -11   -1    0    0    0    0  0.00000000000E+00  0.00000000000E+00  0.45593999997E+02  0.45594000000E+02  0.51100000000E-03 0. -1.
         11   -1    0    0    0    0 -0.00000000000E+00 -0.00000000000E+00 -0.45593999997E+02  0.45594000000E+02  0.51100000000E-03 0.  1.
         23    2    1    2    0    0 -0.17763568394E-14  0.35527136788E-14 -0.17763568394E-14  0.91188000000E+02  0.91188000000E+02 0.  0.
    9900012    2    3    3    0    0  0.15632462930E+02  0.30374157653E+02 -0.13741042727E+02  0.54367087387E+02  0.40000007317E+02 0.  0.
         12    1    3    3    0    0 -0.15632462930E+02 -0.30374157653E+02  0.13741042727E+02  0.36820912613E+02  0.00000000000E+00 0. -1.
         11    1    4    4    0    0  0.15833134086E+02 -0.30260756505E+00  0.27930169196E+01  0.16080443094E+02  0.51100000000E-03 0. -1.
        -11    1    4    4    0    0  0.45368279194E+01  0.26163982476E+02 -0.84076600185E+01  0.27853644893E+02  0.51100000000E-03 0.  1.
        -12    1    4    4    0    0 -0.47374990758E+01  0.45127827423E+01 -0.81263996281E+01  0.10432999400E+02  0.00000000000E+00 0.  1.
</event>
<event>
 8    1  0.1244838E-006  0.9118800E+02  0.7816164E-02  0.1184000E+00
        -11   -1    0    0    0    0  0.00000000000E+00  0.00000000000E+00  0.45593999997E+02  0.45594000000E+02  0.51100000000E-03 0.  1.
         11   -1    0    0    0    0 -0.00000000000E+00 -0.00000000000E+00 -0.45593999997E+02  0.45594000000E+02  0.51100000000E-03 0. -1.
         23    2    1    2    0    0  0.35527136788E-14  0.00000000000E+00  0.00000000000E+00  0.91188000000E+02  0.91188000000E+02 0.  0.
    9900012    2    3    3    0    0  0.29259107087E+02 -0.10358328306E+02  0.19808808963E+02  0.54367092551E+02  0.40000019089E+02 0.  0.
         12    1    3    3    0    0 -0.29259107087E+02  0.10358328306E+02 -0.19808808963E+02  0.36820907449E+02  0.00000000000E+00 0. -1.
         11    1    4    4    0    0  0.64062215705E+01 -0.19786887677E+02  0.19224786916E+01  0.20886754734E+02  0.51100000000E-03 0. -1.
        -11    1    4    4    0    0  0.64360135234E+01 -0.93901878881E+00  0.11187414858E+02  0.12940721689E+02  0.51100000000E-03 0.  1.
         12    1    4    4    0    0  0.16416871994E+02  0.10367578160E+02  0.66989154127E+01  0.20539616127E+02  0.00000000000E+00 0. -1.
</event>
<event>
 8    1  0.1244838E-006  0.9118800E+02  0.7816164E-02  0.1184000E+00
        -11   -1    0    0    0    0  0.00000000000E+00  0.00000000000E+00  0.45593999997E+02  0.45594000000E+02  0.51100000000E-03 0.  1.
         11   -1    0    0    0    0 -0.00000000000E+00 -0.00000000000E+00 -0.45593999997E+02  0.45594000000E+02  0.51100000000E-03 0. -1.
         23    2    1    2    0    0  0.00000000000E+00 -0.17763568394E-14 -0.88817841970E-15  0.91188000000E+02  0.91188000000E+02 0.  0.
    9900012    2    3    3    0    0  0.33179994060E+02  0.15148361061E+02 -0.50393671572E+01  0.54367081081E+02  0.39999992941E+02 0.  0.
         12    1    3    3    0    0 -0.33179994060E+02 -0.15148361061E+02  0.50393671572E+01  0.36820918919E+02  0.00000000000E+00 0. -1.
         11    1    4    4    0    0  0.17942107036E+01  0.17900352075E+02 -0.10111796641E+02  0.20637108034E+02  0.51100000000E-03 0. -1.
        -11    1    4    4    0    0  0.32212527624E+02 -0.22901105241E+01  0.53700909187E+01  0.32737278733E+02  0.51100000000E-03 0.  1.
         12    1    4    4    0    0 -0.82674426739E+00 -0.46188048983E+00 -0.29766143454E+00  0.99269431355E+00  0.00000000000E+00 0. -1.
</event>
<event>
 8    1  0.1244838E-006  0.9118800E+02  0.7816164E-02  0.1184000E+00
        -11   -1    0    0    0    0  0.00000000000E+00  0.00000000000E+00  0.45593999997E+02  0.45594000000E+02  0.51100000000E-03 0. -1.
         11   -1    0    0    0    0 -0.00000000000E+00 -0.00000000000E+00 -0.45593999997E+02  0.45594000000E+02  0.51100000000E-03 0.  1.
         23    2    1    2    0    0 -0.44408920985E-15  0.35527136788E-14  0.35527136788E-14  0.91188000000E+02  0.91188000000E+02 0.  0.
    9900012    2    3    3    0    0 -0.31854433804E+01  0.31843391639E+02  0.18210750678E+02  0.54367080934E+02  0.39999992605E+02 0.  0.
        -12    1    3    3    0    0  0.31854433804E+01 -0.31843391639E+02 -0.18210750678E+02  0.36820919066E+02  0.00000000000E+00 0.  1.
         11    1    4    4    0    0  0.47329946389E+00  0.23350083109E+02  0.10446107224E+02  0.25584595951E+02  0.51100000000E-03 0. -1.
        -11    1    4    4    0    0 -0.46697019395E+01 -0.49572007242E+01 -0.63127434486E+01  0.92860478855E+01  0.51100000000E-03 0.  1.
         12    1    4    4    0    0  0.10109590952E+01  0.13450509255E+02  0.14077386903E+02  0.19496437098E+02  0.00000000000E+00 0. -1.
</event>
<event>
 8    1  0.1244838E-006  0.9118800E+02  0.7816164E-02  0.1184000E+00
        -11   -1    0    0    0    0  0.00000000000E+00  0.00000000000E+00  0.45593999997E+02  0.45594000000E+02  0.51100000000E-03 0. -1.
         11   -1    0    0    0    0 -0.00000000000E+00 -0.00000000000E+00 -0.45593999997E+02  0.45594000000E+02  0.51100000000E-03 0.  1.
         23    2    1    2    0    0  0.00000000000E+00 -0.35527136788E-14  0.17763568394E-14  0.91188000000E+02  0.91188000000E+02 0.  0.
    9900012    2    3    3    0    0 -0.27883656536E+02 -0.21497169294E+02  0.10777447793E+02  0.54367082435E+02  0.39999996026E+02 0.  0.
         12    1    3    3    0    0  0.27883656536E+02  0.21497169294E+02 -0.10777447793E+02  0.36820917565E+02  0.00000000000E+00 0. -1.
         11    1    4    4    0    0 -0.17420430051E+00 -0.41321543002E+01 -0.35581796084E+01  0.54557940472E+01  0.51100000000E-03 0. -1.
        -11    1    4    4    0    0 -0.17316709844E+02 -0.16105237324E+02 -0.74056249788E+01  0.24780847255E+02  0.51100000000E-03 0.  1.
         12    1    4    4    0    0 -0.10392742391E+02 -0.12597776689E+01  0.21741252380E+02  0.24130441132E+02  0.00000000000E+00 0. -1.
</event>
<event>
 8    1  0.1244838E-006  0.9118800E+02  0.7816164E-02  0.1184000E+00
        -11   -1    0    0    0    0  0.00000000000E+00  0.00000000000E+00  0.45593999997E+02  0.45594000000E+02  0.51100000000E-03 0. -1.
         11   -1    0    0    0    0 -0.00000000000E+00 -0.00000000000E+00 -0.45593999997E+02  0.45594000000E+02  0.51100000000E-03 0.  1.
         23    2    1    2    0    0  0.17763568394E-14  0.00000000000E+00  0.00000000000E+00  0.91188000000E+02  0.91188000000E+02 0.  0.
    9900012    2    3    3    0    0 -0.63573253714E+01  0.83557039843E+01 -0.35292298066E+02  0.54367086408E+02  0.40000005085E+02 0.  0.
         12    1    3    3    0    0  0.63573253714E+01 -0.83557039843E+01  0.35292298066E+02  0.36820913592E+02  0.00000000000E+00 0. -1.
         11    1    4    4    0    0  0.87800838127E+01  0.29543095432E+01 -0.28730721380E+00  0.92682448356E+01  0.51100000000E-03 0. -1.
        -11    1    4    4    0    0  0.44129878783E+01  0.39209368391E+01 -0.18664779015E+02  0.19576061495E+02  0.51100000000E-03 0.  1.
        -12    1    4    4    0    0 -0.19550397062E+02  0.14804576019E+01 -0.16340211837E+02  0.25522780078E+02  0.00000000000E+00 0.  1.
</event>
<event>
 8    1  0.1244838E-006  0.9118800E+02  0.7816164E-02  0.1184000E+00
        -11   -1    0    0    0    0  0.00000000000E+00  0.00000000000E+00  0.45593999997E+02  0.45594000000E+02  0.51100000000E-03 0. -1.
         11   -1    0    0    0    0 -0.00000000000E+00 -0.00000000000E+00 -0.45593999997E+02  0.45594000000E+02  0.51100000000E-03 0.  1.
         23    2    1    2    0    0  0.00000000000E+00  0.00000000000E+00 -0.44408920985E-15  0.91188000000E+02  0.91188000000E+02 0.  0.
    9900012    2    3    3    0    0  0.26089136398E+02  0.25904441099E+02 -0.20238788225E+01  0.54367093003E+02  0.40000020119E+02 0.  0.
         12    1    3    3    0    0 -0.26089136398E+02 -0.25904441099E+02  0.20238788225E+01  0.36820906997E+02  0.00000000000E+00 0. -1.
         11    1    4    4    0    0  0.30356485806E+00 -0.48823553574E+01 -0.86755003077E+00  0.49681172265E+01  0.51100000000E-03 0. -1.
        -11    1    4    4    0    0  0.52637109434E+01  0.22647614075E+02 -0.10392130307E+02  0.25467969074E+02  0.51100000000E-03 0.  1.
         12    1    4    4    0    0  0.20521860596E+02  0.81391823808E+01  0.92358015149E+01  0.23931006702E+02  0.00000000000E+00 0. -1.
</event>
<event>
 8    1  0.1244838E-006  0.9118800E+02  0.7816164E-02  0.1184000E+00
        -11   -1    0    0    0    0  0.00000000000E+00  0.00000000000E+00  0.45593999997E+02  0.45594000000E+02  0.51100000000E-03 0.  1.
         11   -1    0    0    0    0 -0.00000000000E+00 -0.00000000000E+00 -0.45593999997E+02  0.45594000000E+02  0.51100000000E-03 0. -1.
         23    2    1    2    0    0  0.00000000000E+00  0.00000000000E+00  0.17763568394E-14  0.91188000000E+02  0.91188000000E+02 0.  0.
    9900012    2    3    3    0    0 -0.22154990105E+02  0.27149979570E+02  0.11305514687E+02  0.54367086927E+02  0.40000006267E+02 0.  0.
         12    1    3    3    0    0  0.22154990105E+02 -0.27149979570E+02 -0.11305514687E+02  0.36820913073E+02  0.00000000000E+00 0. -1.
         11    1    4    4    0    0 -0.16543666289E+02  0.18509688343E+02  0.25303488660E+02  0.35448102847E+02  0.51100000000E-03 0. -1.
        -11    1    4    4    0    0  0.17228824257E+01  0.57685840191E+00 -0.17396481324E+01  0.25154453591E+01  0.51100000000E-03 0.  1.
         12    1    4    4    0    0 -0.73342062413E+01  0.80634328255E+01 -0.12258325841E+02  0.16403538720E+02  0.00000000000E+00 0. -1.
</event>
<event>
 8    1  0.1244838E-006  0.9118800E+02  0.7816164E-02  0.1184000E+00
        -11   -1    0    0    0    0  0.00000000000E+00  0.00000000000E+00  0.45593999997E+02  0.45594000000E+02  0.51100000000E-03 0. -1.
         11   -1    0    0    0    0 -0.00000000000E+00 -0.00000000000E+00 -0.45593999997E+02  0.45594000000E+02  0.51100000000E-03 0.  1.
         23    2    1    2    0    0 -0.83266726847E-15  0.00000000000E+00  0.00000000000E+00  0.91188000000E+02  0.91188000000E+02 0.  0.
    9900012    2    3    3    0    0 -0.41207621607E+00  0.26049051484E+02 -0.26020321566E+02  0.54367081700E+02  0.39999994352E+02 0.  0.
         12    1    3    3    0    0  0.41207621607E+00 -0.26049051484E+02  0.26020321566E+02  0.36820918300E+02  0.00000000000E+00 0. -1.
         11    1    4    4    0    0  0.11925510817E+02  0.58233575957E+01 -0.25487864756E+01  0.13513904495E+02  0.51100000000E-03 0. -1.
        -11    1    4    4    0    0 -0.68649978555E+01  0.25137532229E+02 -0.17629732203E+02  0.31461582603E+02  0.51100000000E-03 0.  1.
        -12    1    4    4    0    0 -0.54725891780E+01 -0.49118383400E+01 -0.58418028875E+01  0.93915946019E+01  0.00000000000E+00 0.  1.
</event>
<event>
 8    1  0.1244838E-006  0.9118800E+02  0.7816164E-02  0.1184000E+00
        -11   -1    0    0    0    0  0.00000000000E+00  0.00000000000E+00  0.45593999997E+02  0.45594000000E+02  0.51100000000E-03 0.  1.
         11   -1    0    0    0    0 -0.00000000000E+00 -0.00000000000E+00 -0.45593999997E+02  0.45594000000E+02  0.51100000000E-03 0. -1.
         23    2    1    2    0    0 -0.12212453271E-14  0.35527136788E-14  0.00000000000E+00  0.91188000000E+02  0.91188000000E+02 0.  0.
    9900012    2    3    3    0    0  0.37440877841E+00 -0.24584294936E+02  0.27408868829E+02  0.54367165817E+02  0.40000186113E+02 0.  0.
         12    1    3    3    0    0 -0.37440877841E+00  0.24584294936E+02 -0.27408868829E+02  0.36820834183E+02  0.00000000000E+00 0. -1.
         11    1    4    4    0    0 -0.45976191226E+01 -0.43503255743E+01  0.25396708947E+02  0.26173579423E+02  0.51100000000E-03 0. -1.
        -11    1    4    4    0    0 -0.37590182515E+01 -0.40428886368E+00  0.50569207934E+01  0.63139619790E+01  0.51100000000E-03 0.  1.
        -12    1    4    4    0    0  0.87310461525E+01 -0.19829680497E+02 -0.30447609110E+01  0.21879624415E+02  0.00000000000E+00 0.  1.
</event>
<event>
 8    1  0.1244838E-006  0.9118800E+02  0.7816164E-02  0.1184000E+00
        -11   -1    0    0    0    0  0.00000000000E+00  0.00000000000E+00  0.45593999997E+02  0.45594000000E+02  0.51100000000E-03 0.  1.
         11   -1    0    0    0    0 -0.00000000000E+00 -0.00000000000E+00 -0.45593999997E+02  0.45594000000E+02  0.51100000000E-03 0. -1.
         23    2    1    2    0    0  0.00000000000E+00  0.00000000000E+00  0.00000000000E+00  0.91188000000E+02  0.91188000000E+02 0.  0.
    9900012    2    3    3    0    0 -0.52173618615E+01 -0.18259724810E+02  0.31545864415E+02  0.54367082350E+02  0.39999995833E+02 0.  0.
         12    1    3    3    0    0  0.52173618615E+01  0.18259724810E+02 -0.31545864415E+02  0.36820917650E+02  0.00000000000E+00 0. -1.
         11    1    4    4    0    0  0.76615814775E+00  0.39030860593E+01  0.37405020552E+01  0.54600764628E+01  0.51100000000E-03 0. -1.
        -11    1    4    4    0    0  0.86020615091E+01  0.12527704390E+01  0.17349195351E+02  0.19405140442E+02  0.51100000000E-03 0.  1.
        -12    1    4    4    0    0 -0.14585581518E+02 -0.23415581308E+02  0.10456167009E+02  0.29501865445E+02  0.00000000000E+00 0.  1.
</event>
<event>
 8    1  0.1244838E-006  0.9118800E+02  0.7816164E-02  0.1184000E+00
        -11   -1    0    0    0    0  0.00000000000E+00  0.00000000000E+00  0.45593999997E+02  0.45594000000E+02  0.51100000000E-03 0. -1.
         11   -1    0    0    0    0 -0.00000000000E+00 -0.00000000000E+00 -0.45593999997E+02  0.45594000000E+02  0.51100000000E-03 0.  1.
         23    2    1    2    0    0  0.27755575616E-14  0.00000000000E+00 -0.10658141036E-13  0.91188000000E+02  0.91188000000E+02 0.  0.
    9900012    2    3    3    0    0  0.97454843056E+00  0.26122532287E+02 -0.25931502938E+02  0.54367091777E+02  0.40000017324E+02 0.  0.
         12    1    3    3    0    0 -0.97454843056E+00 -0.26122532287E+02  0.25931502938E+02  0.36820908223E+02  0.00000000000E+00 0. -1.
         11    1    4    4    0    0  0.58118892865E+01  0.50883687439E+01 -0.44061334306E+00  0.77371631708E+01  0.51100000000E-03 0.  1.
        -11    1    4    4    0    0 -0.75315971932E+01  0.29866047330E+01  0.61040215780E+01  0.10144153183E+02  0.51100000000E-03 0. -1.
        -12    1    4    4    0    0  0.26942563372E+01  0.18047558810E+02 -0.31594911173E+02  0.36485775423E+02  0.00000000000E+00 0.  1.
</event>
<event>
 8    1  0.1244838E-006  0.9118800E+02  0.7816164E-02  0.1184000E+00
        -11   -1    0    0    0    0  0.00000000000E+00  0.00000000000E+00  0.45593999997E+02  0.45594000000E+02  0.51100000000E-03 0. -1.
         11   -1    0    0    0    0 -0.00000000000E+00 -0.00000000000E+00 -0.45593999997E+02  0.45594000000E+02  0.51100000000E-03 0.  1.
         23    2    1    2    0    0  0.00000000000E+00  0.00000000000E+00  0.00000000000E+00  0.91188000000E+02  0.91188000000E+02 0.  0.
    9900012    2    3    3    0    0  0.24711282642E+02  0.10687798439E+02 -0.25117773872E+02  0.54367094395E+02  0.40000023293E+02 0.  0.
         12    1    3    3    0    0 -0.24711282642E+02 -0.10687798439E+02  0.25117773872E+02  0.36820905605E+02  0.00000000000E+00 0. -1.
         11    1    4    4    0    0  0.10918686083E+02 -0.13923023799E+01  0.40483837163E+01  0.11727984596E+02  0.51100000000E-03 0. -1.
        -11    1    4    4    0    0  0.11287852625E+02 -0.58795885121E+01 -0.14685635787E+02  0.19433298142E+02  0.51100000000E-03 0.  1.
         12    1    4    4    0    0  0.25047439337E+01  0.17959689331E+02 -0.14480521801E+02  0.23205811658E+02  0.00000000000E+00 0. -1.
</event>
<event>
 8    1  0.1244838E-006  0.9118800E+02  0.7816164E-02  0.1184000E+00
        -11   -1    0    0    0    0  0.00000000000E+00  0.00000000000E+00  0.45593999997E+02  0.45594000000E+02  0.51100000000E-03 0.  1.
         11   -1    0    0    0    0 -0.00000000000E+00 -0.00000000000E+00 -0.45593999997E+02  0.45594000000E+02  0.51100000000E-03 0. -1.
         23    2    1    2    0    0  0.00000000000E+00  0.35527136788E-14 -0.17763568394E-14  0.91188000000E+02  0.91188000000E+02 0.  0.
    9900012    2    3    3    0    0  0.21700067947E+02  0.25792865501E+02 -0.14819426131E+02  0.54367078630E+02  0.39999987352E+02 0.  0.
        -12    1    3    3    0    0 -0.21700067947E+02 -0.25792865501E+02  0.14819426131E+02  0.36820921370E+02  0.00000000000E+00 0.  1.
         11    1    4    4    0    0 -0.14498841359E+00  0.14684364416E+01 -0.12585155392E+01  0.19393784691E+01  0.51100000000E-03 0. -1.
        -11    1    4    4    0    0 -0.20963378860E+01 -0.86960789368E+01 -0.64446704558E+01  0.11024980678E+02  0.51100000000E-03 0.  1.
         12    1    4    4    0    0  0.23941394247E+02  0.33020507997E+02 -0.71162401364E+01  0.41402719482E+02  0.00000000000E+00 0. -1.
</event>
<event>
 8    1  0.1244838E-006  0.9118800E+02  0.7816164E-02  0.1184000E+00
        -11   -1    0    0    0    0  0.00000000000E+00  0.00000000000E+00  0.45593999997E+02  0.45594000000E+02  0.51100000000E-03 0. -1.
         11   -1    0    0    0    0 -0.00000000000E+00 -0.00000000000E+00 -0.45593999997E+02  0.45594000000E+02  0.51100000000E-03 0.  1.
         23    2    1    2    0    0  0.88817841970E-15  0.00000000000E+00  0.00000000000E+00  0.91188000000E+02  0.91188000000E+02 0.  0.
    9900012    2    3    3    0    0 -0.47973018465E+01 -0.17135996231E+02  0.32235434611E+02  0.54367085883E+02  0.40000003888E+02 0.  0.
        -12    1    3    3    0    0  0.47973018465E+01  0.17135996231E+02 -0.32235434611E+02  0.36820914117E+02  0.00000000000E+00 0.  1.
         11    1    4    4    0    0 -0.32883052201E+01 -0.13343013014E+02  0.10528041131E+02  0.17311516335E+02  0.51100000000E-03 0. -1.
        -11    1    4    4    0    0 -0.88940101108E+01  0.38500226094E+01  0.24260989238E+02  0.26125116057E+02  0.51100000000E-03 0.  1.
        -12    1    4    4    0    0  0.73850134844E+01 -0.76430058264E+01 -0.25535957574E+01  0.10930453491E+02  0.00000000000E+00 0.  1.
</event>
<event>
 8    1  0.1244838E-006  0.9118800E+02  0.7816164E-02  0.1184000E+00
        -11   -1    0    0    0    0  0.00000000000E+00  0.00000000000E+00  0.45593999997E+02  0.45594000000E+02  0.51100000000E-03 0. -1.
         11   -1    0    0    0    0 -0.00000000000E+00 -0.00000000000E+00 -0.45593999997E+02  0.45594000000E+02  0.51100000000E-03 0.  1.
         23    2    1    2    0    0  0.35527136788E-14  0.35527136788E-14 -0.17763568394E-14  0.91188000000E+02  0.91188000000E+02 0.  0.
    9900012    2    3    3    0    0  0.29618299579E+02  0.18535350793E+02  0.11617954122E+02  0.54367085333E+02  0.40000002633E+02 0.  0.
         12    1    3    3    0    0 -0.29618299579E+02 -0.18535350793E+02 -0.11617954122E+02  0.36820914667E+02  0.00000000000E+00 0. -1.
         11    1    4    4    0    0  0.50511153117E+00  0.11180773243E+02  0.42869407922E+01  0.11985102819E+02  0.51100000000E-03 0. -1.
        -11    1    4    4    0    0  0.92991140410E+01  0.48234352416E+01 -0.11057387747E+02  0.15231706192E+02  0.51100000000E-03 0.  1.
        -12    1    4    4    0    0  0.19814074007E+02  0.25311423079E+01  0.18388401077E+02  0.27150276321E+02  0.00000000000E+00 0.  1.
</event>
<event>
 8    1  0.1244838E-006  0.9118800E+02  0.7816164E-02  0.1184000E+00
        -11   -1    0    0    0    0  0.00000000000E+00  0.00000000000E+00  0.45593999997E+02  0.45594000000E+02  0.51100000000E-03 0. -1.
         11   -1    0    0    0    0 -0.00000000000E+00 -0.00000000000E+00 -0.45593999997E+02  0.45594000000E+02  0.51100000000E-03 0.  1.
         23    2    1    2    0    0  0.00000000000E+00  0.00000000000E+00  0.00000000000E+00  0.91188000000E+02  0.91188000000E+02 0.  0.
    9900012    2    3    3    0    0  0.15330149813E+02 -0.30581964365E+02  0.13620260898E+02  0.54367061057E+02  0.39999947292E+02 0.  0.
         12    1    3    3    0    0 -0.15330149813E+02  0.30581964365E+02 -0.13620260898E+02  0.36820938943E+02  0.00000000000E+00 0. -1.
         11    1    4    4    0    0  0.40434372756E+01  0.47473985777E+01  0.86179813117E+01  0.10637517587E+02  0.51100000000E-03 0. -1.
        -11    1    4    4    0    0  0.45574862375E+01 -0.20732083850E+02 -0.83729649351E+01  0.22818775682E+02  0.51100000000E-03 0.  1.
        -12    1    4    4    0    0  0.67292262998E+01 -0.14597279093E+02  0.13375244521E+02  0.20910767789E+02  0.00000000000E+00 0.  1.
</event>
<event>
 8    1  0.1244838E-006  0.9118800E+02  0.7816164E-02  0.1184000E+00
        -11   -1    0    0    0    0  0.00000000000E+00  0.00000000000E+00  0.45593999997E+02  0.45594000000E+02  0.51100000000E-03 0. -1.
         11   -1    0    0    0    0 -0.00000000000E+00 -0.00000000000E+00 -0.45593999997E+02  0.45594000000E+02  0.51100000000E-03 0.  1.
         23    2    1    2    0    0  0.00000000000E+00  0.17763568394E-14 -0.35527136788E-14  0.91188000000E+02  0.91188000000E+02 0.  0.
    9900012    2    3    3    0    0  0.26330053522E+02  0.14601219797E+02 -0.21196954530E+02  0.54367106212E+02  0.40000050232E+02 0.  0.
         12    1    3    3    0    0 -0.26330053522E+02 -0.14601219797E+02  0.21196954530E+02  0.36820893788E+02  0.00000000000E+00 0. -1.
         11    1    4    4    0    0 -0.54894043129E+01  0.17741627956E+01 -0.24981459041E+01  0.62866482767E+01  0.51100000000E-03 0. -1.
        -11    1    4    4    0    0  0.58049958586E+01  0.10467597743E+02  0.48467414309E+01  0.12913538717E+02  0.51100000000E-03 0.  1.
        -12    1    4    4    0    0  0.26014461976E+02  0.23594592581E+01 -0.23545550056E+02  0.35166919219E+02  0.00000000000E+00 0.  1.
</event>
<event>
 8    1  0.1244838E-006  0.9118800E+02  0.7816164E-02  0.1184000E+00
        -11   -1    0    0    0    0  0.00000000000E+00  0.00000000000E+00  0.45593999997E+02  0.45594000000E+02  0.51100000000E-03 0.  1.
         11   -1    0    0    0    0 -0.00000000000E+00 -0.00000000000E+00 -0.45593999997E+02  0.45594000000E+02  0.51100000000E-03 0. -1.
         23    2    1    2    0    0  0.17763568394E-14  0.00000000000E+00  0.71054273576E-14  0.91188000000E+02  0.91188000000E+02 0.  0.
    9900012    2    3    3    0    0  0.23537275967E+01  0.13688785971E+02  0.34100683681E+02  0.54367088516E+02  0.40000009891E+02 0.  0.
         12    1    3    3    0    0 -0.23537275967E+01 -0.13688785971E+02 -0.34100683681E+02  0.36820911484E+02  0.00000000000E+00 0. -1.
         11    1    4    4    0    0 -0.73908821976E+01  0.72885117965E+01  0.15897323599E+01  0.10501180558E+02  0.51100000000E-03 0. -1.
        -11    1    4    4    0    0  0.11790224313E+02  0.10845191495E+02  0.34914661037E+02  0.38414334870E+02  0.51100000000E-03 0.  1.
        -12    1    4    4    0    0 -0.20456145190E+01 -0.44449173208E+01 -0.24037097152E+01  0.54515730889E+01  0.00000000000E+00 0.  1.
</event>
<event>
 8    1  0.1244838E-006  0.9118800E+02  0.7816164E-02  0.1184000E+00
        -11   -1    0    0    0    0  0.00000000000E+00  0.00000000000E+00  0.45593999997E+02  0.45594000000E+02  0.51100000000E-03 0. -1.
         11   -1    0    0    0    0 -0.00000000000E+00 -0.00000000000E+00 -0.45593999997E+02  0.45594000000E+02  0.51100000000E-03 0.  1.
         23    2    1    2    0    0  0.00000000000E+00  0.35527136788E-14  0.00000000000E+00  0.91188000000E+02  0.91188000000E+02 0.  0.
    9900012    2    3    3    0    0 -0.94366511848E+01 -0.29656850423E+02 -0.19677411978E+02  0.54367086042E+02  0.40000004249E+02 0.  0.
         12    1    3    3    0    0  0.94366511848E+01  0.29656850423E+02  0.19677411978E+02  0.36820913958E+02  0.00000000000E+00 0. -1.
         11    1    4    4    0    0 -0.77376770687E+01 -0.25914617466E+01  0.52219250870E+01  0.96879214633E+01  0.51100000000E-03 0. -1.
        -11    1    4    4    0    0 -0.55736578598E+01 -0.29588091663E+02 -0.26161264894E+02  0.39886496604E+02  0.51100000000E-03 0.  1.
        -12    1    4    4    0    0  0.38746837437E+01  0.25227029865E+01  0.12619278294E+01  0.47926679750E+01  0.00000000000E+00 0.  1.
</event>
<event>
 8    1  0.1244838E-006  0.9118800E+02  0.7816164E-02  0.1184000E+00
        -11   -1    0    0    0    0  0.00000000000E+00  0.00000000000E+00  0.45593999997E+02  0.45594000000E+02  0.51100000000E-03 0.  1.
         11   -1    0    0    0    0 -0.00000000000E+00 -0.00000000000E+00 -0.45593999997E+02  0.45594000000E+02  0.51100000000E-03 0. -1.
         23    2    1    2    0    0  0.00000000000E+00  0.35527136788E-14 -0.35527136788E-14  0.91188000000E+02  0.91188000000E+02 0.  0.
    9900012    2    3    3    0    0 -0.56522248083E+01 -0.19900212089E+02  0.30460282415E+02  0.54366879820E+02  0.39999534124E+02 0.  0.
         12    1    3    3    0    0  0.56522248083E+01  0.19900212089E+02 -0.30460282415E+02  0.36821120180E+02  0.00000000000E+00 0. -1.
         11    1    4    4    0    0 -0.82345539504E+01 -0.14001025702E+02  0.13619027908E+02  0.21197040380E+02  0.51100000000E-03 0. -1.
        -11    1    4    4    0    0 -0.12049841434E+02  0.72597502329E+00  0.10141924818E+02  0.15766558204E+02  0.51100000000E-03 0.  1.
         12    1    4    4    0    0  0.14632170576E+02 -0.66251614105E+01  0.66993296885E+01  0.17403281236E+02  0.00000000000E+00 0. -1.
</event>
<event>
 8    1  0.1244838E-006  0.9118800E+02  0.7816164E-02  0.1184000E+00
        -11   -1    0    0    0    0  0.00000000000E+00  0.00000000000E+00  0.45593999997E+02  0.45594000000E+02  0.51100000000E-03 0.  1.
         11   -1    0    0    0    0 -0.00000000000E+00 -0.00000000000E+00 -0.45593999997E+02  0.45594000000E+02  0.51100000000E-03 0. -1.
         23    2    1    2    0    0  0.00000000000E+00 -0.26645352591E-14  0.35527136788E-14  0.91188000000E+02  0.91188000000E+02 0.  0.
    9900012    2    3    3    0    0 -0.32433119954E+02 -0.38093828384E+01 -0.17010604423E+02  0.54367091124E+02  0.40000015836E+02 0.  0.
        -12    1    3    3    0    0  0.32433119954E+02  0.38093828384E+01  0.17010604423E+02  0.36820908876E+02  0.00000000000E+00 0.  1.
         11    1    4    4    0    0  0.17354136233E+01  0.55116423037E+01 -0.72390848795E+01  0.92625164767E+01  0.51100000000E-03 0. -1.
        -11    1    4    4    0    0 -0.15785881583E+02 -0.13707605343E+02  0.45453445687E+01  0.21395155038E+02  0.51100000000E-03 0.  1.
        -12    1    4    4    0    0 -0.18382651994E+02  0.43865802008E+01 -0.14316864112E+02  0.23709419609E+02  0.00000000000E+00 0.  1.
</event>
<event>
 8    1  0.1244838E-006  0.9118800E+02  0.7816164E-02  0.1184000E+00
        -11   -1    0    0    0    0  0.00000000000E+00  0.00000000000E+00  0.45593999997E+02  0.45594000000E+02  0.51100000000E-03 0.  1.
         11   -1    0    0    0    0 -0.00000000000E+00 -0.00000000000E+00 -0.45593999997E+02  0.45594000000E+02  0.51100000000E-03 0. -1.
         23    2    1    2    0    0  0.00000000000E+00  0.88817841970E-15  0.00000000000E+00  0.91188000000E+02  0.91188000000E+02 0.  0.
    9900012    2    3    3    0    0  0.71601144232E+01 -0.49526880699E+01  0.35776746445E+02  0.54367191429E+02  0.40000244499E+02 0.  0.
         12    1    3    3    0    0 -0.71601144232E+01  0.49526880699E+01 -0.35776746445E+02  0.36820808571E+02  0.00000000000E+00 0. -1.
         11    1    4    4    0    0 -0.63520669866E+01  0.56475837870E+01  0.22123176244E+01  0.87828416339E+01  0.51100000000E-03 0. -1.
        -11    1    4    4    0    0 -0.60952883977E+01 -0.93927206892E+01  0.12460214583E+02  0.16752095102E+02  0.51100000000E-03 0.  1.
        -12    1    4    4    0    0  0.19607469808E+02 -0.12075511677E+01  0.21104214237E+02  0.28832254693E+02  0.00000000000E+00 0.  1.
</event>
<event>
 8    1  0.1244838E-006  0.9118800E+02  0.7816164E-02  0.1184000E+00
        -11   -1    0    0    0    0  0.00000000000E+00  0.00000000000E+00  0.45593999997E+02  0.45594000000E+02  0.51100000000E-03 0.  1.
         11   -1    0    0    0    0 -0.00000000000E+00 -0.00000000000E+00 -0.45593999997E+02  0.45594000000E+02  0.51100000000E-03 0. -1.
         23    2    1    2    0    0  0.00000000000E+00 -0.35527136788E-14  0.00000000000E+00  0.91188000000E+02  0.91188000000E+02 0.  0.
    9900012    2    3    3    0    0  0.86865841339E+01  0.19208502261E+02  0.30188725390E+02  0.54367048848E+02  0.39999919459E+02 0.  0.
         12    1    3    3    0    0 -0.86865841339E+01 -0.19208502261E+02 -0.30188725390E+02  0.36820951152E+02  0.00000000000E+00 0. -1.
         11    1    4    4    0    0  0.17010703045E+01 -0.26749397873E+01  0.10540333138E+02  0.11006705500E+02  0.51100000000E-03 0. -1.
        -11    1    4    4    0    0  0.10827904188E+02  0.28333658017E+02  0.19072914935E+02  0.35830374965E+02  0.51100000000E-03 0.  1.
         12    1    4    4    0    0 -0.38423903590E+01 -0.64502159682E+01  0.57547731694E+00  0.75299683831E+01  0.00000000000E+00 0. -1.
</event>
<event>
 8    1  0.1244838E-006  0.9118800E+02  0.7816164E-02  0.1184000E+00
        -11   -1    0    0    0    0  0.00000000000E+00  0.00000000000E+00  0.45593999997E+02  0.45594000000E+02  0.51100000000E-03 0.  1.
         11   -1    0    0    0    0 -0.00000000000E+00 -0.00000000000E+00 -0.45593999997E+02  0.45594000000E+02  0.51100000000E-03 0. -1.
         23    2    1    2    0    0  0.00000000000E+00  0.17763568394E-14  0.71054273576E-14  0.91188000000E+02  0.91188000000E+02 0.  0.
    9900012    2    3    3    0    0  0.21046474296E+02 -0.21678513635E+01 -0.30135055419E+02  0.54367146874E+02  0.40000142929E+02 0.  0.
        -12    1    3    3    0    0 -0.21046474296E+02  0.21678513635E+01  0.30135055419E+02  0.36820853126E+02  0.00000000000E+00 0.  1.
         11    1    4    4    0    0  0.54708556348E+01  0.16712075261E+01  0.40159005876E+01  0.69893242708E+01  0.51100000000E-03 0. -1.
        -11    1    4    4    0    0  0.70206642629E+01  0.12161835577E+02 -0.19643399312E+02  0.24146699735E+02  0.51100000000E-03 0.  1.
         12    1    4    4    0    0  0.85549543985E+01 -0.16000894467E+02 -0.14507556694E+02  0.23231122868E+02  0.00000000000E+00 0. -1.
</event>
<event>
 8    1  0.1244838E-006  0.9118800E+02  0.7816164E-02  0.1184000E+00
        -11   -1    0    0    0    0  0.00000000000E+00  0.00000000000E+00  0.45593999997E+02  0.45594000000E+02  0.51100000000E-03 0. -1.
         11   -1    0    0    0    0 -0.00000000000E+00 -0.00000000000E+00 -0.45593999997E+02  0.45594000000E+02  0.51100000000E-03 0.  1.
         23    2    1    2    0    0 -0.35527136788E-14  0.88817841970E-15  0.35527136788E-14  0.91188000000E+02  0.91188000000E+02 0.  0.
    9900012    2    3    3    0    0  0.27659397041E+02 -0.37620217419E+01  0.24012184018E+02  0.54367081576E+02  0.39999994069E+02 0.  0.
        -12    1    3    3    0    0 -0.27659397041E+02  0.37620217419E+01 -0.24012184018E+02  0.36820918424E+02  0.00000000000E+00 0.  1.
         11    1    4    4    0    0 -0.68715521182E+01  0.17254838188E+01  0.13340571029E+02  0.15105176549E+02  0.51100000000E-03 0.  1.
        -11    1    4    4    0    0  0.11090786467E+02  0.33730442241E+00 -0.30180525209E+01  0.11499041700E+02  0.51100000000E-03 0. -1.
        -12    1    4    4    0    0  0.23440162692E+02 -0.58248099831E+01  0.13689665510E+02  0.27762863328E+02  0.00000000000E+00 0.  1.
</event>
<event>
 8    1  0.1244838E-006  0.9118800E+02  0.7816164E-02  0.1184000E+00
        -11   -1    0    0    0    0  0.00000000000E+00  0.00000000000E+00  0.45593999997E+02  0.45594000000E+02  0.51100000000E-03 0. -1.
         11   -1    0    0    0    0 -0.00000000000E+00 -0.00000000000E+00 -0.45593999997E+02  0.45594000000E+02  0.51100000000E-03 0.  1.
         23    2    1    2    0    0  0.00000000000E+00 -0.44408920985E-15  0.00000000000E+00  0.91188000000E+02  0.91188000000E+02 0.  0.
    9900012    2    3    3    0    0  0.33750507468E+02 -0.20272957591E+01  0.14579895891E+02  0.54367081399E+02  0.39999993665E+02 0.  0.
         12    1    3    3    0    0 -0.33750507468E+02  0.20272957591E+01 -0.14579895891E+02  0.36820918601E+02  0.00000000000E+00 0. -1.
         11    1    4    4    0    0  0.79430468366E+01 -0.31502712523E+01  0.13783319253E+02  0.16217154248E+02  0.51100000000E-03 0.  1.
        -11    1    4    4    0    0  0.67633855210E+01  0.13595765699E+02  0.21901797221E+01  0.15342265678E+02  0.51100000000E-03 0. -1.
        -12    1    4    4    0    0  0.19044075110E+02 -0.12472790206E+02 -0.13936030843E+01  0.22807661473E+02  0.00000000000E+00 0.  1.
</event>
<event>
 8    1  0.1244838E-006  0.9118800E+02  0.7816164E-02  0.1184000E+00
        -11   -1    0    0    0    0  0.00000000000E+00  0.00000000000E+00  0.45593999997E+02  0.45594000000E+02  0.51100000000E-03 0.  1.
         11   -1    0    0    0    0 -0.00000000000E+00 -0.00000000000E+00 -0.45593999997E+02  0.45594000000E+02  0.51100000000E-03 0. -1.
         23    2    1    2    0    0  0.00000000000E+00  0.00000000000E+00  0.00000000000E+00  0.91188000000E+02  0.91188000000E+02 0.  0.
    9900012    2    3    3    0    0  0.20397359544E+02  0.11119793017E+02  0.28567075344E+02  0.54367083841E+02  0.39999999231E+02 0.  0.
         12    1    3    3    0    0 -0.20397359544E+02 -0.11119793017E+02 -0.28567075344E+02  0.36820916159E+02  0.00000000000E+00 0. -1.
         11    1    4    4    0    0 -0.64460283514E+01 -0.85115246655E+01  0.27565727090E+01  0.11027058855E+02  0.51100000000E-03 0. -1.
        -11    1    4    4    0    0  0.15492324429E+02  0.13022970517E+02  0.93854509317E+01  0.22309113984E+02  0.51100000000E-03 0.  1.
         12    1    4    4    0    0  0.11351063466E+02  0.66083471653E+01  0.16425051704E+02  0.21030911001E+02  0.00000000000E+00 0. -1.
</event>
<event>
 8    1  0.1244838E-006  0.9118800E+02  0.7816164E-02  0.1184000E+00
        -11   -1    0    0    0    0  0.00000000000E+00  0.00000000000E+00  0.45593999997E+02  0.45594000000E+02  0.51100000000E-03 0.  1.
         11   -1    0    0    0    0 -0.00000000000E+00 -0.00000000000E+00 -0.45593999997E+02  0.45594000000E+02  0.51100000000E-03 0. -1.
         23    2    1    2    0    0 -0.35527136788E-14  0.44408920985E-15 -0.35527136788E-14  0.91188000000E+02  0.91188000000E+02 0.  0.
    9900012    2    3    3    0    0  0.27812998802E+02 -0.24121278345E+01  0.24008328535E+02  0.54367067066E+02  0.39999960991E+02 0.  0.
         12    1    3    3    0    0 -0.27812998802E+02  0.24121278345E+01 -0.24008328535E+02  0.36820932934E+02  0.00000000000E+00 0. -1.
         11    1    4    4    0    0  0.26303340427E+01  0.91713692152E+01 -0.28168269176E+01  0.99482251986E+01  0.51100000000E-03 0. -1.
        -11    1    4    4    0    0 -0.23761317350E+01 -0.74696682032E+00 -0.19231238954E+01  0.31468026997E+01  0.51100000000E-03 0.  1.
        -12    1    4    4    0    0  0.27558796494E+02 -0.10836530229E+02  0.28748279348E+02  0.41272039168E+02  0.00000000000E+00 0.  1.
</event>
<event>
 8    1  0.1244838E-006  0.9118800E+02  0.7816164E-02  0.1184000E+00
        -11   -1    0    0    0    0  0.00000000000E+00  0.00000000000E+00  0.45593999997E+02  0.45594000000E+02  0.51100000000E-03 0. -1.
         11   -1    0    0    0    0 -0.00000000000E+00 -0.00000000000E+00 -0.45593999997E+02  0.45594000000E+02  0.51100000000E-03 0.  1.
         23    2    1    2    0    0  0.19706458687E-14  0.00000000000E+00  0.00000000000E+00  0.91188000000E+02  0.91188000000E+02 0.  0.
    9900012    2    3    3    0    0  0.33745498198E-01  0.32305417541E+02 -0.17667428424E+02  0.54367093325E+02  0.40000020853E+02 0.  0.
        -12    1    3    3    0    0 -0.33745498198E-01 -0.32305417541E+02  0.17667428424E+02  0.36820906675E+02  0.00000000000E+00 0.  1.
         11    1    4    4    0    0  0.14889588159E+02  0.94839769646E+01 -0.17937163206E+01  0.17744381452E+02  0.51100000000E-03 0. -1.
        -11    1    4    4    0    0  0.36439613163E+01  0.58240080570E+01  0.65149827121E-01  0.68703543346E+01  0.51100000000E-03 0.  1.
        -12    1    4    4    0    0 -0.18499803977E+02  0.16997432519E+02 -0.15938861931E+02  0.29752357538E+02  0.00000000000E+00 0.  1.
</event>
<event>
 8    1  0.1244838E-006  0.9118800E+02  0.7816164E-02  0.1184000E+00
        -11   -1    0    0    0    0  0.00000000000E+00  0.00000000000E+00  0.45593999997E+02  0.45594000000E+02  0.51100000000E-03 0. -1.
         11   -1    0    0    0    0 -0.00000000000E+00 -0.00000000000E+00 -0.45593999997E+02  0.45594000000E+02  0.51100000000E-03 0.  1.
         23    2    1    2    0    0  0.00000000000E+00  0.00000000000E+00  0.35527136788E-14  0.91188000000E+02  0.91188000000E+02 0.  0.
    9900012    2    3    3    0    0 -0.29670916825E+02 -0.81979652282E+01 -0.20204216062E+02  0.54367078152E+02  0.39999986262E+02 0.  0.
         12    1    3    3    0    0  0.29670916825E+02  0.81979652282E+01  0.20204216062E+02  0.36820921848E+02  0.00000000000E+00 0. -1.
         11    1    4    4    0    0  0.26224974684E+01  0.54973577888E+01 -0.96493043355E+00  0.61668084640E+01  0.51100000000E-03 0.  1.
        -11    1    4    4    0    0 -0.25827063468E+02 -0.17683123897E+01 -0.22441273990E+02  0.34260398635E+02  0.51100000000E-03 0. -1.
         12    1    4    4    0    0 -0.64663508254E+01 -0.11927010627E+02  0.32019883613E+01  0.13939871053E+02  0.00000000000E+00 0. -1.
</event>
<event>
 8    1  0.1244838E-006  0.9118800E+02  0.7816164E-02  0.1184000E+00
        -11   -1    0    0    0    0  0.00000000000E+00  0.00000000000E+00  0.45593999997E+02  0.45594000000E+02  0.51100000000E-03 0.  1.
         11   -1    0    0    0    0 -0.00000000000E+00 -0.00000000000E+00 -0.45593999997E+02  0.45594000000E+02  0.51100000000E-03 0. -1.
         23    2    1    2    0    0 -0.26645352591E-14 -0.35527136788E-14 -0.71054273576E-14  0.91188000000E+02  0.91188000000E+02 0.  0.
    9900012    2    3    3    0    0  0.48547951689E+01  0.25247733693E+02  0.26358359537E+02  0.54367079177E+02  0.39999988600E+02 0.  0.
         12    1    3    3    0    0 -0.48547951689E+01 -0.25247733693E+02 -0.26358359537E+02  0.36820920823E+02  0.00000000000E+00 0. -1.
         11    1    4    4    0    0 -0.62089007795E+01  0.19890911364E+02  0.96990262835E+01  0.22984123104E+02  0.51100000000E-03 0. -1.
        -11    1    4    4    0    0  0.16551735724E+02  0.60598489439E+01  0.18499422757E+02  0.25552110819E+02  0.51100000000E-03 0.  1.
         12    1    4    4    0    0 -0.54880397751E+01 -0.70302661492E+00 -0.18400895034E+01  0.58308452539E+01  0.00000000000E+00 0. -1.
</event>
<event>
 8    1  0.1244838E-006  0.9118800E+02  0.7816164E-02  0.1184000E+00
        -11   -1    0    0    0    0  0.00000000000E+00  0.00000000000E+00  0.45593999997E+02  0.45594000000E+02  0.51100000000E-03 0.  1.
         11   -1    0    0    0    0 -0.00000000000E+00 -0.00000000000E+00 -0.45593999997E+02  0.45594000000E+02  0.51100000000E-03 0. -1.
         23    2    1    2    0    0  0.00000000000E+00  0.35527136788E-14  0.00000000000E+00  0.91188000000E+02  0.91188000000E+02 0.  0.
    9900012    2    3    3    0    0  0.10008515594E+02 -0.25146947583E+02  0.24964790596E+02  0.54367080313E+02  0.39999991188E+02 0.  0.
         12    1    3    3    0    0 -0.10008515594E+02  0.25146947583E+02 -0.24964790596E+02  0.36820919687E+02  0.00000000000E+00 0. -1.
         11    1    4    4    0    0  0.82963949727E+01 -0.13977691682E+02 -0.24779288325E+01  0.16442206842E+02  0.51100000000E-03 0. -1.
        -11    1    4    4    0    0  0.12075078489E+02 -0.39323635418E+01  0.89942032475E+01  0.15561706072E+02  0.51100000000E-03 0.  1.
        -12    1    4    4    0    0 -0.10362957868E+02 -0.72368923599E+01  0.18448516181E+02  0.22363167398E+02  0.00000000000E+00 0.  1.
</event>
<event>
 8    1  0.1244838E-006  0.9118800E+02  0.7816164E-02  0.1184000E+00
        -11   -1    0    0    0    0  0.00000000000E+00  0.00000000000E+00  0.45593999997E+02  0.45594000000E+02  0.51100000000E-03 0.  1.
         11   -1    0    0    0    0 -0.00000000000E+00 -0.00000000000E+00 -0.45593999997E+02  0.45594000000E+02  0.51100000000E-03 0. -1.
         23    2    1    2    0    0  0.00000000000E+00  0.00000000000E+00  0.00000000000E+00  0.91188000000E+02  0.91188000000E+02 0.  0.
    9900012    2    3    3    0    0 -0.28764156563E+02 -0.91331357841E+01  0.21094778929E+02  0.54367074291E+02  0.39999977460E+02 0.  0.
         12    1    3    3    0    0  0.28764156563E+02  0.91331357841E+01 -0.21094778929E+02  0.36820925709E+02  0.00000000000E+00 0. -1.
         11    1    4    4    0    0  0.13810509119E+01  0.68473608296E+01  0.54468968600E+01  0.88578969071E+01  0.51100000000E-03 0. -1.
        -11    1    4    4    0    0 -0.49872916987E+01 -0.59669305781E+01  0.16688674693E+02  0.18411659412E+02  0.51100000000E-03 0.  1.
        -12    1    4    4    0    0 -0.25157915776E+02 -0.10013566036E+02 -0.10407926240E+01  0.27097517972E+02  0.00000000000E+00 0.  1.
</event>
<event>
 8    1  0.1244838E-006  0.9118800E+02  0.7816164E-02  0.1184000E+00
        -11   -1    0    0    0    0  0.00000000000E+00  0.00000000000E+00  0.45593999997E+02  0.45594000000E+02  0.51100000000E-03 0.  1.
         11   -1    0    0    0    0 -0.00000000000E+00 -0.00000000000E+00 -0.45593999997E+02  0.45594000000E+02  0.51100000000E-03 0. -1.
         23    2    1    2    0    0 -0.71054273576E-14  0.00000000000E+00  0.11102230246E-15  0.91188000000E+02  0.91188000000E+02 0.  0.
    9900012    2    3    3    0    0 -0.35584773184E+02 -0.94430719055E+01  0.57527127494E+00  0.54367100682E+02  0.40000037625E+02 0.  0.
        -12    1    3    3    0    0  0.35584773184E+02  0.94430719055E+01 -0.57527127494E+00  0.36820899318E+02  0.00000000000E+00 0.  1.
         11    1    4    4    0    0 -0.28520394441E+02 -0.16876345880E+01 -0.15852020354E+01  0.28614225052E+02  0.51100000000E-03 0. -1.
        -11    1    4    4    0    0 -0.14440614764E+01 -0.13313868450E+02 -0.57460782256E+01  0.14572639496E+02  0.51100000000E-03 0.  1.
        -12    1    4    4    0    0 -0.56203172660E+01  0.55584311320E+01  0.79065515359E+01  0.11180236134E+02  0.00000000000E+00 0.  1.
</event>
<event>
 8    1  0.1244838E-006  0.9118800E+02  0.7816164E-02  0.1184000E+00
        -11   -1    0    0    0    0  0.00000000000E+00  0.00000000000E+00  0.45593999997E+02  0.45594000000E+02  0.51100000000E-03 0. -1.
         11   -1    0    0    0    0 -0.00000000000E+00 -0.00000000000E+00 -0.45593999997E+02  0.45594000000E+02  0.51100000000E-03 0.  1.
         23    2    1    2    0    0  0.00000000000E+00 -0.79797279895E-15  0.00000000000E+00  0.91188000000E+02  0.91188000000E+02 0.  0.
    9900012    2    3    3    0    0 -0.26607191548E+02  0.21385521354E-01 -0.25452648632E+02  0.54367076305E+02  0.39999982051E+02 0.  0.
         12    1    3    3    0    0  0.26607191548E+02 -0.21385521354E-01  0.25452648632E+02  0.36820923695E+02  0.00000000000E+00 0. -1.
         11    1    4    4    0    0 -0.19679205645E+02 -0.15529454122E+02 -0.23216588812E+02  0.34167895406E+02  0.51100000000E-03 0. -1.
        -11    1    4    4    0    0 -0.72880296530E+00  0.13239227499E+02 -0.28249812317E+01  0.13556873451E+02  0.51100000000E-03 0.  1.
         12    1    4    4    0    0 -0.61991829378E+01  0.23116121442E+01  0.58892141162E+00  0.66423074477E+01  0.00000000000E+00 0. -1.
</event>
<event>
 8    1  0.1244838E-006  0.9118800E+02  0.7816164E-02  0.1184000E+00
        -11   -1    0    0    0    0  0.00000000000E+00  0.00000000000E+00  0.45593999997E+02  0.45594000000E+02  0.51100000000E-03 0. -1.
         11   -1    0    0    0    0 -0.00000000000E+00 -0.00000000000E+00 -0.45593999997E+02  0.45594000000E+02  0.51100000000E-03 0.  1.
         23    2    1    2    0    0 -0.55511151231E-15  0.00000000000E+00  0.00000000000E+00  0.91188000000E+02  0.91188000000E+02 0.  0.
    9900012    2    3    3    0    0 -0.51805043892E+00 -0.15231839836E+02 -0.33518745651E+02  0.54367032725E+02  0.39999882703E+02 0.  0.
         12    1    3    3    0    0  0.51805043892E+00  0.15231839836E+02  0.33518745651E+02  0.36820967275E+02  0.00000000000E+00 0. -1.
         11    1    4    4    0    0  0.32517407220E+01  0.54018022722E+01  0.58111439091E+01  0.85745366816E+01  0.51100000000E-03 0. -1.
        -11    1    4    4    0    0  0.26072437944E+01 -0.12448160697E+02 -0.17622951288E+02  0.21732989608E+02  0.51100000000E-03 0.  1.
        -12    1    4    4    0    0 -0.63770349554E+01 -0.81854814111E+01 -0.21706938272E+02  0.24059506435E+02  0.00000000000E+00 0.  1.
</event>
<event>
 8    1  0.1244838E-006  0.9118800E+02  0.7816164E-02  0.1184000E+00
        -11   -1    0    0    0    0  0.00000000000E+00  0.00000000000E+00  0.45593999997E+02  0.45594000000E+02  0.51100000000E-03 0.  1.
         11   -1    0    0    0    0 -0.00000000000E+00 -0.00000000000E+00 -0.45593999997E+02  0.45594000000E+02  0.51100000000E-03 0. -1.
         23    2    1    2    0    0  0.35527136788E-14  0.71054273576E-14  0.17763568394E-14  0.91188000000E+02  0.91188000000E+02 0.  0.
    9900012    2    3    3    0    0 -0.12292157609E+02 -0.32546259879E+02 -0.12059277046E+02  0.54367050343E+02  0.39999922867E+02 0.  0.
        -12    1    3    3    0    0  0.12292157609E+02  0.32546259879E+02  0.12059277046E+02  0.36820949657E+02  0.00000000000E+00 0.  1.
         11    1    4    4    0    0  0.64626595866E+01 -0.83737561790E+01 -0.17644133612E+01  0.10723754764E+02  0.51100000000E-03 0. -1.
        -11    1    4    4    0    0 -0.55028822491E+01 -0.67202982999E+01  0.10367240434E+02  0.13524932413E+02  0.51100000000E-03 0.  1.
         12    1    4    4    0    0 -0.13251934946E+02 -0.17452205400E+02 -0.20662104119E+02  0.30118363166E+02  0.00000000000E+00 0. -1.
</event>
<event>
 8    1  0.1244838E-006  0.9118800E+02  0.7816164E-02  0.1184000E+00
        -11   -1    0    0    0    0  0.00000000000E+00  0.00000000000E+00  0.45593999997E+02  0.45594000000E+02  0.51100000000E-03 0.  1.
         11   -1    0    0    0    0 -0.00000000000E+00 -0.00000000000E+00 -0.45593999997E+02  0.45594000000E+02  0.51100000000E-03 0. -1.
         23    2    1    2    0    0  0.71054273576E-14  0.22204460493E-15  0.35527136788E-14  0.91188000000E+02  0.91188000000E+02 0.  0.
    9900012    2    3    3    0    0  0.30953606545E+02  0.10691252775E+01  0.19912659440E+02  0.54367044105E+02  0.39999908647E+02 0.  0.
         12    1    3    3    0    0 -0.30953606545E+02 -0.10691252775E+01 -0.19912659440E+02  0.36820955895E+02  0.00000000000E+00 0. -1.
         11    1    4    4    0    0 -0.11893838915E+01 -0.27146255995E+01 -0.13161346570E+01  0.32428439498E+01  0.51100000000E-03 0. -1.
        -11    1    4    4    0    0 -0.54108477393E+01 -0.17756700777E+01 -0.26442132182E+01  0.62787053831E+01  0.51100000000E-03 0.  1.
        -12    1    4    4    0    0  0.37553838176E+02  0.55594209547E+01  0.23873007315E+02  0.44845494772E+02  0.00000000000E+00 0.  1.
</event>
<event>
 8    1  0.1244838E-006  0.9118800E+02  0.7816164E-02  0.1184000E+00
        -11   -1    0    0    0    0  0.00000000000E+00  0.00000000000E+00  0.45593999997E+02  0.45594000000E+02  0.51100000000E-03 0. -1.
         11   -1    0    0    0    0 -0.00000000000E+00 -0.00000000000E+00 -0.45593999997E+02  0.45594000000E+02  0.51100000000E-03 0.  1.
         23    2    1    2    0    0  0.00000000000E+00  0.11379786002E-14 -0.35527136788E-14  0.91188000000E+02  0.91188000000E+02 0.  0.
    9900012    2    3    3    0    0 -0.30437938555E+02 -0.16749405860E+00 -0.20719193379E+02  0.54367066660E+02  0.39999960065E+02 0.  0.
         12    1    3    3    0    0  0.30437938555E+02  0.16749405860E+00  0.20719193379E+02  0.36820933340E+02  0.00000000000E+00 0. -1.
         11    1    4    4    0    0 -0.10860175886E+02  0.16840049038E+02 -0.98095228434E+01  0.22310477595E+02  0.51100000000E-03 0. -1.
        -11    1    4    4    0    0 -0.20482247788E+02 -0.11654802349E+02 -0.12112073750E+02  0.26496400190E+02  0.51100000000E-03 0.  1.
         12    1    4    4    0    0  0.90448511849E+00 -0.53527407469E+01  0.12024032143E+01  0.55601888747E+01  0.00000000000E+00 0. -1.
</event>
<event>
 8    1  0.1244838E-006  0.9118800E+02  0.7816164E-02  0.1184000E+00
        -11   -1    0    0    0    0  0.00000000000E+00  0.00000000000E+00  0.45593999997E+02  0.45594000000E+02  0.51100000000E-03 0. -1.
         11   -1    0    0    0    0 -0.00000000000E+00 -0.00000000000E+00 -0.45593999997E+02  0.45594000000E+02  0.51100000000E-03 0.  1.
         23    2    1    2    0    0  0.44408920985E-15  0.00000000000E+00  0.00000000000E+00  0.91188000000E+02  0.91188000000E+02 0.  0.
    9900012    2    3    3    0    0  0.23108981861E+01 -0.30172697704E+02  0.20977485842E+02  0.54366989022E+02  0.39999783073E+02 0.  0.
        -12    1    3    3    0    0 -0.23108981861E+01  0.30172697704E+02 -0.20977485842E+02  0.36821010978E+02  0.00000000000E+00 0.  1.
         11    1    4    4    0    0 -0.67127020453E+01 -0.26269589049E+02  0.80606048221E+01  0.28286481363E+02  0.51100000000E-03 0. -1.
        -11    1    4    4    0    0  0.65513304170E+01 -0.11539385894E+02  0.12194185046E+02  0.18021528965E+02  0.51100000000E-03 0.  1.
         12    1    4    4    0    0  0.24722698144E+01  0.76362772392E+01  0.72269597432E+00  0.80589786933E+01  0.00000000000E+00 0. -1.
</event>
<event>
 8    1  0.1244838E-006  0.9118800E+02  0.7816164E-02  0.1184000E+00
        -11   -1    0    0    0    0  0.00000000000E+00  0.00000000000E+00  0.45593999997E+02  0.45594000000E+02  0.51100000000E-03 0. -1.
         11   -1    0    0    0    0 -0.00000000000E+00 -0.00000000000E+00 -0.45593999997E+02  0.45594000000E+02  0.51100000000E-03 0.  1.
         23    2    1    2    0    0  0.00000000000E+00  0.17763568394E-14  0.00000000000E+00  0.91188000000E+02  0.91188000000E+02 0.  0.
    9900012    2    3    3    0    0  0.31519610277E+02  0.10457633305E+02 -0.15903803941E+02  0.54367096886E+02  0.40000028971E+02 0.  0.
        -12    1    3    3    0    0 -0.31519610277E+02 -0.10457633305E+02  0.15903803941E+02  0.36820903114E+02  0.00000000000E+00 0.  1.
         11    1    4    4    0    0  0.14376558814E+02  0.21728417656E+02 -0.42301586993E+01  0.26395147661E+02  0.51100000000E-03 0. -1.
        -11    1    4    4    0    0  0.17683124202E+02 -0.13644244036E+02 -0.12245201146E+02  0.25471616129E+02  0.51100000000E-03 0.  1.
        -12    1    4    4    0    0 -0.54007273895E+00  0.23734596851E+01  0.57155590446E+00  0.25003330962E+01  0.00000000000E+00 0.  1.
</event>
<event>
 8    1  0.1244838E-006  0.9118800E+02  0.7816164E-02  0.1184000E+00
        -11   -1    0    0    0    0  0.00000000000E+00  0.00000000000E+00  0.45593999997E+02  0.45594000000E+02  0.51100000000E-03 0. -1.
         11   -1    0    0    0    0 -0.00000000000E+00 -0.00000000000E+00 -0.45593999997E+02  0.45594000000E+02  0.51100000000E-03 0.  1.
         23    2    1    2    0    0  0.00000000000E+00 -0.35527136788E-14 -0.35527136788E-14  0.91188000000E+02  0.91188000000E+02 0.  0.
    9900012    2    3    3    0    0  0.19379941920E+02  0.68922022180E+01  0.30540069424E+02  0.54367076048E+02  0.39999981467E+02 0.  0.
        -12    1    3    3    0    0 -0.19379941920E+02 -0.68922022180E+01 -0.30540069424E+02  0.36820923952E+02  0.00000000000E+00 0.  1.
         11    1    4    4    0    0  0.22080766881E+02  0.16427684240E+02  0.85313242781E+01  0.28813409548E+02  0.51100000000E-03 0.  1.
        -11    1    4    4    0    0  0.26993468873E+01 -0.40741535146E+01  0.55758239353E+01  0.74145136925E+01  0.51100000000E-03 0. -1.
        -12    1    4    4    0    0 -0.54001718483E+01 -0.54613285079E+01  0.16432921211E+02  0.18139152808E+02  0.00000000000E+00 0.  1.
</event>
<event>
 8    1  0.1244838E-006  0.9118800E+02  0.7816164E-02  0.1184000E+00
        -11   -1    0    0    0    0  0.00000000000E+00  0.00000000000E+00  0.45593999997E+02  0.45594000000E+02  0.51100000000E-03 0. -1.
         11   -1    0    0    0    0 -0.00000000000E+00 -0.00000000000E+00 -0.45593999997E+02  0.45594000000E+02  0.51100000000E-03 0.  1.
         23    2    1    2    0    0  0.00000000000E+00 -0.71054273576E-14  0.00000000000E+00  0.91188000000E+02  0.91188000000E+02 0.  0.
    9900012    2    3    3    0    0  0.48643077055E+01 -0.32168513344E+02  0.17242521454E+02  0.54367091724E+02  0.40000017203E+02 0.  0.
        -12    1    3    3    0    0 -0.48643077055E+01  0.32168513344E+02 -0.17242521454E+02  0.36820908276E+02  0.00000000000E+00 0.  1.
         11    1    4    4    0    0  0.54256765411E+01 -0.80494738787E+01  0.29623550521E+01  0.10149263193E+02  0.51100000000E-03 0. -1.
        -11    1    4    4    0    0 -0.11950701898E+02 -0.48541794399E-01 -0.31904098445E+01  0.12369330919E+02  0.51100000000E-03 0.  1.
        -12    1    4    4    0    0  0.11389333062E+02 -0.24070497670E+02  0.17470576246E+02  0.31848497611E+02  0.00000000000E+00 0.  1.
</event>
<event>
 8    1  0.1244838E-006  0.9118800E+02  0.7816164E-02  0.1184000E+00
        -11   -1    0    0    0    0  0.00000000000E+00  0.00000000000E+00  0.45593999997E+02  0.45594000000E+02  0.51100000000E-03 0. -1.
         11   -1    0    0    0    0 -0.00000000000E+00 -0.00000000000E+00 -0.45593999997E+02  0.45594000000E+02  0.51100000000E-03 0.  1.
         23    2    1    2    0    0  0.00000000000E+00  0.00000000000E+00  0.22204460493E-14  0.91188000000E+02  0.91188000000E+02 0.  0.
    9900012    2    3    3    0    0 -0.16422490389E+02  0.32848991622E+02 -0.26504990942E+01  0.54367087646E+02  0.40000007906E+02 0.  0.
        -12    1    3    3    0    0  0.16422490389E+02 -0.32848991622E+02  0.26504990942E+01  0.36820912354E+02  0.00000000000E+00 0.  1.
         11    1    4    4    0    0  0.66921681092E+01  0.51592534843E+01  0.69796323551E+01  0.10959848475E+02  0.51100000000E-03 0. -1.
        -11    1    4    4    0    0 -0.65191626418E+01  0.62072790217E+01 -0.13252533371E+02  0.16020594103E+02  0.51100000000E-03 0.  1.
         12    1    4    4    0    0 -0.16595495857E+02  0.21482459116E+02  0.36224019216E+01  0.27386645068E+02  0.00000000000E+00 0. -1.
</event>
<event>
 8    1  0.1244838E-006  0.9118800E+02  0.7816164E-02  0.1184000E+00
        -11   -1    0    0    0    0  0.00000000000E+00  0.00000000000E+00  0.45593999997E+02  0.45594000000E+02  0.51100000000E-03 0.  1.
         11   -1    0    0    0    0 -0.00000000000E+00 -0.00000000000E+00 -0.45593999997E+02  0.45594000000E+02  0.51100000000E-03 0. -1.
         23    2    1    2    0    0  0.00000000000E+00  0.00000000000E+00  0.00000000000E+00  0.91188000000E+02  0.91188000000E+02 0.  0.
    9900012    2    3    3    0    0 -0.16297868308E+02  0.20275270732E+02 -0.26059030416E+02  0.54367079576E+02  0.39999989510E+02 0.  0.
        -12    1    3    3    0    0  0.16297868308E+02 -0.20275270732E+02  0.26059030416E+02  0.36820920424E+02  0.00000000000E+00 0.  1.
         11    1    4    4    0    0 -0.19797279063E+01  0.34923157325E+01 -0.16825781094E+02  0.17298049065E+02  0.51100000000E-03 0. -1.
        -11    1    4    4    0    0 -0.40237780254E+01  0.21288553573E+02 -0.12940772759E+02  0.25236023908E+02  0.51100000000E-03 0.  1.
        -12    1    4    4    0    0 -0.10294362376E+02 -0.45055985733E+01  0.37075234378E+01  0.11833006604E+02  0.00000000000E+00 0.  1.
</event>
<event>
 8    1  0.1244838E-006  0.9118800E+02  0.7816164E-02  0.1184000E+00
        -11   -1    0    0    0    0  0.00000000000E+00  0.00000000000E+00  0.45593999997E+02  0.45594000000E+02  0.51100000000E-03 0. -1.
         11   -1    0    0    0    0 -0.00000000000E+00 -0.00000000000E+00 -0.45593999997E+02  0.45594000000E+02  0.51100000000E-03 0.  1.
         23    2    1    2    0    0 -0.88817841970E-15  0.00000000000E+00 -0.35527136788E-14  0.91188000000E+02  0.91188000000E+02 0.  0.
    9900012    2    3    3    0    0  0.71301445681E+01 -0.18811493203E+02 -0.30839374361E+02  0.54367105809E+02  0.40000049312E+02 0.  0.
         12    1    3    3    0    0 -0.71301445681E+01  0.18811493203E+02  0.30839374361E+02  0.36820894191E+02  0.00000000000E+00 0. -1.
         11    1    4    4    0    0 -0.25009176412E+01  0.10048689285E+02  0.48087012355E+00  0.10366387111E+02  0.51100000000E-03 0. -1.
        -11    1    4    4    0    0  0.71134050967E+01 -0.24618811681E+02 -0.23588169131E+02  0.34829414923E+02  0.51100000000E-03 0.  1.
         12    1    4    4    0    0  0.25176571126E+01 -0.42413708070E+01 -0.77320753537E+01  0.91713037750E+01  0.00000000000E+00 0. -1.
</event>
<event>
 8    1  0.1244838E-006  0.9118800E+02  0.7816164E-02  0.1184000E+00
        -11   -1    0    0    0    0  0.00000000000E+00  0.00000000000E+00  0.45593999997E+02  0.45594000000E+02  0.51100000000E-03 0.  1.
         11   -1    0    0    0    0 -0.00000000000E+00 -0.00000000000E+00 -0.45593999997E+02  0.45594000000E+02  0.51100000000E-03 0. -1.
         23    2    1    2    0    0  0.00000000000E+00  0.17763568394E-14  0.00000000000E+00  0.91188000000E+02  0.91188000000E+02 0.  0.
    9900012    2    3    3    0    0 -0.32411943860E+02  0.14600457722E+02  0.95949165727E+01  0.54367219257E+02  0.40000307939E+02 0.  0.
         12    1    3    3    0    0  0.32411943860E+02 -0.14600457722E+02 -0.95949165727E+01  0.36820780743E+02  0.00000000000E+00 0. -1.
         11    1    4    4    0    0  0.50015393071E+01 -0.18247047055E+01  0.37298683723E+01  0.65005277508E+01  0.51100000000E-03 0. -1.
        -11    1    4    4    0    0 -0.33131211520E+02  0.19359345797E+02 -0.20205505105E+01  0.38425825574E+02  0.51100000000E-03 0.  1.
        -12    1    4    4    0    0 -0.42822716478E+01 -0.29341833696E+01  0.78855987109E+01  0.94408659318E+01  0.00000000000E+00 0.  1.
</event>
<event>
 8    1  0.1244838E-006  0.9118800E+02  0.7816164E-02  0.1184000E+00
        -11   -1    0    0    0    0  0.00000000000E+00  0.00000000000E+00  0.45593999997E+02  0.45594000000E+02  0.51100000000E-03 0.  1.
         11   -1    0    0    0    0 -0.00000000000E+00 -0.00000000000E+00 -0.45593999997E+02  0.45594000000E+02  0.51100000000E-03 0. -1.
         23    2    1    2    0    0 -0.35527136788E-14 -0.17763568394E-14  0.00000000000E+00  0.91188000000E+02  0.91188000000E+02 0.  0.
    9900012    2    3    3    0    0 -0.31404217091E+02  0.81443284290E+01  0.17413357297E+02  0.54367082724E+02  0.39999996687E+02 0.  0.
        -12    1    3    3    0    0  0.31404217091E+02 -0.81443284290E+01 -0.17413357297E+02  0.36820917276E+02  0.00000000000E+00 0.  1.
         11    1    4    4    0    0 -0.94201839387E+01  0.10648091875E+02 -0.55582893728E+01  0.15264871668E+02  0.51100000000E-03 0. -1.
        -11    1    4    4    0    0  0.46531876786E+01 -0.53066597289E+00  0.53129831763E+01  0.70824820818E+01  0.51100000000E-03 0.  1.
         12    1    4    4    0    0 -0.26637220831E+02 -0.19730974731E+01  0.17658663494E+02  0.32019728975E+02  0.00000000000E+00 0. -1.
</event>
<event>
 8    1  0.1244838E-006  0.9118800E+02  0.7816164E-02  0.1184000E+00
        -11   -1    0    0    0    0  0.00000000000E+00  0.00000000000E+00  0.45593999997E+02  0.45594000000E+02  0.51100000000E-03 0. -1.
         11   -1    0    0    0    0 -0.00000000000E+00 -0.00000000000E+00 -0.45593999997E+02  0.45594000000E+02  0.51100000000E-03 0.  1.
         23    2    1    2    0    0  0.00000000000E+00  0.00000000000E+00 -0.35527136788E-14  0.91188000000E+02  0.91188000000E+02 0.  0.
    9900012    2    3    3    0    0  0.20320631064E+02 -0.17847474620E+02  0.24986371601E+02  0.54367093399E+02  0.40000021022E+02 0.  0.
        -12    1    3    3    0    0 -0.20320631064E+02  0.17847474620E+02 -0.24986371601E+02  0.36820906601E+02  0.00000000000E+00 0.  1.
         11    1    4    4    0    0  0.74892246614E+01 -0.12331403851E+02  0.32941011757E+02  0.35961955770E+02  0.51100000000E-03 0. -1.
        -11    1    4    4    0    0  0.45387091283E+01  0.34606456482E+00 -0.68018903406E+01  0.81844580579E+01  0.51100000000E-03 0.  1.
         12    1    4    4    0    0  0.82926972743E+01 -0.58621353342E+01 -0.11527498157E+01  0.10220679571E+02  0.00000000000E+00 0. -1.
</event>
<event>
 8    1  0.1244838E-006  0.9118800E+02  0.7816164E-02  0.1184000E+00
        -11   -1    0    0    0    0  0.00000000000E+00  0.00000000000E+00  0.45593999997E+02  0.45594000000E+02  0.51100000000E-03 0. -1.
         11   -1    0    0    0    0 -0.00000000000E+00 -0.00000000000E+00 -0.45593999997E+02  0.45594000000E+02  0.51100000000E-03 0.  1.
         23    2    1    2    0    0 -0.18873791419E-14  0.00000000000E+00  0.00000000000E+00  0.91188000000E+02  0.91188000000E+02 0.  0.
    9900012    2    3    3    0    0  0.63693583838E+00  0.33280035566E+02  0.15742106564E+02  0.54367076959E+02  0.39999983543E+02 0.  0.
        -12    1    3    3    0    0 -0.63693583838E+00 -0.33280035566E+02 -0.15742106564E+02  0.36820923041E+02  0.00000000000E+00 0.  1.
         11    1    4    4    0    0 -0.12297756649E+02  0.15888959572E+02  0.18657024778E+02  0.27418578167E+02  0.51100000000E-03 0. -1.
        -11    1    4    4    0    0 -0.33867646446E+00  0.10649873403E+02  0.27756531665E+01  0.11010847198E+02  0.51100000000E-03 0.  1.
         12    1    4    4    0    0  0.13273368952E+02  0.67412025905E+01 -0.56905713802E+01  0.15937651594E+02  0.00000000000E+00 0. -1.
</event>
<event>
 8    1  0.1244838E-006  0.9118800E+02  0.7816164E-02  0.1184000E+00
        -11   -1    0    0    0    0  0.00000000000E+00  0.00000000000E+00  0.45593999997E+02  0.45594000000E+02  0.51100000000E-03 0.  1.
         11   -1    0    0    0    0 -0.00000000000E+00 -0.00000000000E+00 -0.45593999997E+02  0.45594000000E+02  0.51100000000E-03 0. -1.
         23    2    1    2    0    0 -0.35527136788E-14  0.00000000000E+00  0.00000000000E+00  0.91188000000E+02  0.91188000000E+02 0.  0.
    9900012    2    3    3    0    0 -0.26025618284E+02 -0.13271759037E+02  0.22412239576E+02  0.54367070112E+02  0.39999967935E+02 0.  0.
         12    1    3    3    0    0  0.26025618284E+02  0.13271759037E+02 -0.22412239576E+02  0.36820929888E+02  0.00000000000E+00 0. -1.
         11    1    4    4    0    0 -0.10994190936E+02  0.34723483060E+01 -0.48017710347E+01  0.12489453247E+02  0.51100000000E-03 0. -1.
        -11    1    4    4    0    0 -0.54272274258E+01  0.14240114545E+01  0.18889359722E+02  0.19705088610E+02  0.51100000000E-03 0.  1.
         12    1    4    4    0    0 -0.96041999220E+01 -0.18168118798E+02  0.83246508889E+01  0.22172528255E+02  0.00000000000E+00 0. -1.
</event>
<event>
 8    1  0.1244838E-006  0.9118800E+02  0.7816164E-02  0.1184000E+00
        -11   -1    0    0    0    0  0.00000000000E+00  0.00000000000E+00  0.45593999997E+02  0.45594000000E+02  0.51100000000E-03 0.  1.
         11   -1    0    0    0    0 -0.00000000000E+00 -0.00000000000E+00 -0.45593999997E+02  0.45594000000E+02  0.51100000000E-03 0. -1.
         23    2    1    2    0    0 -0.35527136788E-14  0.00000000000E+00  0.00000000000E+00  0.91188000000E+02  0.91188000000E+02 0.  0.
    9900012    2    3    3    0    0  0.20160407805E+02  0.21022923411E+02  0.22524968212E+02  0.54367088216E+02  0.40000009207E+02 0.  0.
         12    1    3    3    0    0 -0.20160407805E+02 -0.21022923411E+02 -0.22524968212E+02  0.36820911784E+02  0.00000000000E+00 0. -1.
         11    1    4    4    0    0  0.17561905415E+01 -0.56875395419E+01 -0.41575175587E+01  0.72606655185E+01  0.51100000000E-03 0. -1.
        -11    1    4    4    0    0 -0.13487428210E-01  0.11056552709E+02 -0.63033956911E-01  0.11056740625E+02  0.51100000000E-03 0.  1.
        -12    1    4    4    0    0  0.18417704692E+02  0.15653910244E+02  0.26745519727E+02  0.36049682073E+02  0.00000000000E+00 0.  1.
</event>
<event>
 8    1  0.1244838E-006  0.9118800E+02  0.7816164E-02  0.1184000E+00
        -11   -1    0    0    0    0  0.00000000000E+00  0.00000000000E+00  0.45593999997E+02  0.45594000000E+02  0.51100000000E-03 0. -1.
         11   -1    0    0    0    0 -0.00000000000E+00 -0.00000000000E+00 -0.45593999997E+02  0.45594000000E+02  0.51100000000E-03 0.  1.
         23    2    1    2    0    0  0.17763568394E-14  0.00000000000E+00  0.00000000000E+00  0.91188000000E+02  0.91188000000E+02 0.  0.
    9900012    2    3    3    0    0 -0.87925714147E+01 -0.28385840826E+02 -0.21741988191E+02  0.54367091239E+02  0.40000016097E+02 0.  0.
         12    1    3    3    0    0  0.87925714147E+01  0.28385840826E+02  0.21741988191E+02  0.36820908761E+02  0.00000000000E+00 0. -1.
         11    1    4    4    0    0 -0.17304266486E+02 -0.20338594853E+02 -0.11645060857E+02  0.29132516573E+02  0.51100000000E-03 0. -1.
        -11    1    4    4    0    0 -0.19061340208E+01  0.23429212217E+01 -0.10078213201E+02  0.10521074486E+02  0.51100000000E-03 0.  1.
         12    1    4    4    0    0  0.10417829092E+02 -0.10390167195E+02 -0.18714133168E-01  0.14713500180E+02  0.00000000000E+00 0. -1.
</event>
<event>
 8    1  0.1244838E-006  0.9118800E+02  0.7816164E-02  0.1184000E+00
        -11   -1    0    0    0    0  0.00000000000E+00  0.00000000000E+00  0.45593999997E+02  0.45594000000E+02  0.51100000000E-03 0.  1.
         11   -1    0    0    0    0 -0.00000000000E+00 -0.00000000000E+00 -0.45593999997E+02  0.45594000000E+02  0.51100000000E-03 0. -1.
         23    2    1    2    0    0  0.00000000000E+00  0.00000000000E+00  0.71054273576E-14  0.91188000000E+02  0.91188000000E+02 0.  0.
    9900012    2    3    3    0    0 -0.13749973541E+02 -0.15322388766E+02  0.30527728709E+02  0.54367087600E+02  0.40000007801E+02 0.  0.
         12    1    3    3    0    0  0.13749973541E+02  0.15322388766E+02 -0.30527728709E+02  0.36820912400E+02  0.00000000000E+00 0. -1.
         11    1    4    4    0    0 -0.43887841458E+01  0.96101487221E+01  0.16120541756E+02  0.19274030494E+02  0.51100000000E-03 0. -1.
        -11    1    4    4    0    0  0.38397798172E+01 -0.28417842473E+01 -0.12910498555E+01  0.49483792037E+01  0.51100000000E-03 0.  1.
        -12    1    4    4    0    0 -0.13200969212E+02 -0.22090753241E+02  0.15698236809E+02  0.30144677901E+02  0.00000000000E+00 0.  1.
</event>
<event>
 8    1  0.1244838E-006  0.9118800E+02  0.7816164E-02  0.1184000E+00
        -11   -1    0    0    0    0  0.00000000000E+00  0.00000000000E+00  0.45593999997E+02  0.45594000000E+02  0.51100000000E-03 0.  1.
         11   -1    0    0    0    0 -0.00000000000E+00 -0.00000000000E+00 -0.45593999997E+02  0.45594000000E+02  0.51100000000E-03 0. -1.
         23    2    1    2    0    0  0.00000000000E+00  0.00000000000E+00  0.00000000000E+00  0.91188000000E+02  0.91188000000E+02 0.  0.
    9900012    2    3    3    0    0 -0.27532193097E+02  0.11227813563E+02  0.21718630751E+02  0.54367022611E+02  0.39999859647E+02 0.  0.
         12    1    3    3    0    0  0.27532193097E+02 -0.11227813563E+02 -0.21718630751E+02  0.36820977389E+02  0.00000000000E+00 0. -1.
         11    1    4    4    0    0 -0.71181202357E+01  0.11823007776E+02  0.11480195590E+01  0.13848071986E+02  0.51100000000E-03 0. -1.
        -11    1    4    4    0    0 -0.12670036441E+02  0.13486871134E+02  0.82094982311E+01  0.20244045492E+02  0.51100000000E-03 0.  1.
         12    1    4    4    0    0 -0.77440364208E+01 -0.14082065348E+02  0.12361112961E+02  0.20274905134E+02  0.00000000000E+00 0. -1.
</event>
<event>
 8    1  0.1244838E-006  0.9118800E+02  0.7816164E-02  0.1184000E+00
        -11   -1    0    0    0    0  0.00000000000E+00  0.00000000000E+00  0.45593999997E+02  0.45594000000E+02  0.51100000000E-03 0.  1.
         11   -1    0    0    0    0 -0.00000000000E+00 -0.00000000000E+00 -0.45593999997E+02  0.45594000000E+02  0.51100000000E-03 0. -1.
         23    2    1    2    0    0  0.17763568394E-14  0.17763568394E-14  0.00000000000E+00  0.91188000000E+02  0.91188000000E+02 0.  0.
    9900012    2    3    3    0    0 -0.15837078419E+02 -0.15307355585E+02 -0.29506800599E+02  0.54367089236E+02  0.40000011532E+02 0.  0.
        -12    1    3    3    0    0  0.15837078419E+02  0.15307355585E+02  0.29506800599E+02  0.36820910764E+02  0.00000000000E+00 0.  1.
         11    1    4    4    0    0 -0.12126860997E+02 -0.68116721794E+01 -0.36625341149E+01  0.14383107867E+02  0.51100000000E-03 0. -1.
        -11    1    4    4    0    0 -0.15616980632E+02  0.36078966380E+00 -0.14377262846E+02  0.21230307121E+02  0.51100000000E-03 0.  1.
         12    1    4    4    0    0  0.11906763210E+02 -0.88564730698E+01 -0.11467003638E+02  0.18753674248E+02  0.00000000000E+00 0. -1.
</event>
<event>
 8    1  0.1244838E-006  0.9118800E+02  0.7816164E-02  0.1184000E+00
        -11   -1    0    0    0    0  0.00000000000E+00  0.00000000000E+00  0.45593999997E+02  0.45594000000E+02  0.51100000000E-03 0.  1.
         11   -1    0    0    0    0 -0.00000000000E+00 -0.00000000000E+00 -0.45593999997E+02  0.45594000000E+02  0.51100000000E-03 0. -1.
         23    2    1    2    0    0  0.00000000000E+00  0.00000000000E+00  0.22204460493E-14  0.91188000000E+02  0.91188000000E+02 0.  0.
    9900012    2    3    3    0    0  0.31750869390E+02  0.18579571760E+02 -0.15682161765E+01  0.54367116038E+02  0.40000072631E+02 0.  0.
        -12    1    3    3    0    0 -0.31750869390E+02 -0.18579571760E+02  0.15682161765E+01  0.36820883962E+02  0.00000000000E+00 0.  1.
         11    1    4    4    0    0  0.14072155803E+02  0.43858246449E-01  0.13259987677E+02  0.19335324304E+02  0.51100000000E-03 0. -1.
        -11    1    4    4    0    0  0.21271349747E+01  0.13282117548E+02 -0.86129351170E+00  0.13478916000E+02  0.51100000000E-03 0.  1.
         12    1    4    4    0    0  0.15551578612E+02  0.52535959650E+01 -0.13966910342E+02  0.21552875734E+02  0.00000000000E+00 0. -1.
</event>
<event>
 8    1  0.1244838E-006  0.9118800E+02  0.7816164E-02  0.1184000E+00
        -11   -1    0    0    0    0  0.00000000000E+00  0.00000000000E+00  0.45593999997E+02  0.45594000000E+02  0.51100000000E-03 0.  1.
         11   -1    0    0    0    0 -0.00000000000E+00 -0.00000000000E+00 -0.45593999997E+02  0.45594000000E+02  0.51100000000E-03 0. -1.
         23    2    1    2    0    0  0.00000000000E+00  0.71054273576E-14 -0.44408920985E-15  0.91188000000E+02  0.91188000000E+02 0.  0.
    9900012    2    3    3    0    0  0.91669746658E+01 -0.35537053598E+02  0.29773561805E+01  0.54367078600E+02  0.39999987284E+02 0.  0.
         12    1    3    3    0    0 -0.91669746658E+01  0.35537053598E+02 -0.29773561805E+01  0.36820921400E+02  0.00000000000E+00 0. -1.
         11    1    4    4    0    0  0.10625300445E+02 -0.24985126893E+02  0.43858251242E+01  0.27502527842E+02  0.51100000000E-03 0.  1.
        -11    1    4    4    0    0  0.60736735202E+01 -0.13268269321E+02 -0.78667090368E+01  0.16577743880E+02  0.51100000000E-03 0. -1.
         12    1    4    4    0    0 -0.75319992990E+01  0.27163426164E+01  0.64582400931E+01  0.10286806878E+02  0.00000000000E+00 0. -1.
</event>
<event>
 8    1  0.1244838E-006  0.9118800E+02  0.7816164E-02  0.1184000E+00
        -11   -1    0    0    0    0  0.00000000000E+00  0.00000000000E+00  0.45593999997E+02  0.45594000000E+02  0.51100000000E-03 0. -1.
         11   -1    0    0    0    0 -0.00000000000E+00 -0.00000000000E+00 -0.45593999997E+02  0.45594000000E+02  0.51100000000E-03 0.  1.
         23    2    1    2    0    0  0.00000000000E+00  0.13322676296E-14  0.00000000000E+00  0.91188000000E+02  0.91188000000E+02 0.  0.
    9900012    2    3    3    0    0 -0.24168901259E+01  0.25650265107E+01  0.36651866893E+02  0.54367081141E+02  0.39999993077E+02 0.  0.
        -12    1    3    3    0    0  0.24168901259E+01 -0.25650265107E+01 -0.36651866893E+02  0.36820918859E+02  0.00000000000E+00 0.  1.
         11    1    4    4    0    0  0.31617856095E+01  0.10616551525E+02  0.20194738898E+02  0.23033356984E+02  0.51100000000E-03 0. -1.
        -11    1    4    4    0    0 -0.15366703740E+01 -0.31274779349E+01  0.22371332946E+02  0.22641091231E+02  0.51100000000E-03 0.  1.
        -12    1    4    4    0    0 -0.40420053614E+01 -0.49240470797E+01 -0.59142049513E+01  0.86926329262E+01  0.00000000000E+00 0.  1.
</event>
<event>
 8    1  0.1244838E-006  0.9118800E+02  0.7816164E-02  0.1184000E+00
        -11   -1    0    0    0    0  0.00000000000E+00  0.00000000000E+00  0.45593999997E+02  0.45594000000E+02  0.51100000000E-03 0. -1.
         11   -1    0    0    0    0 -0.00000000000E+00 -0.00000000000E+00 -0.45593999997E+02  0.45594000000E+02  0.51100000000E-03 0.  1.
         23    2    1    2    0    0  0.00000000000E+00  0.00000000000E+00 -0.88817841970E-15  0.91188000000E+02  0.91188000000E+02 0.  0.
    9900012    2    3    3    0    0 -0.35121856162E+02  0.82409430979E+01 -0.73703399556E+01  0.54367084280E+02  0.40000000233E+02 0.  0.
         12    1    3    3    0    0  0.35121856162E+02 -0.82409430979E+01  0.73703399556E+01  0.36820915720E+02  0.00000000000E+00 0. -1.
         11    1    4    4    0    0 -0.18514218881E+02  0.61587139398E+01  0.10662884012E+02  0.22235178297E+02  0.51100000000E-03 0. -1.
        -11    1    4    4    0    0 -0.21541570145E+02  0.21586812103E+01 -0.15031159495E+02  0.26355927320E+02  0.51100000000E-03 0.  1.
         12    1    4    4    0    0  0.49339328640E+01 -0.76452052113E-01 -0.30020644725E+01  0.57759786634E+01  0.00000000000E+00 0. -1.
</event>
<event>
 8    1  0.1244838E-006  0.9118800E+02  0.7816164E-02  0.1184000E+00
        -11   -1    0    0    0    0  0.00000000000E+00  0.00000000000E+00  0.45593999997E+02  0.45594000000E+02  0.51100000000E-03 0. -1.
         11   -1    0    0    0    0 -0.00000000000E+00 -0.00000000000E+00 -0.45593999997E+02  0.45594000000E+02  0.51100000000E-03 0.  1.
         23    2    1    2    0    0 -0.71054273576E-14 -0.35527136788E-14  0.35527136788E-14  0.91188000000E+02  0.91188000000E+02 0.  0.
    9900012    2    3    3    0    0  0.30107860021E+02  0.20177954197E+02 -0.64918722616E+01  0.54367116305E+02  0.40000073240E+02 0.  0.
        -12    1    3    3    0    0 -0.30107860021E+02 -0.20177954197E+02  0.64918722616E+01  0.36820883695E+02  0.00000000000E+00 0.  1.
         11    1    4    4    0    0 -0.25807128354E+01  0.81112949840E+01  0.81553767334E+01  0.11788271925E+02  0.51100000000E-03 0. -1.
        -11    1    4    4    0    0  0.29594553414E+01 -0.51831553106E+00  0.42248298154E+01  0.51842274389E+01  0.51100000000E-03 0.  1.
        -12    1    4    4    0    0  0.29729117515E+02  0.12584974744E+02 -0.18872078810E+02  0.37394616941E+02  0.00000000000E+00 0.  1.
</event>
<event>
 8    1  0.1244838E-006  0.9118800E+02  0.7816164E-02  0.1184000E+00
        -11   -1    0    0    0    0  0.00000000000E+00  0.00000000000E+00  0.45593999997E+02  0.45594000000E+02  0.51100000000E-03 0.  1.
         11   -1    0    0    0    0 -0.00000000000E+00 -0.00000000000E+00 -0.45593999997E+02  0.45594000000E+02  0.51100000000E-03 0. -1.
         23    2    1    2    0    0  0.00000000000E+00  0.17763568394E-14  0.13322676296E-14  0.91188000000E+02  0.91188000000E+02 0.  0.
    9900012    2    3    3    0    0  0.36501419242E+02 -0.33335480588E+01 -0.35091087885E+01  0.54367082116E+02  0.39999995300E+02 0.  0.
         12    1    3    3    0    0 -0.36501419242E+02  0.33335480588E+01  0.35091087885E+01  0.36820917884E+02  0.00000000000E+00 0. -1.
         11    1    4    4    0    0  0.48520839644E+01 -0.10462965111E+02 -0.40831796474E+01  0.12234733916E+02  0.51100000000E-03 0. -1.
        -11    1    4    4    0    0  0.16006465709E+02 -0.94497566896E+01  0.41876714802E+01  0.19053646336E+02  0.51100000000E-03 0.  1.
        -12    1    4    4    0    0  0.15642869568E+02  0.16579173742E+02 -0.36136006213E+01  0.23078701864E+02  0.00000000000E+00 0.  1.
</event>
<event>
 8    1  0.1244838E-006  0.9118800E+02  0.7816164E-02  0.1184000E+00
        -11   -1    0    0    0    0  0.00000000000E+00  0.00000000000E+00  0.45593999997E+02  0.45594000000E+02  0.51100000000E-03 0.  1.
         11   -1    0    0    0    0 -0.00000000000E+00 -0.00000000000E+00 -0.45593999997E+02  0.45594000000E+02  0.51100000000E-03 0. -1.
         23    2    1    2    0    0  0.00000000000E+00  0.35527136788E-14  0.11102230246E-15  0.91188000000E+02  0.91188000000E+02 0.  0.
    9900012    2    3    3    0    0 -0.18472890407E+02  0.31850982501E+02  0.21255403101E+00  0.54367109931E+02  0.40000058709E+02 0.  0.
         12    1    3    3    0    0  0.18472890407E+02 -0.31850982501E+02 -0.21255403101E+00  0.36820890069E+02  0.00000000000E+00 0. -1.
         11    1    4    4    0    0 -0.16499563223E+01 -0.58972021569E+01 -0.11238825234E+01  0.62259506369E+01  0.51100000000E-03 0. -1.
        -11    1    4    4    0    0  0.46653246225E+01  0.93183146594E+01  0.62736652255E+01  0.12163680263E+02  0.51100000000E-03 0.  1.
         12    1    4    4    0    0 -0.21488258707E+02  0.28429869999E+02 -0.49372286711E+01  0.35977479030E+02  0.00000000000E+00 0. -1.
</event>
<event>
 8    1  0.1244838E-006  0.9118800E+02  0.7816164E-02  0.1184000E+00
        -11   -1    0    0    0    0  0.00000000000E+00  0.00000000000E+00  0.45593999997E+02  0.45594000000E+02  0.51100000000E-03 0.  1.
         11   -1    0    0    0    0 -0.00000000000E+00 -0.00000000000E+00 -0.45593999997E+02  0.45594000000E+02  0.51100000000E-03 0. -1.
         23    2    1    2    0    0  0.00000000000E+00  0.00000000000E+00  0.00000000000E+00  0.91188000000E+02  0.91188000000E+02 0.  0.
    9900012    2    3    3    0    0 -0.31368167270E+02 -0.18336031087E+02 -0.59673644362E+01  0.54367063127E+02  0.39999952011E+02 0.  0.
        -12    1    3    3    0    0  0.31368167270E+02  0.18336031087E+02  0.59673644362E+01  0.36820936873E+02  0.00000000000E+00 0.  1.
         11    1    4    4    0    0 -0.88686065828E+01  0.90400641628E+01  0.56168955011E+00  0.12676373227E+02  0.51100000000E-03 0. -1.
        -11    1    4    4    0    0 -0.23980364041E+02 -0.17510765427E+02  0.13543335716E+00  0.29693485949E+02  0.51100000000E-03 0.  1.
         12    1    4    4    0    0  0.14808033537E+01 -0.98653298225E+01 -0.66644873435E+01  0.11997203951E+02  0.00000000000E+00 0. -1.
</event>
<event>
 8    1  0.1244838E-006  0.9118800E+02  0.7816164E-02  0.1184000E+00
        -11   -1    0    0    0    0  0.00000000000E+00  0.00000000000E+00  0.45593999997E+02  0.45594000000E+02  0.51100000000E-03 0.  1.
         11   -1    0    0    0    0 -0.00000000000E+00 -0.00000000000E+00 -0.45593999997E+02  0.45594000000E+02  0.51100000000E-03 0. -1.
         23    2    1    2    0    0  0.35527136788E-14  0.35527136788E-14 -0.88817841970E-15  0.91188000000E+02  0.91188000000E+02 0.  0.
    9900012    2    3    3    0    0 -0.23547341687E+02 -0.27829438915E+02 -0.51792794831E+01  0.54367083297E+02  0.39999997993E+02 0.  0.
        -12    1    3    3    0    0  0.23547341687E+02  0.27829438915E+02  0.51792794831E+01  0.36820916703E+02  0.00000000000E+00 0.  1.
         11    1    4    4    0    0  0.32023994609E+01 -0.51703922425E+01 -0.27583019483E+01  0.66780647007E+01  0.51100000000E-03 0. -1.
        -11    1    4    4    0    0 -0.17947187050E+02 -0.29438808039E+02 -0.77926198191E+01  0.35347841033E+02  0.51100000000E-03 0.  1.
        -12    1    4    4    0    0 -0.88025540978E+01  0.67797613662E+01  0.53716422843E+01  0.12341177564E+02  0.00000000000E+00 0.  1.
</event>
<event>
 8    1  0.1244838E-006  0.9118800E+02  0.7816164E-02  0.1184000E+00
        -11   -1    0    0    0    0  0.00000000000E+00  0.00000000000E+00  0.45593999997E+02  0.45594000000E+02  0.51100000000E-03 0. -1.
         11   -1    0    0    0    0 -0.00000000000E+00 -0.00000000000E+00 -0.45593999997E+02  0.45594000000E+02  0.51100000000E-03 0.  1.
         23    2    1    2    0    0  0.00000000000E+00 -0.35527136788E-14  0.71054273576E-14  0.91188000000E+02  0.91188000000E+02 0.  0.
    9900012    2    3    3    0    0  0.94606150141E+01  0.30489190958E+02 -0.18348953283E+02  0.54367107991E+02  0.40000054288E+02 0.  0.
         12    1    3    3    0    0 -0.94606150141E+01 -0.30489190958E+02  0.18348953283E+02  0.36820892009E+02  0.00000000000E+00 0. -1.
         11    1    4    4    0    0  0.12257061313E+02  0.10584855371E+02  0.68729478958E+01  0.17592956781E+02  0.51100000000E-03 0. -1.
        -11    1    4    4    0    0 -0.10846725615E+01  0.90747169782E+01  0.14365029564E+00  0.91404397306E+01  0.51100000000E-03 0.  1.
         12    1    4    4    0    0 -0.17117737376E+01  0.10829618609E+02 -0.25365551474E+02  0.27633711480E+02  0.00000000000E+00 0. -1.
</event>
<event>
 8    1  0.1244838E-006  0.9118800E+02  0.7816164E-02  0.1184000E+00
        -11   -1    0    0    0    0  0.00000000000E+00  0.00000000000E+00  0.45593999997E+02  0.45594000000E+02  0.51100000000E-03 0.  1.
         11   -1    0    0    0    0 -0.00000000000E+00 -0.00000000000E+00 -0.45593999997E+02  0.45594000000E+02  0.51100000000E-03 0. -1.
         23    2    1    2    0    0  0.00000000000E+00 -0.17763568394E-14  0.00000000000E+00  0.91188000000E+02  0.91188000000E+02 0.  0.
    9900012    2    3    3    0    0 -0.33137345534E+02  0.10040621768E+02 -0.12525346580E+02  0.54367054039E+02  0.39999931292E+02 0.  0.
        -12    1    3    3    0    0  0.33137345534E+02 -0.10040621768E+02  0.12525346580E+02  0.36820945961E+02  0.00000000000E+00 0.  1.
         11    1    4    4    0    0 -0.10254320989E+02 -0.50933960482E+01 -0.14717313287E+01  0.11543819802E+02  0.51100000000E-03 0. -1.
        -11    1    4    4    0    0  0.63201504413E+01  0.43455378613E+01  0.35314329936E+01  0.84438747121E+01  0.51100000000E-03 0.  1.
        -12    1    4    4    0    0 -0.29203174987E+02  0.10788479955E+02 -0.14585048245E+02  0.34379359525E+02  0.00000000000E+00 0.  1.
</event>
<event>
 8    1  0.1244838E-006  0.9118800E+02  0.7816164E-02  0.1184000E+00
        -11   -1    0    0    0    0  0.00000000000E+00  0.00000000000E+00  0.45593999997E+02  0.45594000000E+02  0.51100000000E-03 0. -1.
         11   -1    0    0    0    0 -0.00000000000E+00 -0.00000000000E+00 -0.45593999997E+02  0.45594000000E+02  0.51100000000E-03 0.  1.
         23    2    1    2    0    0  0.00000000000E+00 -0.17763568394E-14 -0.35527136788E-14  0.91188000000E+02  0.91188000000E+02 0.  0.
    9900012    2    3    3    0    0 -0.23338849352E+02 -0.10188861702E+02 -0.26594375195E+02  0.54367142000E+02  0.40000131817E+02 0.  0.
         12    1    3    3    0    0  0.23338849352E+02  0.10188861702E+02  0.26594375195E+02  0.36820858000E+02  0.00000000000E+00 0. -1.
         11    1    4    4    0    0 -0.28146071173E+01 -0.41308350889E+01 -0.16726064874E+02  0.17457005992E+02  0.51100000000E-03 0. -1.
        -11    1    4    4    0    0 -0.15013722052E+02  0.54515548332E+01 -0.16126072532E+02  0.22697610348E+02  0.51100000000E-03 0.  1.
        -12    1    4    4    0    0 -0.55105201826E+01 -0.11509581447E+02  0.62577622108E+01  0.14212525660E+02  0.00000000000E+00 0.  1.
</event>
<event>
 8    1  0.1244838E-006  0.9118800E+02  0.7816164E-02  0.1184000E+00
        -11   -1    0    0    0    0  0.00000000000E+00  0.00000000000E+00  0.45593999997E+02  0.45594000000E+02  0.51100000000E-03 0. -1.
         11   -1    0    0    0    0 -0.00000000000E+00 -0.00000000000E+00 -0.45593999997E+02  0.45594000000E+02  0.51100000000E-03 0.  1.
         23    2    1    2    0    0  0.00000000000E+00  0.17763568394E-14  0.00000000000E+00  0.91188000000E+02  0.91188000000E+02 0.  0.
    9900012    2    3    3    0    0 -0.26397307043E+02  0.93042335879E+01 -0.23924714465E+02  0.54367101803E+02  0.40000040181E+02 0.  0.
         12    1    3    3    0    0  0.26397307043E+02 -0.93042335879E+01  0.23924714465E+02  0.36820898197E+02  0.00000000000E+00 0. -1.
         11    1    4    4    0    0 -0.89832724692E+01 -0.25786345137E+01 -0.19853375021E+02  0.21943223104E+02  0.51100000000E-03 0. -1.
        -11    1    4    4    0    0  0.43204927170E+01  0.68321303008E+00 -0.65197995400E+01  0.78511924995E+01  0.51100000000E-03 0.  1.
         12    1    4    4    0    0 -0.21734527290E+02  0.11199655071E+02  0.24484600953E+01  0.24572686200E+02  0.00000000000E+00 0. -1.
</event>
<event>
 8    1  0.1244838E-006  0.9118800E+02  0.7816164E-02  0.1184000E+00
        -11   -1    0    0    0    0  0.00000000000E+00  0.00000000000E+00  0.45593999997E+02  0.45594000000E+02  0.51100000000E-03 0. -1.
         11   -1    0    0    0    0 -0.00000000000E+00 -0.00000000000E+00 -0.45593999997E+02  0.45594000000E+02  0.51100000000E-03 0.  1.
         23    2    1    2    0    0  0.00000000000E+00  0.00000000000E+00 -0.35527136788E-14  0.91188000000E+02  0.91188000000E+02 0.  0.
    9900012    2    3    3    0    0 -0.59281386979E+01  0.27111220549E+02  0.24199557774E+02  0.54367086044E+02  0.40000004255E+02 0.  0.
        -12    1    3    3    0    0  0.59281386979E+01 -0.27111220549E+02 -0.24199557774E+02  0.36820913956E+02  0.00000000000E+00 0.  1.
         11    1    4    4    0    0 -0.90457201576E+01 -0.40759221517E+01 -0.98835940497E+00  0.99707095601E+01  0.51100000000E-03 0.  1.
        -11    1    4    4    0    0  0.83508059226E+01  0.15411372868E+02  0.49620789679E+01  0.18217261078E+02  0.51100000000E-03 0. -1.
         12    1    4    4    0    0 -0.52332244629E+01  0.15775769833E+02  0.20225838211E+02  0.26179115406E+02  0.00000000000E+00 0. -1.
</event>
<event>
 8    1  0.1244838E-006  0.9118800E+02  0.7816164E-02  0.1184000E+00
        -11   -1    0    0    0    0  0.00000000000E+00  0.00000000000E+00  0.45593999997E+02  0.45594000000E+02  0.51100000000E-03 0. -1.
         11   -1    0    0    0    0 -0.00000000000E+00 -0.00000000000E+00 -0.45593999997E+02  0.45594000000E+02  0.51100000000E-03 0.  1.
         23    2    1    2    0    0  0.00000000000E+00  0.00000000000E+00  0.00000000000E+00  0.91188000000E+02  0.91188000000E+02 0.  0.
    9900012    2    3    3    0    0  0.23520386234E+02  0.12872593561E+02 -0.25236255916E+02  0.54367070541E+02  0.39999968913E+02 0.  0.
         12    1    3    3    0    0 -0.23520386234E+02 -0.12872593561E+02  0.25236255916E+02  0.36820929459E+02  0.00000000000E+00 0. -1.
         11    1    4    4    0    0 -0.97184192151E-01  0.18620384304E+01  0.79722339521E+01  0.81873772560E+01  0.51100000000E-03 0. -1.
        -11    1    4    4    0    0  0.27790489828E+01  0.39095373901E+01 -0.19866111976E+02  0.20436976321E+02  0.51100000000E-03 0.  1.
        -12    1    4    4    0    0  0.20838521443E+02  0.71010177405E+01 -0.13342377892E+02  0.25742716964E+02  0.00000000000E+00 0.  1.
</event>
<event>
 8    1  0.1244838E-006  0.9118800E+02  0.7816164E-02  0.1184000E+00
        -11   -1    0    0    0    0  0.00000000000E+00  0.00000000000E+00  0.45593999997E+02  0.45594000000E+02  0.51100000000E-03 0.  1.
         11   -1    0    0    0    0 -0.00000000000E+00 -0.00000000000E+00 -0.45593999997E+02  0.45594000000E+02  0.51100000000E-03 0. -1.
         23    2    1    2    0    0 -0.13322676296E-14  0.00000000000E+00 -0.88817841970E-15  0.91188000000E+02  0.91188000000E+02 0.  0.
    9900012    2    3    3    0    0  0.35749552427E+01  0.36604709035E+02  0.17594857268E+01  0.54367070917E+02  0.39999969768E+02 0.  0.
        -12    1    3    3    0    0 -0.35749552427E+01 -0.36604709035E+02 -0.17594857268E+01  0.36820929083E+02  0.00000000000E+00 0.  1.
         11    1    4    4    0    0 -0.98607982363E+01  0.15519828683E+02  0.55916500947E+01  0.19218922322E+02  0.51100000000E-03 0. -1.
        -11    1    4    4    0    0  0.38698567966E+01  0.23735635784E+02 -0.64176015779E+01  0.24890596778E+02  0.51100000000E-03 0.  1.
        -12    1    4    4    0    0  0.95658966824E+01 -0.26507554311E+01  0.25854372100E+01  0.10257551816E+02  0.00000000000E+00 0.  1.
</event>
<event>
 8    1  0.1244838E-006  0.9118800E+02  0.7816164E-02  0.1184000E+00
        -11   -1    0    0    0    0  0.00000000000E+00  0.00000000000E+00  0.45593999997E+02  0.45594000000E+02  0.51100000000E-03 0.  1.
         11   -1    0    0    0    0 -0.00000000000E+00 -0.00000000000E+00 -0.45593999997E+02  0.45594000000E+02  0.51100000000E-03 0. -1.
         23    2    1    2    0    0  0.35527136788E-14  0.00000000000E+00  0.00000000000E+00  0.91188000000E+02  0.91188000000E+02 0.  0.
    9900012    2    3    3    0    0 -0.16471027051E+02  0.84117171191E+01  0.31839086983E+02  0.54367093209E+02  0.40000020588E+02 0.  0.
         12    1    3    3    0    0  0.16471027051E+02 -0.84117171191E+01 -0.31839086983E+02  0.36820906791E+02  0.00000000000E+00 0. -1.
         11    1    4    4    0    0 -0.25260336803E+02  0.43965122281E+01  0.15833076147E+02  0.30134701520E+02  0.51100000000E-03 0. -1.
        -11    1    4    4    0    0 -0.35175358578E-01  0.82410662458E+01  0.56909706211E+01  0.10015166351E+02  0.51100000000E-03 0.  1.
         12    1    4    4    0    0  0.88244851105E+01 -0.42258613548E+01  0.10315040215E+02  0.14217225338E+02  0.00000000000E+00 0. -1.
</event>
<event>
 8    1  0.1244838E-006  0.9118800E+02  0.7816164E-02  0.1184000E+00
        -11   -1    0    0    0    0  0.00000000000E+00  0.00000000000E+00  0.45593999997E+02  0.45594000000E+02  0.51100000000E-03 0.  1.
         11   -1    0    0    0    0 -0.00000000000E+00 -0.00000000000E+00 -0.45593999997E+02  0.45594000000E+02  0.51100000000E-03 0. -1.
         23    2    1    2    0    0  0.00000000000E+00  0.00000000000E+00  0.00000000000E+00  0.91188000000E+02  0.91188000000E+02 0.  0.
    9900012    2    3    3    0    0  0.17257454528E+02  0.26256190135E+02  0.19198250857E+02  0.54367080767E+02  0.39999992225E+02 0.  0.
         12    1    3    3    0    0 -0.17257454528E+02 -0.26256190135E+02 -0.19198250857E+02  0.36820919233E+02  0.00000000000E+00 0. -1.
         11    1    4    4    0    0 -0.12684496869E+01  0.17797216440E+02  0.65890558724E+01  0.19020134994E+02  0.51100000000E-03 0. -1.
        -11    1    4    4    0    0  0.14350608667E+00 -0.26935216994E+01  0.13559329211E+02  0.13825015806E+02  0.51100000000E-03 0.  1.
        -12    1    4    4    0    0  0.18382398128E+02  0.11152495394E+02 -0.95013422648E+00  0.21521929967E+02  0.00000000000E+00 0.  1.
</event>
<event>
 8    1  0.1244838E-006  0.9118800E+02  0.7816164E-02  0.1184000E+00
        -11   -1    0    0    0    0  0.00000000000E+00  0.00000000000E+00  0.45593999997E+02  0.45594000000E+02  0.51100000000E-03 0.  1.
         11   -1    0    0    0    0 -0.00000000000E+00 -0.00000000000E+00 -0.45593999997E+02  0.45594000000E+02  0.51100000000E-03 0. -1.
         23    2    1    2    0    0  0.00000000000E+00  0.00000000000E+00  0.00000000000E+00  0.91188000000E+02  0.91188000000E+02 0.  0.
    9900012    2    3    3    0    0  0.48741117349E+01 -0.24947415099E+02  0.26639253113E+02  0.54367078071E+02  0.39999986077E+02 0.  0.
         12    1    3    3    0    0 -0.48741117349E+01  0.24947415099E+02 -0.26639253113E+02  0.36820921929E+02  0.00000000000E+00 0. -1.
         11    1    4    4    0    0 -0.80612673838E+01 -0.24204091864E+00  0.32664087201E+01  0.87012666794E+01  0.51100000000E-03 0.  1.
        -11    1    4    4    0    0 -0.28450691392E+01 -0.21523051236E+02  0.72671525031E+01  0.22894271307E+02  0.51100000000E-03 0. -1.
        -12    1    4    4    0    0  0.15780448258E+02 -0.31823229438E+01  0.16105691890E+02  0.22771540084E+02  0.00000000000E+00 0.  1.
</event>
<event>
 8    1  0.1244838E-006  0.9118800E+02  0.7816164E-02  0.1184000E+00
        -11   -1    0    0    0    0  0.00000000000E+00  0.00000000000E+00  0.45593999997E+02  0.45594000000E+02  0.51100000000E-03 0.  1.
         11   -1    0    0    0    0 -0.00000000000E+00 -0.00000000000E+00 -0.45593999997E+02  0.45594000000E+02  0.51100000000E-03 0. -1.
         23    2    1    2    0    0 -0.88817841970E-15  0.88817841970E-15  0.00000000000E+00  0.91188000000E+02  0.91188000000E+02 0.  0.
    9900012    2    3    3    0    0  0.19393062908E+01  0.61467031017E+01  0.36252419220E+02  0.54367071614E+02  0.39999971358E+02 0.  0.
         12    1    3    3    0    0 -0.19393062908E+01 -0.61467031017E+01 -0.36252419220E+02  0.36820928386E+02  0.00000000000E+00 0. -1.
         11    1    4    4    0    0  0.71464724949E+00  0.15400258774E+02  0.57693078380E+01  0.16460972152E+02  0.51100000000E-03 0. -1.
        -11    1    4    4    0    0 -0.70948212321E+01 -0.24936461384E+01  0.24756443565E+01  0.79172959159E+01  0.51100000000E-03 0.  1.
        -12    1    4    4    0    0  0.83194802734E+01 -0.67599095337E+01  0.28007467026E+02  0.29988803546E+02  0.00000000000E+00 0.  1.
</event>
<event>
 8    1  0.1244838E-006  0.9118800E+02  0.7816164E-02  0.1184000E+00
        -11   -1    0    0    0    0  0.00000000000E+00  0.00000000000E+00  0.45593999997E+02  0.45594000000E+02  0.51100000000E-03 0.  1.
         11   -1    0    0    0    0 -0.00000000000E+00 -0.00000000000E+00 -0.45593999997E+02  0.45594000000E+02  0.51100000000E-03 0. -1.
         23    2    1    2    0    0  0.00000000000E+00  0.00000000000E+00  0.00000000000E+00  0.91188000000E+02  0.91188000000E+02 0.  0.
    9900012    2    3    3    0    0  0.29897044357E+02 -0.19946325815E+02  0.80056021665E+01  0.54367097772E+02  0.40000030991E+02 0.  0.
        -12    1    3    3    0    0 -0.29897044357E+02  0.19946325815E+02 -0.80056021665E+01  0.36820902228E+02  0.00000000000E+00 0.  1.
         11    1    4    4    0    0  0.76728971362E+01 -0.52432077469E+01 -0.85222884963E+01  0.12609281479E+02  0.51100000000E-03 0. -1.
        -11    1    4    4    0    0  0.13866963644E+02  0.52809759356E+01  0.56333250279E+00  0.14849199685E+02  0.51100000000E-03 0.  1.
         12    1    4    4    0    0  0.83571835773E+01 -0.19984094004E+02  0.15964558160E+02  0.26908616608E+02  0.00000000000E+00 0. -1.
</event>
<event>
 8    1  0.1244838E-006  0.9118800E+02  0.7816164E-02  0.1184000E+00
        -11   -1    0    0    0    0  0.00000000000E+00  0.00000000000E+00  0.45593999997E+02  0.45594000000E+02  0.51100000000E-03 0. -1.
         11   -1    0    0    0    0 -0.00000000000E+00 -0.00000000000E+00 -0.45593999997E+02  0.45594000000E+02  0.51100000000E-03 0.  1.
         23    2    1    2    0    0  0.88817841970E-15 -0.35527136788E-14  0.00000000000E+00  0.91188000000E+02  0.91188000000E+02 0.  0.
    9900012    2    3    3    0    0  0.40687355723E+01 -0.30743145964E+02  0.19851537166E+02  0.54367093429E+02  0.40000021089E+02 0.  0.
         12    1    3    3    0    0 -0.40687355723E+01  0.30743145964E+02 -0.19851537166E+02  0.36820906571E+02  0.00000000000E+00 0. -1.
         11    1    4    4    0    0  0.75393302416E+00 -0.31852486511E+02  0.25951195746E+01  0.31966919742E+02  0.51100000000E-03 0.  1.
        -11    1    4    4    0    0 -0.27730919439E+01 -0.43166529856E+01  0.10945956304E+02  0.12088734077E+02  0.51100000000E-03 0. -1.
        -12    1    4    4    0    0  0.60878944920E+01  0.54259935325E+01  0.63104612872E+01  0.10311439609E+02  0.00000000000E+00 0.  1.
</event>
<event>
 8    1  0.1244838E-006  0.9118800E+02  0.7816164E-02  0.1184000E+00
        -11   -1    0    0    0    0  0.00000000000E+00  0.00000000000E+00  0.45593999997E+02  0.45594000000E+02  0.51100000000E-03 0.  1.
         11   -1    0    0    0    0 -0.00000000000E+00 -0.00000000000E+00 -0.45593999997E+02  0.45594000000E+02  0.51100000000E-03 0. -1.
         23    2    1    2    0    0  0.88817841970E-15 -0.71054273576E-14  0.00000000000E+00  0.91188000000E+02  0.91188000000E+02 0.  0.
    9900012    2    3    3    0    0  0.76223452811E+01 -0.32454995973E+02 -0.15631741762E+02  0.54367105637E+02  0.40000048920E+02 0.  0.
        -12    1    3    3    0    0 -0.76223452811E+01  0.32454995973E+02  0.15631741762E+02  0.36820894363E+02  0.00000000000E+00 0.  1.
         11    1    4    4    0    0  0.45634951424E+01 -0.15631913462E+02 -0.25057624550E+02  0.29884222505E+02  0.51100000000E-03 0. -1.
        -11    1    4    4    0    0  0.72654851028E+01 -0.10657697422E+02  0.10885150928E+02  0.16877804925E+02  0.51100000000E-03 0.  1.
        -12    1    4    4    0    0 -0.42066349640E+01 -0.61653850886E+01 -0.14592681405E+01  0.76050782058E+01  0.00000000000E+00 0.  1.
</event>
<event>
 8    1  0.1244838E-006  0.9118800E+02  0.7816164E-02  0.1184000E+00
        -11   -1    0    0    0    0  0.00000000000E+00  0.00000000000E+00  0.45593999997E+02  0.45594000000E+02  0.51100000000E-03 0.  1.
         11   -1    0    0    0    0 -0.00000000000E+00 -0.00000000000E+00 -0.45593999997E+02  0.45594000000E+02  0.51100000000E-03 0. -1.
         23    2    1    2    0    0  0.00000000000E+00  0.00000000000E+00  0.00000000000E+00  0.91188000000E+02  0.91188000000E+02 0.  0.
    9900012    2    3    3    0    0  0.40106614871E+01  0.11588619592E+02  0.34718895791E+02  0.54367038109E+02  0.39999894978E+02 0.  0.
         12    1    3    3    0    0 -0.40106614871E+01 -0.11588619592E+02 -0.34718895791E+02  0.36820961891E+02  0.00000000000E+00 0. -1.
         11    1    4    4    0    0 -0.14158049762E+02 -0.24153232512E+01  0.10784575656E+02  0.17960824920E+02  0.51100000000E-03 0. -1.
        -11    1    4    4    0    0 -0.15786918612E+01  0.38520324516E+01  0.81879037093E+01  0.91854335452E+01  0.51100000000E-03 0.  1.
         12    1    4    4    0    0  0.19747403110E+02  0.10151910391E+02  0.15746416425E+02  0.27220779644E+02  0.00000000000E+00 0. -1.
</event>
<event>
 8    1  0.1244838E-006  0.9118800E+02  0.7816164E-02  0.1184000E+00
        -11   -1    0    0    0    0  0.00000000000E+00  0.00000000000E+00  0.45593999997E+02  0.45594000000E+02  0.51100000000E-03 0.  1.
         11   -1    0    0    0    0 -0.00000000000E+00 -0.00000000000E+00 -0.45593999997E+02  0.45594000000E+02  0.51100000000E-03 0. -1.
         23    2    1    2    0    0  0.00000000000E+00  0.44408920985E-15  0.00000000000E+00  0.91188000000E+02  0.91188000000E+02 0.  0.
    9900012    2    3    3    0    0 -0.21934724719E+02  0.32391587803E+01 -0.29396521566E+02  0.54367085042E+02  0.40000001971E+02 0.  0.
        -12    1    3    3    0    0  0.21934724719E+02 -0.32391587803E+01  0.29396521566E+02  0.36820914958E+02  0.00000000000E+00 0.  1.
         11    1    4    4    0    0 -0.16827007477E+02  0.60283731486E+01 -0.16462050396E+02  0.24299970513E+02  0.51100000000E-03 0. -1.
        -11    1    4    4    0    0  0.26800315468E+01 -0.12931738413E+02 -0.10889682404E+02  0.17117172973E+02  0.51100000000E-03 0.  1.
        -12    1    4    4    0    0 -0.77877487897E+01  0.10142524045E+02 -0.20447887667E+01  0.12949941556E+02  0.00000000000E+00 0.  1.
</event>
<event>
 8    1  0.1244838E-006  0.9118800E+02  0.7816164E-02  0.1184000E+00
        -11   -1    0    0    0    0  0.00000000000E+00  0.00000000000E+00  0.45593999997E+02  0.45594000000E+02  0.51100000000E-03 0.  1.
         11   -1    0    0    0    0 -0.00000000000E+00 -0.00000000000E+00 -0.45593999997E+02  0.45594000000E+02  0.51100000000E-03 0. -1.
         23    2    1    2    0    0  0.00000000000E+00  0.35527136788E-14 -0.17763568394E-14  0.91188000000E+02  0.91188000000E+02 0.  0.
    9900012    2    3    3    0    0 -0.15398920171E+02 -0.29513948082E+02  0.15734621599E+02  0.54367106601E+02  0.40000051118E+02 0.  0.
         12    1    3    3    0    0  0.15398920171E+02  0.29513948082E+02 -0.15734621599E+02  0.36820893399E+02  0.00000000000E+00 0. -1.
         11    1    4    4    0    0  0.19808369678E+01 -0.24928000962E+00 -0.11184120502E+01  0.22883840131E+01  0.51100000000E-03 0. -1.
        -11    1    4    4    0    0 -0.22652705930E+00 -0.31534349940E+02  0.75201019909E+01  0.32419415091E+02  0.51100000000E-03 0.  1.
        -12    1    4    4    0    0 -0.17153230079E+02  0.22696818669E+01  0.93329316583E+01  0.19659307497E+02  0.00000000000E+00 0.  1.
</event>
<event>
 8    1  0.1244838E-006  0.9118800E+02  0.7816164E-02  0.1184000E+00
        -11   -1    0    0    0    0  0.00000000000E+00  0.00000000000E+00  0.45593999997E+02  0.45594000000E+02  0.51100000000E-03 0. -1.
         11   -1    0    0    0    0 -0.00000000000E+00 -0.00000000000E+00 -0.45593999997E+02  0.45594000000E+02  0.51100000000E-03 0.  1.
         23    2    1    2    0    0 -0.22204460493E-15  0.00000000000E+00  0.00000000000E+00  0.91188000000E+02  0.91188000000E+02 0.  0.
    9900012    2    3    3    0    0 -0.17971397106E+01 -0.59484156113E+01 -0.36292772210E+02  0.54367100037E+02  0.40000036154E+02 0.  0.
         12    1    3    3    0    0  0.17971397106E+01  0.59484156113E+01  0.36292772210E+02  0.36820899963E+02  0.00000000000E+00 0. -1.
         11    1    4    4    0    0 -0.10946782328E+02 -0.88472792225E+00  0.81044231355E+00  0.11012338709E+02  0.51100000000E-03 0. -1.
        -11    1    4    4    0    0 -0.21017190026E+00 -0.36549391344E+01 -0.32719490850E+02  0.32923666777E+02  0.51100000000E-03 0.  1.
        -12    1    4    4    0    0  0.93598145175E+01 -0.14087485547E+01 -0.43837236733E+01  0.10431094551E+02  0.00000000000E+00 0.  1.
</event>
<event>
 8    1  0.1244838E-006  0.9118800E+02  0.7816164E-02  0.1184000E+00
        -11   -1    0    0    0    0  0.00000000000E+00  0.00000000000E+00  0.45593999997E+02  0.45594000000E+02  0.51100000000E-03 0. -1.
         11   -1    0    0    0    0 -0.00000000000E+00 -0.00000000000E+00 -0.45593999997E+02  0.45594000000E+02  0.51100000000E-03 0.  1.
         23    2    1    2    0    0  0.35527136788E-14 -0.14432899320E-14  0.35527136788E-14  0.91188000000E+02  0.91188000000E+02 0.  0.
    9900012    2    3    3    0    0 -0.25312916208E+02  0.99311840683E+00 -0.26721713718E+02  0.54367082098E+02  0.39999995258E+02 0.  0.
         12    1    3    3    0    0  0.25312916208E+02 -0.99311840683E+00  0.26721713718E+02  0.36820917902E+02  0.00000000000E+00 0. -1.
         11    1    4    4    0    0 -0.18485014671E+02 -0.22657786343E+01  0.42979515793E+01  0.19112872841E+02  0.51100000000E-03 0. -1.
        -11    1    4    4    0    0 -0.70573937212E+01 -0.47641356774E+01 -0.13168341002E+02  0.15681485896E+02  0.51100000000E-03 0.  1.
        -12    1    4    4    0    0  0.22949218398E+00  0.80230327185E+01 -0.17851324295E+02  0.19572723361E+02  0.00000000000E+00 0.  1.
</event>
<event>
 8    1  0.1244838E-006  0.9118800E+02  0.7816164E-02  0.1184000E+00
        -11   -1    0    0    0    0  0.00000000000E+00  0.00000000000E+00  0.45593999997E+02  0.45594000000E+02  0.51100000000E-03 0.  1.
         11   -1    0    0    0    0 -0.00000000000E+00 -0.00000000000E+00 -0.45593999997E+02  0.45594000000E+02  0.51100000000E-03 0. -1.
         23    2    1    2    0    0  0.00000000000E+00  0.17763568394E-14  0.00000000000E+00  0.91188000000E+02  0.91188000000E+02 0.  0.
    9900012    2    3    3    0    0 -0.16634827588E+02  0.11072134164E+02  0.30926833518E+02  0.54367100021E+02  0.40000036118E+02 0.  0.
         12    1    3    3    0    0  0.16634827588E+02 -0.11072134164E+02 -0.30926833518E+02  0.36820899979E+02  0.00000000000E+00 0. -1.
         11    1    4    4    0    0  0.42761000200E+01  0.15890767407E+02  0.21079607102E+02  0.26742313962E+02  0.51100000000E-03 0. -1.
        -11    1    4    4    0    0 -0.15881582881E+02 -0.85745124853E+01  0.11148849451E+02  0.21214235398E+02  0.51100000000E-03 0.  1.
        -12    1    4    4    0    0 -0.50293447261E+01  0.37558792418E+01 -0.13016230355E+01  0.64105506612E+01  0.00000000000E+00 0.  1.
</event>
<event>
 8    1  0.1244838E-006  0.9118800E+02  0.7816164E-02  0.1184000E+00
        -11   -1    0    0    0    0  0.00000000000E+00  0.00000000000E+00  0.45593999997E+02  0.45594000000E+02  0.51100000000E-03 0. -1.
         11   -1    0    0    0    0 -0.00000000000E+00 -0.00000000000E+00 -0.45593999997E+02  0.45594000000E+02  0.51100000000E-03 0.  1.
         23    2    1    2    0    0  0.88817841970E-15  0.00000000000E+00  0.00000000000E+00  0.91188000000E+02  0.91188000000E+02 0.  0.
    9900012    2    3    3    0    0  0.58165256625E+01  0.14495523489E+02 -0.33344072826E+02  0.54367090660E+02  0.40000014778E+02 0.  0.
         12    1    3    3    0    0 -0.58165256625E+01 -0.14495523489E+02  0.33344072826E+02  0.36820909340E+02  0.00000000000E+00 0. -1.
         11    1    4    4    0    0  0.11043170430E+02  0.18473581090E+02 -0.20303944471E+01  0.21618217163E+02  0.51100000000E-03 0. -1.
        -11    1    4    4    0    0  0.13928278332E+01  0.60497871711E+00 -0.42583973781E+01  0.45210526553E+01  0.51100000000E-03 0.  1.
         12    1    4    4    0    0 -0.66194726009E+01 -0.45830363187E+01 -0.27055281001E+02  0.28227820841E+02  0.00000000000E+00 0. -1.
</event>
<event>
 8    1  0.1244838E-006  0.9118800E+02  0.7816164E-02  0.1184000E+00
        -11   -1    0    0    0    0  0.00000000000E+00  0.00000000000E+00  0.45593999997E+02  0.45594000000E+02  0.51100000000E-03 0.  1.
         11   -1    0    0    0    0 -0.00000000000E+00 -0.00000000000E+00 -0.45593999997E+02  0.45594000000E+02  0.51100000000E-03 0. -1.
         23    2    1    2    0    0 -0.17763568394E-14  0.00000000000E+00  0.00000000000E+00  0.91188000000E+02  0.91188000000E+02 0.  0.
    9900012    2    3    3    0    0 -0.93210175346E+01 -0.13002445346E+02  0.33163735272E+02  0.54367105252E+02  0.40000048043E+02 0.  0.
         12    1    3    3    0    0  0.93210175346E+01  0.13002445346E+02 -0.33163735272E+02  0.36820894748E+02  0.00000000000E+00 0. -1.
         11    1    4    4    0    0 -0.14642395660E+02  0.72321331182E+01  0.88673791333E+01  0.18583162084E+02  0.51100000000E-03 0. -1.
        -11    1    4    4    0    0 -0.26880667516E+01 -0.20825939231E+01  0.11929770384E+02  0.12404931357E+02  0.51100000000E-03 0.  1.
        -12    1    4    4    0    0  0.80094448767E+01 -0.18151984541E+02  0.12366585755E+02  0.23379011811E+02  0.00000000000E+00 0.  1.
</event>
<event>
 8    1  0.1244838E-006  0.9118800E+02  0.7816164E-02  0.1184000E+00
        -11   -1    0    0    0    0  0.00000000000E+00  0.00000000000E+00  0.45593999997E+02  0.45594000000E+02  0.51100000000E-03 0.  1.
         11   -1    0    0    0    0 -0.00000000000E+00 -0.00000000000E+00 -0.45593999997E+02  0.45594000000E+02  0.51100000000E-03 0. -1.
         23    2    1    2    0    0 -0.35527136788E-14  0.00000000000E+00  0.00000000000E+00  0.91188000000E+02  0.91188000000E+02 0.  0.
    9900012    2    3    3    0    0 -0.21147404634E+02 -0.22760061158E+02 -0.19762272137E+02  0.54367075152E+02  0.39999979424E+02 0.  0.
        -12    1    3    3    0    0  0.21147404634E+02  0.22760061158E+02  0.19762272137E+02  0.36820924848E+02  0.00000000000E+00 0.  1.
         11    1    4    4    0    0 -0.17266600046E+02 -0.19125600625E+02 -0.16545516482E+02  0.30621531516E+02  0.51100000000E-03 0. -1.
        -11    1    4    4    0    0  0.33189818729E+01  0.75400947779E+01 -0.59653223009E+01  0.10171221183E+02  0.51100000000E-03 0.  1.
         12    1    4    4    0    0 -0.71997864603E+01 -0.11174555311E+02  0.27485666466E+01  0.13574322454E+02  0.00000000000E+00 0. -1.
</event>
<event>
 8    1  0.1244838E-006  0.9118800E+02  0.7816164E-02  0.1184000E+00
        -11   -1    0    0    0    0  0.00000000000E+00  0.00000000000E+00  0.45593999997E+02  0.45594000000E+02  0.51100000000E-03 0. -1.
         11   -1    0    0    0    0 -0.00000000000E+00 -0.00000000000E+00 -0.45593999997E+02  0.45594000000E+02  0.51100000000E-03 0.  1.
         23    2    1    2    0    0 -0.17763568394E-14  0.35527136788E-14 -0.17763568394E-14  0.91188000000E+02  0.91188000000E+02 0.  0.
    9900012    2    3    3    0    0  0.14418662924E+02 -0.29870106159E+02  0.15989330657E+02  0.54367085056E+02  0.40000002002E+02 0.  0.
        -12    1    3    3    0    0 -0.14418662924E+02  0.29870106159E+02 -0.15989330657E+02  0.36820914944E+02  0.00000000000E+00 0.  1.
         11    1    4    4    0    0 -0.59302251448E+00 -0.31893259332E+01  0.11238293397E+02  0.11697124191E+02  0.51100000000E-03 0. -1.
        -11    1    4    4    0    0  0.64227123143E+01 -0.68556468481E+01  0.15816098554E+02  0.18395654403E+02  0.51100000000E-03 0.  1.
        -12    1    4    4    0    0  0.85889731245E+01 -0.19825133377E+02 -0.11065061294E+02  0.24274306462E+02  0.00000000000E+00 0.  1.
</event>
<event>
 8    1  0.1244838E-006  0.9118800E+02  0.7816164E-02  0.1184000E+00
        -11   -1    0    0    0    0  0.00000000000E+00  0.00000000000E+00  0.45593999997E+02  0.45594000000E+02  0.51100000000E-03 0.  1.
         11   -1    0    0    0    0 -0.00000000000E+00 -0.00000000000E+00 -0.45593999997E+02  0.45594000000E+02  0.51100000000E-03 0. -1.
         23    2    1    2    0    0 -0.11102230246E-15  0.35527136788E-14  0.00000000000E+00  0.91188000000E+02  0.91188000000E+02 0.  0.
    9900012    2    3    3    0    0 -0.72097380261E+00 -0.26494203291E+02 -0.25560085544E+02  0.54367074099E+02  0.39999977023E+02 0.  0.
        -12    1    3    3    0    0  0.72097380261E+00  0.26494203291E+02  0.25560085544E+02  0.36820925901E+02  0.00000000000E+00 0.  1.
         11    1    4    4    0    0 -0.81694640524E+00 -0.55861691477E+01 -0.20765927465E+02  0.21519675438E+02  0.51100000000E-03 0. -1.
        -11    1    4    4    0    0  0.47643417564E+01  0.19237561666E+01  0.53619526633E+01  0.74263266010E+01  0.51100000000E-03 0.  1.
         12    1    4    4    0    0 -0.46683691538E+01 -0.22831790309E+02 -0.10156110742E+02  0.25421072060E+02  0.00000000000E+00 0. -1.
</event>
<event>
 8    1  0.1244838E-006  0.9118800E+02  0.7816164E-02  0.1184000E+00
        -11   -1    0    0    0    0  0.00000000000E+00  0.00000000000E+00  0.45593999997E+02  0.45594000000E+02  0.51100000000E-03 0. -1.
         11   -1    0    0    0    0 -0.00000000000E+00 -0.00000000000E+00 -0.45593999997E+02  0.45594000000E+02  0.51100000000E-03 0.  1.
         23    2    1    2    0    0 -0.22204460493E-14  0.35527136788E-14 -0.35527136788E-14  0.91188000000E+02  0.91188000000E+02 0.  0.
    9900012    2    3    3    0    0 -0.23113712518E+01 -0.18885224281E+02  0.31524364062E+02  0.54367086612E+02  0.40000005549E+02 0.  0.
        -12    1    3    3    0    0  0.23113712518E+01  0.18885224281E+02 -0.31524364062E+02  0.36820913388E+02  0.00000000000E+00 0.  1.
         11    1    4    4    0    0  0.62593875129E+01  0.40058774227E+01  0.13364763155E+02  0.15291954761E+02  0.51100000000E-03 0. -1.
        -11    1    4    4    0    0  0.80991381139E+01 -0.45171142349E+01  0.20589057537E+01  0.94994448449E+01  0.51100000000E-03 0.  1.
        -12    1    4    4    0    0 -0.16669896879E+02 -0.18373987469E+02  0.16100695154E+02  0.29575687006E+02  0.00000000000E+00 0.  1.
</event>
<event>
 8    1  0.1244838E-006  0.9118800E+02  0.7816164E-02  0.1184000E+00
        -11   -1    0    0    0    0  0.00000000000E+00  0.00000000000E+00  0.45593999997E+02  0.45594000000E+02  0.51100000000E-03 0. -1.
         11   -1    0    0    0    0 -0.00000000000E+00 -0.00000000000E+00 -0.45593999997E+02  0.45594000000E+02  0.51100000000E-03 0.  1.
         23    2    1    2    0    0  0.66613381478E-15  0.00000000000E+00  0.35527136788E-14  0.91188000000E+02  0.91188000000E+02 0.  0.
    9900012    2    3    3    0    0 -0.19343167455E+01  0.30612810620E+02  0.20368966074E+02  0.54367074777E+02  0.39999978569E+02 0.  0.
         12    1    3    3    0    0  0.19343167455E+01 -0.30612810620E+02 -0.20368966074E+02  0.36820925223E+02  0.00000000000E+00 0. -1.
         11    1    4    4    0    0 -0.73323133627E+01 -0.50302032907E+01  0.11189530322E+02  0.14292352972E+02  0.51100000000E-03 0. -1.
        -11    1    4    4    0    0  0.55086084493E+01  0.62055894905E+01  0.64519000590E+01  0.10511000076E+02  0.51100000000E-03 0.  1.
         12    1    4    4    0    0 -0.11061183217E+00  0.29437424421E+02  0.27275356934E+01  0.29563721729E+02  0.00000000000E+00 0. -1.
</event>
<event>
 8    1  0.1244838E-006  0.9118800E+02  0.7816164E-02  0.1184000E+00
        -11   -1    0    0    0    0  0.00000000000E+00  0.00000000000E+00  0.45593999997E+02  0.45594000000E+02  0.51100000000E-03 0.  1.
         11   -1    0    0    0    0 -0.00000000000E+00 -0.00000000000E+00 -0.45593999997E+02  0.45594000000E+02  0.51100000000E-03 0. -1.
         23    2    1    2    0    0 -0.35527136788E-14  0.00000000000E+00  0.35527136788E-14  0.91188000000E+02  0.91188000000E+02 0.  0.
    9900012    2    3    3    0    0 -0.28820986845E+02  0.27369130474E+01 -0.22751733969E+02  0.54367063370E+02  0.39999952565E+02 0.  0.
        -12    1    3    3    0    0  0.28820986845E+02 -0.27369130474E+01  0.22751733969E+02  0.36820936630E+02  0.00000000000E+00 0.  1.
         11    1    4    4    0    0 -0.13728347296E+02  0.99742482490E+00 -0.30230162926E+02  0.33216338247E+02  0.51100000000E-03 0. -1.
        -11    1    4    4    0    0 -0.33372856591E+01 -0.37301025840E+01 -0.16769349343E+01  0.52785653252E+01  0.51100000000E-03 0.  1.
        -12    1    4    4    0    0 -0.11755353889E+02  0.54695908065E+01  0.91553638918E+01  0.15872159798E+02  0.00000000000E+00 0.  1.
</event>
<event>
 8    1  0.1244838E-006  0.9118800E+02  0.7816164E-02  0.1184000E+00
        -11   -1    0    0    0    0  0.00000000000E+00  0.00000000000E+00  0.45593999997E+02  0.45594000000E+02  0.51100000000E-03 0.  1.
         11   -1    0    0    0    0 -0.00000000000E+00 -0.00000000000E+00 -0.45593999997E+02  0.45594000000E+02  0.51100000000E-03 0. -1.
         23    2    1    2    0    0  0.17763568394E-14 -0.17763568394E-14  0.00000000000E+00  0.91188000000E+02  0.91188000000E+02 0.  0.
    9900012    2    3    3    0    0  0.14973816340E+02 -0.87648165059E+01 -0.32476804579E+02  0.54367081763E+02  0.39999994495E+02 0.  0.
        -12    1    3    3    0    0 -0.14973816340E+02  0.87648165059E+01  0.32476804579E+02  0.36820918237E+02  0.00000000000E+00 0.  1.
         11    1    4    4    0    0 -0.67630132805E+01 -0.12624794342E+02 -0.11443499303E+02  0.18332415481E+02  0.51100000000E-03 0. -1.
        -11    1    4    4    0    0  0.92998306649E+01  0.11206595031E+02 -0.82011031664E+01  0.16713249714E+02  0.51100000000E-03 0.  1.
         12    1    4    4    0    0  0.12436998956E+02 -0.73466171952E+01 -0.12832202109E+02  0.19321416568E+02  0.00000000000E+00 0. -1.
</event>
<event>
 8    1  0.1244838E-006  0.9118800E+02  0.7816164E-02  0.1184000E+00
        -11   -1    0    0    0    0  0.00000000000E+00  0.00000000000E+00  0.45593999997E+02  0.45594000000E+02  0.51100000000E-03 0. -1.
         11   -1    0    0    0    0 -0.00000000000E+00 -0.00000000000E+00 -0.45593999997E+02  0.45594000000E+02  0.51100000000E-03 0.  1.
         23    2    1    2    0    0 -0.88817841970E-15  0.00000000000E+00  0.00000000000E+00  0.91188000000E+02  0.91188000000E+02 0.  0.
    9900012    2    3    3    0    0  0.46018174263E+01  0.10294808652E+02 -0.35051678535E+02  0.54367082345E+02  0.39999995822E+02 0.  0.
         12    1    3    3    0    0 -0.46018174263E+01 -0.10294808652E+02  0.35051678535E+02  0.36820917655E+02  0.00000000000E+00 0. -1.
         11    1    4    4    0    0 -0.14369809362E+01 -0.66998616022E+01 -0.17284216973E+01  0.70668593820E+01  0.51100000000E-03 0. -1.
        -11    1    4    4    0    0 -0.49416782386E+01  0.21140498360E+02 -0.19674650090E+02  0.29299022358E+02  0.51100000000E-03 0.  1.
         12    1    4    4    0    0  0.10980476601E+02 -0.41458281055E+01 -0.13648606748E+02  0.18001200605E+02  0.00000000000E+00 0. -1.
</event>
<event>
 8    1  0.1244838E-006  0.9118800E+02  0.7816164E-02  0.1184000E+00
        -11   -1    0    0    0    0  0.00000000000E+00  0.00000000000E+00  0.45593999997E+02  0.45594000000E+02  0.51100000000E-03 0.  1.
         11   -1    0    0    0    0 -0.00000000000E+00 -0.00000000000E+00 -0.45593999997E+02  0.45594000000E+02  0.51100000000E-03 0. -1.
         23    2    1    2    0    0  0.00000000000E+00  0.00000000000E+00 -0.88817841970E-15  0.91188000000E+02  0.91188000000E+02 0.  0.
    9900012    2    3    3    0    0 -0.26307536146E+02  0.24566441266E+02 -0.77578128754E+01  0.54367079925E+02  0.39999990304E+02 0.  0.
        -12    1    3    3    0    0  0.26307536146E+02 -0.24566441266E+02  0.77578128754E+01  0.36820920075E+02  0.00000000000E+00 0.  1.
         11    1    4    4    0    0 -0.35152759518E+02  0.15744601889E+02 -0.72058157901E+01  0.39185874647E+02  0.51100000000E-03 0. -1.
        -11    1    4    4    0    0 -0.12533298085E+01  0.31314250827E+01 -0.11783829789E+01  0.35728483544E+01  0.51100000000E-03 0.  1.
        -12    1    4    4    0    0  0.10098553180E+02  0.56904142943E+01  0.62638589362E+00  0.11608356923E+02  0.00000000000E+00 0.  1.
</event>
<event>
 8    1  0.1244838E-006  0.9118800E+02  0.7816164E-02  0.1184000E+00
        -11   -1    0    0    0    0  0.00000000000E+00  0.00000000000E+00  0.45593999997E+02  0.45594000000E+02  0.51100000000E-03 0. -1.
         11   -1    0    0    0    0 -0.00000000000E+00 -0.00000000000E+00 -0.45593999997E+02  0.45594000000E+02  0.51100000000E-03 0.  1.
         23    2    1    2    0    0  0.00000000000E+00 -0.35527136788E-14  0.00000000000E+00  0.91188000000E+02  0.91188000000E+02 0.  0.
    9900012    2    3    3    0    0 -0.20197993441E+02 -0.28748415519E+02  0.11015815711E+02  0.54367101998E+02  0.40000040624E+02 0.  0.
        -12    1    3    3    0    0  0.20197993441E+02  0.28748415519E+02 -0.11015815711E+02  0.36820898002E+02  0.00000000000E+00 0.  1.
         11    1    4    4    0    0 -0.10069636876E+02 -0.16137848281E+02 -0.14531518327E+02  0.23937267160E+02  0.51100000000E-03 0.  1.
        -11    1    4    4    0    0 -0.25996305407E+01 -0.48527189348E+01  0.11052172884E+02  0.12347367562E+02  0.51100000000E-03 0. -1.
        -12    1    4    4    0    0 -0.75287260238E+01 -0.77578483038E+01  0.14495161155E+02  0.18082467275E+02  0.00000000000E+00 0.  1.
</event>
<event>
 8    1  0.1244838E-006  0.9118800E+02  0.7816164E-02  0.1184000E+00
        -11   -1    0    0    0    0  0.00000000000E+00  0.00000000000E+00  0.45593999997E+02  0.45594000000E+02  0.51100000000E-03 0. -1.
         11   -1    0    0    0    0 -0.00000000000E+00 -0.00000000000E+00 -0.45593999997E+02  0.45594000000E+02  0.51100000000E-03 0.  1.
         23    2    1    2    0    0  0.00000000000E+00  0.35527136788E-14  0.00000000000E+00  0.91188000000E+02  0.91188000000E+02 0.  0.
    9900012    2    3    3    0    0  0.16120582829E+02 -0.31619894307E+02 -0.98025090718E+01  0.54367080798E+02  0.39999992296E+02 0.  0.
        -12    1    3    3    0    0 -0.16120582829E+02  0.31619894307E+02  0.98025090718E+01  0.36820919202E+02  0.00000000000E+00 0.  1.
         11    1    4    4    0    0  0.23708569467E+01 -0.27460420032E+02 -0.10244698190E+02  0.29404922586E+02  0.51100000000E-03 0. -1.
        -11    1    4    4    0    0  0.11496575831E+02  0.88356519156E+00 -0.85875688610E+01  0.14377005338E+02  0.51100000000E-03 0.  1.
         12    1    4    4    0    0  0.22531500510E+01 -0.50430394667E+01  0.90297579792E+01  0.10585152875E+02  0.00000000000E+00 0. -1.
</event>
<event>
 8    1  0.1244838E-006  0.9118800E+02  0.7816164E-02  0.1184000E+00
        -11   -1    0    0    0    0  0.00000000000E+00  0.00000000000E+00  0.45593999997E+02  0.45594000000E+02  0.51100000000E-03 0.  1.
         11   -1    0    0    0    0 -0.00000000000E+00 -0.00000000000E+00 -0.45593999997E+02  0.45594000000E+02  0.51100000000E-03 0. -1.
         23    2    1    2    0    0 -0.17763568394E-14  0.71054273576E-14  0.22204460493E-15  0.91188000000E+02  0.91188000000E+02 0.  0.
    9900012    2    3    3    0    0  0.11912356622E+02 -0.34812158741E+02  0.14101064703E+01  0.54367095112E+02  0.40000024927E+02 0.  0.
        -12    1    3    3    0    0 -0.11912356622E+02  0.34812158741E+02 -0.14101064703E+01  0.36820904888E+02  0.00000000000E+00 0.  1.
         11    1    4    4    0    0 -0.94260573232E+01 -0.16642346660E+02 -0.15794006501E+01  0.19191476381E+02  0.51100000000E-03 0. -1.
        -11    1    4    4    0    0 -0.39227787319E+01 -0.51698433975E+01 -0.69906898287E+00  0.65271870999E+01  0.51100000000E-03 0.  1.
         12    1    4    4    0    0  0.25261192677E+02 -0.12999968684E+02  0.36885761032E+01  0.28648431631E+02  0.00000000000E+00 0. -1.
</event>
<event>
 8    1  0.1244838E-006  0.9118800E+02  0.7816164E-02  0.1184000E+00
        -11   -1    0    0    0    0  0.00000000000E+00  0.00000000000E+00  0.45593999997E+02  0.45594000000E+02  0.51100000000E-03 0. -1.
         11   -1    0    0    0    0 -0.00000000000E+00 -0.00000000000E+00 -0.45593999997E+02  0.45594000000E+02  0.51100000000E-03 0.  1.
         23    2    1    2    0    0  0.35527136788E-14  0.00000000000E+00  0.00000000000E+00  0.91188000000E+02  0.91188000000E+02 0.  0.
    9900012    2    3    3    0    0  0.30047138962E+02 -0.12043222283E+02 -0.17547361454E+02  0.54367086693E+02  0.40000005735E+02 0.  0.
         12    1    3    3    0    0 -0.30047138962E+02  0.12043222283E+02  0.17547361454E+02  0.36820913307E+02  0.00000000000E+00 0. -1.
         11    1    4    4    0    0  0.18666016824E+02 -0.84854950981E+01  0.62873118964E+01  0.21446540567E+02  0.51100000000E-03 0. -1.
        -11    1    4    4    0    0  0.14541225396E+02 -0.67881392117E+01 -0.11384761883E+02  0.19675844922E+02  0.51100000000E-03 0.  1.
         12    1    4    4    0    0 -0.31601032588E+01  0.32304120268E+01 -0.12449911467E+02  0.13244701205E+02  0.00000000000E+00 0. -1.
</event>
<event>
 8    1  0.1244838E-006  0.9118800E+02  0.7816164E-02  0.1184000E+00
        -11   -1    0    0    0    0  0.00000000000E+00  0.00000000000E+00  0.45593999997E+02  0.45594000000E+02  0.51100000000E-03 0. -1.
         11   -1    0    0    0    0 -0.00000000000E+00 -0.00000000000E+00 -0.45593999997E+02  0.45594000000E+02  0.51100000000E-03 0.  1.
         23    2    1    2    0    0  0.00000000000E+00 -0.13877787808E-15 -0.88817841970E-15  0.91188000000E+02  0.91188000000E+02 0.  0.
    9900012    2    3    3    0    0  0.36069112485E+02 -0.81266005276E-01  0.74022410456E+01  0.54367073177E+02  0.39999974921E+02 0.  0.
        -12    1    3    3    0    0 -0.36069112485E+02  0.81266005276E-01 -0.74022410456E+01  0.36820926823E+02  0.00000000000E+00 0.  1.
         11    1    4    4    0    0  0.23948274511E+02 -0.10015757266E+02  0.14919055576E+02  0.29940164749E+02  0.51100000000E-03 0. -1.
        -11    1    4    4    0    0  0.16345839935E+02  0.88183956823E+01 -0.44803924624E+01  0.19105614423E+02  0.51100000000E-03 0.  1.
         12    1    4    4    0    0 -0.42250019611E+01  0.11160955783E+01 -0.30364220680E+01  0.53212940048E+01  0.00000000000E+00 0. -1.
</event>
<event>
 8    1  0.1244838E-006  0.9118800E+02  0.7816164E-02  0.1184000E+00
        -11   -1    0    0    0    0  0.00000000000E+00  0.00000000000E+00  0.45593999997E+02  0.45594000000E+02  0.51100000000E-03 0. -1.
         11   -1    0    0    0    0 -0.00000000000E+00 -0.00000000000E+00 -0.45593999997E+02  0.45594000000E+02  0.51100000000E-03 0.  1.
         23    2    1    2    0    0  0.35527136788E-14  0.35527136788E-14  0.00000000000E+00  0.91188000000E+02  0.91188000000E+02 0.  0.
    9900012    2    3    3    0    0 -0.22105196066E+02 -0.16733461270E+02  0.24230802854E+02  0.54367078961E+02  0.39999988108E+02 0.  0.
        -12    1    3    3    0    0  0.22105196066E+02  0.16733461270E+02 -0.24230802854E+02  0.36820921039E+02  0.00000000000E+00 0.  1.
         11    1    4    4    0    0 -0.22595776082E+02 -0.13504848894E+02  0.23779177783E+01  0.26431128119E+02  0.51100000000E-03 0. -1.
        -11    1    4    4    0    0 -0.56952534743E+01  0.38909885953E+01  0.14213365725E+02  0.15798590756E+02  0.51100000000E-03 0.  1.
        -12    1    4    4    0    0  0.61858334903E+01 -0.71196009713E+01  0.76395193503E+01  0.12137360086E+02  0.00000000000E+00 0.  1.
</event>
<event>
 8    1  0.1244838E-006  0.9118800E+02  0.7816164E-02  0.1184000E+00
        -11   -1    0    0    0    0  0.00000000000E+00  0.00000000000E+00  0.45593999997E+02  0.45594000000E+02  0.51100000000E-03 0.  1.
         11   -1    0    0    0    0 -0.00000000000E+00 -0.00000000000E+00 -0.45593999997E+02  0.45594000000E+02  0.51100000000E-03 0. -1.
         23    2    1    2    0    0  0.17763568394E-14  0.88817841970E-15  0.00000000000E+00  0.91188000000E+02  0.91188000000E+02 0.  0.
    9900012    2    3    3    0    0 -0.14880025080E+02 -0.74555270328E+01  0.32844785507E+02  0.54367082511E+02  0.39999996201E+02 0.  0.
         12    1    3    3    0    0  0.14880025080E+02  0.74555270328E+01 -0.32844785507E+02  0.36820917489E+02  0.00000000000E+00 0. -1.
         11    1    4    4    0    0 -0.25124531930E+02  0.42441367197E+01  0.27479107756E+02  0.37474740353E+02  0.51100000000E-03 0. -1.
        -11    1    4    4    0    0  0.57538709341E+01 -0.69337344160E+01  0.10996768801E+01  0.90770586194E+01  0.51100000000E-03 0.  1.
         12    1    4    4    0    0  0.44906359154E+01 -0.47659293365E+01  0.42660008708E+01  0.78152835390E+01  0.00000000000E+00 0. -1.
</event>
<event>
 8    1  0.1244838E-006  0.9118800E+02  0.7816164E-02  0.1184000E+00
        -11   -1    0    0    0    0  0.00000000000E+00  0.00000000000E+00  0.45593999997E+02  0.45594000000E+02  0.51100000000E-03 0.  1.
         11   -1    0    0    0    0 -0.00000000000E+00 -0.00000000000E+00 -0.45593999997E+02  0.45594000000E+02  0.51100000000E-03 0. -1.
         23    2    1    2    0    0  0.00000000000E+00 -0.17763568394E-14  0.00000000000E+00  0.91188000000E+02  0.91188000000E+02 0.  0.
    9900012    2    3    3    0    0 -0.14476635506E+02  0.87976853577E+01  0.32692619097E+02  0.54367087645E+02  0.40000007905E+02 0.  0.
         12    1    3    3    0    0  0.14476635506E+02 -0.87976853577E+01 -0.32692619097E+02  0.36820912355E+02  0.00000000000E+00 0. -1.
         11    1    4    4    0    0 -0.19644663124E+02  0.18205001311E+01  0.17254886443E+02  0.26209885852E+02  0.51100000000E-03 0. -1.
        -11    1    4    4    0    0 -0.39034735785E+01  0.11092738843E+02  0.13683858790E+02  0.18042559482E+02  0.51100000000E-03 0.  1.
         12    1    4    4    0    0  0.90715011970E+01 -0.41155536164E+01  0.17538738641E+01  0.10114642310E+02  0.00000000000E+00 0. -1.
</event>
<event>
 8    1  0.1244838E-006  0.9118800E+02  0.7816164E-02  0.1184000E+00
        -11   -1    0    0    0    0  0.00000000000E+00  0.00000000000E+00  0.45593999997E+02  0.45594000000E+02  0.51100000000E-03 0.  1.
         11   -1    0    0    0    0 -0.00000000000E+00 -0.00000000000E+00 -0.45593999997E+02  0.45594000000E+02  0.51100000000E-03 0. -1.
         23    2    1    2    0    0  0.00000000000E+00  0.00000000000E+00 -0.88817841970E-15  0.91188000000E+02  0.91188000000E+02 0.  0.
    9900012    2    3    3    0    0  0.31081063451E+02  0.19453632805E+02 -0.33620579729E+01  0.54367085178E+02  0.40000002280E+02 0.  0.
        -12    1    3    3    0    0 -0.31081063451E+02 -0.19453632805E+02  0.33620579729E+01  0.36820914822E+02  0.00000000000E+00 0.  1.
         11    1    4    4    0    0  0.18651234126E+02 -0.54661527796E+01 -0.36085741047E+01  0.19767882233E+02  0.51100000000E-03 0. -1.
        -11    1    4    4    0    0  0.14563983696E+02  0.82156790017E+01 -0.40808184172E+01  0.17212207347E+02  0.51100000000E-03 0.  1.
        -12    1    4    4    0    0 -0.21341543714E+01  0.16704106582E+02  0.43273345490E+01  0.17386995597E+02  0.00000000000E+00 0.  1.
</event>
<event>
 8    1  0.1244838E-006  0.9118800E+02  0.7816164E-02  0.1184000E+00
        -11   -1    0    0    0    0  0.00000000000E+00  0.00000000000E+00  0.45593999997E+02  0.45594000000E+02  0.51100000000E-03 0. -1.
         11   -1    0    0    0    0 -0.00000000000E+00 -0.00000000000E+00 -0.45593999997E+02  0.45594000000E+02  0.51100000000E-03 0.  1.
         23    2    1    2    0    0 -0.35527136788E-14  0.17763568394E-14  0.00000000000E+00  0.91188000000E+02  0.91188000000E+02 0.  0.
    9900012    2    3    3    0    0  0.20287142829E+02  0.15181310457E+02  0.26715883202E+02  0.54367098780E+02  0.40000033289E+02 0.  0.
        -12    1    3    3    0    0 -0.20287142829E+02 -0.15181310457E+02 -0.26715883202E+02  0.36820901220E+02  0.00000000000E+00 0.  1.
         11    1    4    4    0    0 -0.59144027120E+01  0.61695211780E+01  0.17968436163E+02  0.19897433236E+02  0.51100000000E-03 0. -1.
        -11    1    4    4    0    0  0.22566543275E+02  0.75198106451E+01 -0.11566714590E+01  0.23814582017E+02  0.51100000000E-03 0.  1.
         12    1    4    4    0    0  0.36350022663E+01  0.14919786339E+01  0.99041184990E+01  0.10655083527E+02  0.00000000000E+00 0. -1.
</event>
<event>
 8    1  0.1244838E-006  0.9118800E+02  0.7816164E-02  0.1184000E+00
        -11   -1    0    0    0    0  0.00000000000E+00  0.00000000000E+00  0.45593999997E+02  0.45594000000E+02  0.51100000000E-03 0.  1.
         11   -1    0    0    0    0 -0.00000000000E+00 -0.00000000000E+00 -0.45593999997E+02  0.45594000000E+02  0.51100000000E-03 0. -1.
         23    2    1    2    0    0 -0.35527136788E-14  0.00000000000E+00  0.35527136788E-14  0.91188000000E+02  0.91188000000E+02 0.  0.
    9900012    2    3    3    0    0 -0.18867937004E+02  0.19087372505E+02 -0.25208194824E+02  0.54367083088E+02  0.39999997516E+02 0.  0.
        -12    1    3    3    0    0  0.18867937004E+02 -0.19087372505E+02  0.25208194824E+02  0.36820916912E+02  0.00000000000E+00 0.  1.
         11    1    4    4    0    0 -0.12205072690E+01 -0.89539190383E+01 -0.77391089166E+01  0.11897735550E+02  0.51100000000E-03 0. -1.
        -11    1    4    4    0    0 -0.41669229255E+01  0.24212142113E+02 -0.94462933095E+01  0.26321541177E+02  0.51100000000E-03 0.  1.
        -12    1    4    4    0    0 -0.13480506809E+02  0.38291494300E+01 -0.80227925983E+01  0.16147806361E+02  0.00000000000E+00 0.  1.
</event>
<event>
 8    1  0.1244838E-006  0.9118800E+02  0.7816164E-02  0.1184000E+00
        -11   -1    0    0    0    0  0.00000000000E+00  0.00000000000E+00  0.45593999997E+02  0.45594000000E+02  0.51100000000E-03 0. -1.
         11   -1    0    0    0    0 -0.00000000000E+00 -0.00000000000E+00 -0.45593999997E+02  0.45594000000E+02  0.51100000000E-03 0.  1.
         23    2    1    2    0    0  0.13322676296E-14  0.35527136788E-14 -0.71054273576E-14  0.91188000000E+02  0.91188000000E+02 0.  0.
    9900012    2    3    3    0    0  0.32640710800E+01  0.28723712737E+02 -0.22805126401E+02  0.54367087144E+02  0.40000006761E+02 0.  0.
         12    1    3    3    0    0 -0.32640710800E+01 -0.28723712737E+02  0.22805126401E+02  0.36820912856E+02  0.00000000000E+00 0. -1.
         11    1    4    4    0    0 -0.98633101525E+01  0.28134658794E+00 -0.13300232187E+00  0.98682183268E+01  0.51100000000E-03 0. -1.
        -11    1    4    4    0    0  0.86878184680E+01  0.36336744726E+00 -0.10343323325E+02  0.13512755578E+02  0.51100000000E-03 0.  1.
         12    1    4    4    0    0  0.44395627645E+01  0.28078998702E+02 -0.12328800754E+02  0.30986113239E+02  0.00000000000E+00 0. -1.
</event>
<event>
 8    1  0.1244838E-006  0.9118800E+02  0.7816164E-02  0.1184000E+00
        -11   -1    0    0    0    0  0.00000000000E+00  0.00000000000E+00  0.45593999997E+02  0.45594000000E+02  0.51100000000E-03 0.  1.
         11   -1    0    0    0    0 -0.00000000000E+00 -0.00000000000E+00 -0.45593999997E+02  0.45594000000E+02  0.51100000000E-03 0. -1.
         23    2    1    2    0    0  0.35527136788E-14  0.00000000000E+00  0.00000000000E+00  0.91188000000E+02  0.91188000000E+02 0.  0.
    9900012    2    3    3    0    0  0.28451961035E+02 -0.81187909059E+01  0.21916875200E+02  0.54367105509E+02  0.40000048630E+02 0.  0.
         12    1    3    3    0    0 -0.28451961035E+02  0.81187909059E+01 -0.21916875200E+02  0.36820894491E+02  0.00000000000E+00 0. -1.
         11    1    4    4    0    0  0.34617401558E+02 -0.50176303698E+01  0.15602597168E+02  0.38301202902E+02  0.51100000000E-03 0. -1.
        -11    1    4    4    0    0  0.24450595250E+01  0.31624619921E+01  0.26900950888E+01  0.48183081865E+01  0.51100000000E-03 0.  1.
         12    1    4    4    0    0 -0.86105000473E+01 -0.62636225282E+01  0.36241829436E+01  0.11247594421E+02  0.00000000000E+00 0. -1.
</event>
<event>
 8    1  0.1244838E-006  0.9118800E+02  0.7816164E-02  0.1184000E+00
        -11   -1    0    0    0    0  0.00000000000E+00  0.00000000000E+00  0.45593999997E+02  0.45594000000E+02  0.51100000000E-03 0.  1.
         11   -1    0    0    0    0 -0.00000000000E+00 -0.00000000000E+00 -0.45593999997E+02  0.45594000000E+02  0.51100000000E-03 0. -1.
         23    2    1    2    0    0 -0.35527136788E-14  0.00000000000E+00  0.00000000000E+00  0.91188000000E+02  0.91188000000E+02 0.  0.
    9900012    2    3    3    0    0  0.28682932378E+02 -0.16035461440E+02 -0.16611157033E+02  0.54367120443E+02  0.40000082674E+02 0.  0.
        -12    1    3    3    0    0 -0.28682932378E+02  0.16035461440E+02  0.16611157033E+02  0.36820879557E+02  0.00000000000E+00 0.  1.
         11    1    4    4    0    0  0.36917243968E+01  0.69973992172E+01 -0.72367093547E+01  0.10722051454E+02  0.51100000000E-03 0.  1.
        -11    1    4    4    0    0  0.19922496205E+02 -0.12495128492E+02 -0.17578720378E+02  0.29360611395E+02  0.51100000000E-03 0. -1.
         12    1    4    4    0    0  0.50687117757E+01 -0.10537732165E+02  0.82042726994E+01  0.14284457595E+02  0.00000000000E+00 0. -1.
</event>
<event>
 8    1  0.1244838E-006  0.9118800E+02  0.7816164E-02  0.1184000E+00
        -11   -1    0    0    0    0  0.00000000000E+00  0.00000000000E+00  0.45593999997E+02  0.45594000000E+02  0.51100000000E-03 0.  1.
         11   -1    0    0    0    0 -0.00000000000E+00 -0.00000000000E+00 -0.45593999997E+02  0.45594000000E+02  0.51100000000E-03 0. -1.
         23    2    1    2    0    0 -0.17763568394E-14  0.00000000000E+00  0.00000000000E+00  0.91188000000E+02  0.91188000000E+02 0.  0.
    9900012    2    3    3    0    0  0.15742084071E+02 -0.18051767694E+02 -0.27966062406E+02  0.54367079666E+02  0.39999989714E+02 0.  0.
        -12    1    3    3    0    0 -0.15742084071E+02  0.18051767694E+02  0.27966062406E+02  0.36820920334E+02  0.00000000000E+00 0.  1.
         11    1    4    4    0    0  0.62872790162E+01  0.43663727455E+01 -0.28041452686E+02  0.29067475938E+02  0.51100000000E-03 0. -1.
        -11    1    4    4    0    0  0.35320543548E+01 -0.13366220898E+02  0.28859824712E+01  0.14123036648E+02  0.51100000000E-03 0.  1.
         12    1    4    4    0    0  0.59227506997E+01 -0.90519195412E+01 -0.28105921912E+01  0.11176567080E+02  0.00000000000E+00 0. -1.
</event>
<event>
 8    1  0.1244838E-006  0.9118800E+02  0.7816164E-02  0.1184000E+00
        -11   -1    0    0    0    0  0.00000000000E+00  0.00000000000E+00  0.45593999997E+02  0.45594000000E+02  0.51100000000E-03 0.  1.
         11   -1    0    0    0    0 -0.00000000000E+00 -0.00000000000E+00 -0.45593999997E+02  0.45594000000E+02  0.51100000000E-03 0. -1.
         23    2    1    2    0    0  0.00000000000E+00  0.00000000000E+00  0.35527136788E-14  0.91188000000E+02  0.91188000000E+02 0.  0.
    9900012    2    3    3    0    0 -0.84634015791E+01  0.19335466934E+02 -0.30171019063E+02  0.54367084216E+02  0.40000000088E+02 0.  0.
        -12    1    3    3    0    0  0.84634015791E+01 -0.19335466934E+02  0.30171019063E+02  0.36820915784E+02  0.00000000000E+00 0.  1.
         11    1    4    4    0    0 -0.10577702121E+02  0.13665324131E+02 -0.21968218186E+02  0.27950518355E+02  0.51100000000E-03 0. -1.
        -11    1    4    4    0    0 -0.68034068793E+01 -0.64169058381E+01 -0.10645706606E+00  0.93527728011E+01  0.51100000000E-03 0.  1.
         12    1    4    4    0    0  0.89177074208E+01  0.12087048641E+02 -0.80963438106E+01  0.17063793060E+02  0.00000000000E+00 0. -1.
</event>
<event>
 8    1  0.1244838E-006  0.9118800E+02  0.7816164E-02  0.1184000E+00
        -11   -1    0    0    0    0  0.00000000000E+00  0.00000000000E+00  0.45593999997E+02  0.45594000000E+02  0.51100000000E-03 0.  1.
         11   -1    0    0    0    0 -0.00000000000E+00 -0.00000000000E+00 -0.45593999997E+02  0.45594000000E+02  0.51100000000E-03 0. -1.
         23    2    1    2    0    0  0.00000000000E+00  0.00000000000E+00 -0.22204460493E-15  0.91188000000E+02  0.91188000000E+02 0.  0.
    9900012    2    3    3    0    0 -0.16835791391E+02  0.32729776887E+02 -0.10485334779E+01  0.54367060451E+02  0.39999945910E+02 0.  0.
         12    1    3    3    0    0  0.16835791391E+02 -0.32729776887E+02  0.10485334779E+01  0.36820939549E+02  0.00000000000E+00 0. -1.
         11    1    4    4    0    0 -0.93768804181E+01  0.25680976753E+02 -0.13737541794E+02  0.30596707473E+02  0.51100000000E-03 0.  1.
        -11    1    4    4    0    0  0.49063467590E+01 -0.12895118088E+01  0.43543178188E+01  0.66854441253E+01  0.51100000000E-03 0. -1.
        -12    1    4    4    0    0 -0.12365257732E+02  0.83383119426E+01  0.83346904969E+01  0.17084908853E+02  0.00000000000E+00 0.  1.
</event>
<event>
 8    1  0.1244838E-006  0.9118800E+02  0.7816164E-02  0.1184000E+00
        -11   -1    0    0    0    0  0.00000000000E+00  0.00000000000E+00  0.45593999997E+02  0.45594000000E+02  0.51100000000E-03 0.  1.
         11   -1    0    0    0    0 -0.00000000000E+00 -0.00000000000E+00 -0.45593999997E+02  0.45594000000E+02  0.51100000000E-03 0. -1.
         23    2    1    2    0    0  0.00000000000E+00 -0.88817841970E-15  0.00000000000E+00  0.91188000000E+02  0.91188000000E+02 0.  0.
    9900012    2    3    3    0    0  0.23521140138E+02  0.45769195174E+01  0.27956862159E+02  0.54367104201E+02  0.40000045647E+02 0.  0.
         12    1    3    3    0    0 -0.23521140138E+02 -0.45769195174E+01 -0.27956862159E+02  0.36820895799E+02  0.00000000000E+00 0. -1.
         11    1    4    4    0    0  0.76423311561E+01  0.46215353281E+00  0.19400378793E+02  0.20856498004E+02  0.51100000000E-03 0. -1.
        -11    1    4    4    0    0  0.20988965209E+02 -0.50344678789E+01  0.34687462651E+01  0.21861260904E+02  0.51100000000E-03 0.  1.
         12    1    4    4    0    0 -0.51101562276E+01  0.91492338635E+01  0.50877371009E+01  0.11649345294E+02  0.00000000000E+00 0. -1.
</event>
<event>
 8    1  0.1244838E-006  0.9118800E+02  0.7816164E-02  0.1184000E+00
        -11   -1    0    0    0    0  0.00000000000E+00  0.00000000000E+00  0.45593999997E+02  0.45594000000E+02  0.51100000000E-03 0.  1.
         11   -1    0    0    0    0 -0.00000000000E+00 -0.00000000000E+00 -0.45593999997E+02  0.45594000000E+02  0.51100000000E-03 0. -1.
         23    2    1    2    0    0  0.17763568394E-14  0.71054273576E-14  0.00000000000E+00  0.91188000000E+02  0.91188000000E+02 0.  0.
    9900012    2    3    3    0    0 -0.42346126319E+01 -0.36435060056E+02 -0.32147528684E+01  0.54367079568E+02  0.39999989492E+02 0.  0.
        -12    1    3    3    0    0  0.42346126319E+01  0.36435060056E+02  0.32147528684E+01  0.36820920432E+02  0.00000000000E+00 0.  1.
         11    1    4    4    0    0 -0.44759033763E+01  0.51461585024E+01 -0.36839647124E+01  0.77516614109E+01  0.51100000000E-03 0. -1.
        -11    1    4    4    0    0  0.83747105460E+01 -0.95737638024E+01 -0.38969948769E+01  0.13303356697E+02  0.51100000000E-03 0.  1.
         12    1    4    4    0    0 -0.81334198016E+01 -0.32007454756E+02  0.43662067209E+01  0.33312061461E+02  0.00000000000E+00 0. -1.
</event>
<event>
 8    1  0.1244838E-006  0.9118800E+02  0.7816164E-02  0.1184000E+00
        -11   -1    0    0    0    0  0.00000000000E+00  0.00000000000E+00  0.45593999997E+02  0.45594000000E+02  0.51100000000E-03 0. -1.
         11   -1    0    0    0    0 -0.00000000000E+00 -0.00000000000E+00 -0.45593999997E+02  0.45594000000E+02  0.51100000000E-03 0.  1.
         23    2    1    2    0    0 -0.35527136788E-14  0.00000000000E+00  0.00000000000E+00  0.91188000000E+02  0.91188000000E+02 0.  0.
    9900012    2    3    3    0    0 -0.27824085517E+02  0.19204422951E+02 -0.14587371813E+02  0.54367068288E+02  0.39999963775E+02 0.  0.
         12    1    3    3    0    0  0.27824085517E+02 -0.19204422951E+02  0.14587371813E+02  0.36820931712E+02  0.00000000000E+00 0. -1.
         11    1    4    4    0    0  0.32976970420E+01  0.14409462704E+02 -0.36702653840E+01  0.15230832855E+02  0.51100000000E-03 0. -1.
        -11    1    4    4    0    0 -0.20840319382E+02 -0.51710129114E+00  0.29721898245E+01  0.21057545400E+02  0.51100000000E-03 0.  1.
         12    1    4    4    0    0 -0.10281463178E+02  0.53120615379E+01 -0.13889296254E+02  0.18078690032E+02  0.00000000000E+00 0. -1.
</event>
<event>
 8    1  0.1244838E-006  0.9118800E+02  0.7816164E-02  0.1184000E+00
        -11   -1    0    0    0    0  0.00000000000E+00  0.00000000000E+00  0.45593999997E+02  0.45594000000E+02  0.51100000000E-03 0.  1.
         11   -1    0    0    0    0 -0.00000000000E+00 -0.00000000000E+00 -0.45593999997E+02  0.45594000000E+02  0.51100000000E-03 0. -1.
         23    2    1    2    0    0  0.00000000000E+00  0.88817841970E-15 -0.35527136788E-14  0.91188000000E+02  0.91188000000E+02 0.  0.
    9900012    2    3    3    0    0  0.25239637149E+02  0.43106211015E+01 -0.26460534390E+02  0.54367073642E+02  0.39999975981E+02 0.  0.
        -12    1    3    3    0    0 -0.25239637149E+02 -0.43106211015E+01  0.26460534390E+02  0.36820926358E+02  0.00000000000E+00 0.  1.
         11    1    4    4    0    0  0.45865251290E+01  0.68694431045E+01 -0.18752057231E+02  0.20490610337E+02  0.51100000000E-03 0. -1.
        -11    1    4    4    0    0  0.74084606541E+01 -0.44427189317E+01 -0.15967507920E+02  0.18154458136E+02  0.51100000000E-03 0.  1.
         12    1    4    4    0    0  0.13244651365E+02  0.18838969286E+01  0.82590307604E+01  0.15722005169E+02  0.00000000000E+00 0. -1.
</event>
<event>
 8    1  0.1244838E-006  0.9118800E+02  0.7816164E-02  0.1184000E+00
        -11   -1    0    0    0    0  0.00000000000E+00  0.00000000000E+00  0.45593999997E+02  0.45594000000E+02  0.51100000000E-03 0.  1.
         11   -1    0    0    0    0 -0.00000000000E+00 -0.00000000000E+00 -0.45593999997E+02  0.45594000000E+02  0.51100000000E-03 0. -1.
         23    2    1    2    0    0  0.00000000000E+00  0.00000000000E+00  0.00000000000E+00  0.91188000000E+02  0.91188000000E+02 0.  0.
    9900012    2    3    3    0    0 -0.27254025500E+02 -0.14269897839E+02  0.20232829011E+02  0.54367092080E+02  0.40000018014E+02 0.  0.
         12    1    3    3    0    0  0.27254025500E+02  0.14269897839E+02 -0.20232829011E+02  0.36820907920E+02  0.00000000000E+00 0. -1.
         11    1    4    4    0    0 -0.41257282991E+01 -0.17227747744E+02  0.39552788359E+01  0.18151064907E+02  0.51100000000E-03 0. -1.
        -11    1    4    4    0    0  0.26336859936E+01  0.25850964206E+01  0.85579314644E+01  0.93197219179E+01  0.51100000000E-03 0.  1.
         12    1    4    4    0    0 -0.25761983195E+02  0.37275348466E+00  0.77196187102E+01  0.26896305254E+02  0.00000000000E+00 0. -1.
</event>
<event>
 8    1  0.1244838E-006  0.9118800E+02  0.7816164E-02  0.1184000E+00
        -11   -1    0    0    0    0  0.00000000000E+00  0.00000000000E+00  0.45593999997E+02  0.45594000000E+02  0.51100000000E-03 0. -1.
         11   -1    0    0    0    0 -0.00000000000E+00 -0.00000000000E+00 -0.45593999997E+02  0.45594000000E+02  0.51100000000E-03 0.  1.
         23    2    1    2    0    0  0.35527136788E-14 -0.88817841970E-15  0.00000000000E+00  0.91188000000E+02  0.91188000000E+02 0.  0.
    9900012    2    3    3    0    0  0.20456984441E+02  0.56462473740E+01 -0.30090088574E+02  0.54367058239E+02  0.39999940867E+02 0.  0.
         12    1    3    3    0    0 -0.20456984441E+02 -0.56462473740E+01  0.30090088574E+02  0.36820941761E+02  0.00000000000E+00 0. -1.
         11    1    4    4    0    0  0.31122195109E+01 -0.10448448987E+01 -0.13369704396E+02  0.13766866275E+02  0.51100000000E-03 0. -1.
        -11    1    4    4    0    0  0.16065902944E+02  0.45364952930E+01 -0.26049887686E+02  0.30940098184E+02  0.51100000000E-03 0.  1.
         12    1    4    4    0    0  0.12788619862E+01  0.21545969797E+01  0.93295035079E+01  0.96600937795E+01  0.00000000000E+00 0. -1.
</event>
<event>
 8    1  0.1244838E-006  0.9118800E+02  0.7816164E-02  0.1184000E+00
        -11   -1    0    0    0    0  0.00000000000E+00  0.00000000000E+00  0.45593999997E+02  0.45594000000E+02  0.51100000000E-03 0.  1.
         11   -1    0    0    0    0 -0.00000000000E+00 -0.00000000000E+00 -0.45593999997E+02  0.45594000000E+02  0.51100000000E-03 0. -1.
         23    2    1    2    0    0 -0.17763568394E-14  0.35527136788E-14  0.00000000000E+00  0.91188000000E+02  0.91188000000E+02 0.  0.
    9900012    2    3    3    0    0 -0.54890643977E+01 -0.31682498758E+02 -0.17940633954E+02  0.54367124098E+02  0.40000091006E+02 0.  0.
        -12    1    3    3    0    0  0.54890643977E+01  0.31682498758E+02  0.17940633954E+02  0.36820875902E+02  0.00000000000E+00 0.  1.
         11    1    4    4    0    0  0.57339487497E+01  0.41238638190E+01 -0.43044004828E+01  0.82711719145E+01  0.51100000000E-03 0. -1.
        -11    1    4    4    0    0 -0.17770446225E+02 -0.21113565236E+02 -0.11388141852E+02  0.29853997574E+02  0.51100000000E-03 0.  1.
        -12    1    4    4    0    0  0.65474330776E+01 -0.14692797341E+02 -0.22480916188E+01  0.16241954609E+02  0.00000000000E+00 0.  1.
</event>
<event>
 8    1  0.1244838E-006  0.9118800E+02  0.7816164E-02  0.1184000E+00
        -11   -1    0    0    0    0  0.00000000000E+00  0.00000000000E+00  0.45593999997E+02  0.45594000000E+02  0.51100000000E-03 0. -1.
         11   -1    0    0    0    0 -0.00000000000E+00 -0.00000000000E+00 -0.45593999997E+02  0.45594000000E+02  0.51100000000E-03 0.  1.
         23    2    1    2    0    0  0.88817841970E-15  0.00000000000E+00  0.00000000000E+00  0.91188000000E+02  0.91188000000E+02 0.  0.
    9900012    2    3    3    0    0  0.53540628025E+01  0.82422267104E+01  0.35484895112E+02  0.54367108230E+02  0.40000054832E+02 0.  0.
        -12    1    3    3    0    0 -0.53540628025E+01 -0.82422267104E+01 -0.35484895112E+02  0.36820891770E+02  0.00000000000E+00 0.  1.
         11    1    4    4    0    0 -0.20276731527E+01  0.10836091466E+02  0.60018804784E+00  0.11040496485E+02  0.51100000000E-03 0.  1.
        -11    1    4    4    0    0  0.14720916078E+02  0.43750370707E+01  0.23719708162E+02  0.28257226953E+02  0.51100000000E-03 0. -1.
         12    1    4    4    0    0 -0.73391801225E+01 -0.69689018262E+01  0.11164998902E+02  0.15069384792E+02  0.00000000000E+00 0. -1.
</event>
<event>
 8    1  0.1244838E-006  0.9118800E+02  0.7816164E-02  0.1184000E+00
        -11   -1    0    0    0    0  0.00000000000E+00  0.00000000000E+00  0.45593999997E+02  0.45594000000E+02  0.51100000000E-03 0.  1.
         11   -1    0    0    0    0 -0.00000000000E+00 -0.00000000000E+00 -0.45593999997E+02  0.45594000000E+02  0.51100000000E-03 0. -1.
         23    2    1    2    0    0  0.00000000000E+00 -0.44408920985E-15  0.35527136788E-14  0.91188000000E+02  0.91188000000E+02 0.  0.
    9900012    2    3    3    0    0  0.27141862740E+02 -0.11127867927E+01 -0.24856736381E+02  0.54367131583E+02  0.40000108070E+02 0.  0.
        -12    1    3    3    0    0 -0.27141862740E+02  0.11127867927E+01  0.24856736381E+02  0.36820868417E+02  0.00000000000E+00 0.  1.
         11    1    4    4    0    0  0.31935708044E+01 -0.26188738701E+01 -0.14062737937E+02  0.14656670610E+02  0.51100000000E-03 0. -1.
        -11    1    4    4    0    0  0.30083815279E+02 -0.19126815503E+01 -0.48975476134E+01  0.30539814429E+02  0.51100000000E-03 0.  1.
        -12    1    4    4    0    0 -0.61355233437E+01  0.34187686277E+01 -0.58964508316E+01  0.91706465443E+01  0.00000000000E+00 0.  1.
</event>
<event>
 8    1  0.1244838E-006  0.9118800E+02  0.7816164E-02  0.1184000E+00
        -11   -1    0    0    0    0  0.00000000000E+00  0.00000000000E+00  0.45593999997E+02  0.45594000000E+02  0.51100000000E-03 0.  1.
         11   -1    0    0    0    0 -0.00000000000E+00 -0.00000000000E+00 -0.45593999997E+02  0.45594000000E+02  0.51100000000E-03 0. -1.
         23    2    1    2    0    0  0.17763568394E-14 -0.17763568394E-14  0.00000000000E+00  0.91188000000E+02  0.91188000000E+02 0.  0.
    9900012    2    3    3    0    0  0.63832646535E+01 -0.91824798520E+01 -0.35081540111E+02  0.54367102938E+02  0.40000042767E+02 0.  0.
        -12    1    3    3    0    0 -0.63832646535E+01  0.91824798520E+01  0.35081540111E+02  0.36820897062E+02  0.00000000000E+00 0.  1.
         11    1    4    4    0    0 -0.26482839594E+01 -0.79822188595E+01 -0.31132897828E+02  0.32248822510E+02  0.51100000000E-03 0. -1.
        -11    1    4    4    0    0 -0.22778255133E+01  0.58245315788E+01 -0.59772764752E+01  0.86510977051E+01  0.51100000000E-03 0.  1.
         12    1    4    4    0    0  0.11309374126E+02 -0.70247925714E+01  0.20286341919E+01  0.13467182723E+02  0.00000000000E+00 0. -1.
</event>
<event>
 8    1  0.1244838E-006  0.9118800E+02  0.7816164E-02  0.1184000E+00
        -11   -1    0    0    0    0  0.00000000000E+00  0.00000000000E+00  0.45593999997E+02  0.45594000000E+02  0.51100000000E-03 0. -1.
         11   -1    0    0    0    0 -0.00000000000E+00 -0.00000000000E+00 -0.45593999997E+02  0.45594000000E+02  0.51100000000E-03 0.  1.
         23    2    1    2    0    0  0.35527136788E-14  0.00000000000E+00  0.17763568394E-14  0.91188000000E+02  0.91188000000E+02 0.  0.
    9900012    2    3    3    0    0  0.31793138798E+02  0.12929638885E+02  0.13334169096E+02  0.54367091513E+02  0.40000016721E+02 0.  0.
        -12    1    3    3    0    0 -0.31793138798E+02 -0.12929638885E+02 -0.13334169096E+02  0.36820908487E+02  0.00000000000E+00 0.  1.
         11    1    4    4    0    0 -0.33676209795E+01  0.47551072906E+01  0.67380321183E+01  0.89080297202E+01  0.51100000000E-03 0. -1.
        -11    1    4    4    0    0  0.17122147917E+02  0.10929240479E+02  0.15116194628E+02  0.25320260407E+02  0.51100000000E-03 0.  1.
        -12    1    4    4    0    0  0.18038611860E+02 -0.27547088846E+01 -0.85200576506E+01  0.20138801386E+02  0.00000000000E+00 0.  1.
</event>
<event>
 8    1  0.1244838E-006  0.9118800E+02  0.7816164E-02  0.1184000E+00
        -11   -1    0    0    0    0  0.00000000000E+00  0.00000000000E+00  0.45593999997E+02  0.45594000000E+02  0.51100000000E-03 0.  1.
         11   -1    0    0    0    0 -0.00000000000E+00 -0.00000000000E+00 -0.45593999997E+02  0.45594000000E+02  0.51100000000E-03 0. -1.
         23    2    1    2    0    0  0.00000000000E+00  0.17763568394E-14  0.00000000000E+00  0.91188000000E+02  0.91188000000E+02 0.  0.
    9900012    2    3    3    0    0  0.54145052209E+01 -0.14844219433E+02 -0.33258257692E+02  0.54367089880E+02  0.40000013000E+02 0.  0.
        -12    1    3    3    0    0 -0.54145052209E+01  0.14844219433E+02  0.33258257692E+02  0.36820910120E+02  0.00000000000E+00 0.  1.
         11    1    4    4    0    0  0.30019309961E+01  0.51187039925E+01 -0.25413896785E+02  0.26097487816E+02  0.51100000000E-03 0. -1.
        -11    1    4    4    0    0 -0.57541936020E+01 -0.44268873667E+00 -0.32261992772E+01  0.66117379988E+01  0.51100000000E-03 0.  1.
         12    1    4    4    0    0  0.81667678269E+01 -0.19520234689E+02 -0.46181616302E+01  0.21657864065E+02  0.00000000000E+00 0. -1.
</event>
<event>
 8    1  0.1244838E-006  0.9118800E+02  0.7816164E-02  0.1184000E+00
        -11   -1    0    0    0    0  0.00000000000E+00  0.00000000000E+00  0.45593999997E+02  0.45594000000E+02  0.51100000000E-03 0. -1.
         11   -1    0    0    0    0 -0.00000000000E+00 -0.00000000000E+00 -0.45593999997E+02  0.45594000000E+02  0.51100000000E-03 0.  1.
         23    2    1    2    0    0 -0.35527136788E-14  0.00000000000E+00  0.35527136788E-14  0.91188000000E+02  0.91188000000E+02 0.  0.
    9900012    2    3    3    0    0 -0.11939360540E+02 -0.21079466981E+02  0.27728814287E+02  0.54367090179E+02  0.40000013681E+02 0.  0.
        -12    1    3    3    0    0  0.11939360540E+02  0.21079466981E+02 -0.27728814287E+02  0.36820909821E+02  0.00000000000E+00 0.  1.
         11    1    4    4    0    0 -0.12562538978E+02 -0.12173810159E+02  0.74009835863E+01  0.18994567583E+02  0.51100000000E-03 0. -1.
        -11    1    4    4    0    0  0.15240342407E+00 -0.36494886363E+01 -0.68092500410E+01  0.77270874521E+01  0.51100000000E-03 0.  1.
        -12    1    4    4    0    0  0.47077501425E+00 -0.52561681857E+01  0.27137080741E+02  0.27645435143E+02  0.00000000000E+00 0.  1.
</event>
<event>
 8    1  0.1244838E-006  0.9118800E+02  0.7816164E-02  0.1184000E+00
        -11   -1    0    0    0    0  0.00000000000E+00  0.00000000000E+00  0.45593999997E+02  0.45594000000E+02  0.51100000000E-03 0. -1.
         11   -1    0    0    0    0 -0.00000000000E+00 -0.00000000000E+00 -0.45593999997E+02  0.45594000000E+02  0.51100000000E-03 0.  1.
         23    2    1    2    0    0 -0.44408920985E-15  0.17763568394E-14  0.71054273576E-14  0.91188000000E+02  0.91188000000E+02 0.  0.
    9900012    2    3    3    0    0 -0.38896380093E+01  0.12393246655E+02 -0.34453778800E+02  0.54367017936E+02  0.39999848989E+02 0.  0.
         12    1    3    3    0    0  0.38896380093E+01 -0.12393246655E+02  0.34453778800E+02  0.36820982064E+02  0.00000000000E+00 0. -1.
         11    1    4    4    0    0 -0.10946750651E+01 -0.88709466774E+01 -0.14355980903E+02  0.16911126408E+02  0.51100000000E-03 0. -1.
        -11    1    4    4    0    0 -0.79058752434E+01  0.11703893226E+02 -0.22297410101E+02  0.26394288728E+02  0.51100000000E-03 0.  1.
         12    1    4    4    0    0  0.51109122991E+01  0.95603001064E+01  0.21996122033E+01  0.11061602800E+02  0.00000000000E+00 0. -1.
</event>
<event>
 8    1  0.1244838E-006  0.9118800E+02  0.7816164E-02  0.1184000E+00
        -11   -1    0    0    0    0  0.00000000000E+00  0.00000000000E+00  0.45593999997E+02  0.45594000000E+02  0.51100000000E-03 0. -1.
         11   -1    0    0    0    0 -0.00000000000E+00 -0.00000000000E+00 -0.45593999997E+02  0.45594000000E+02  0.51100000000E-03 0.  1.
         23    2    1    2    0    0  0.88817841970E-15  0.17763568394E-14 -0.71054273576E-14  0.91188000000E+02  0.91188000000E+02 0.  0.
    9900012    2    3    3    0    0  0.75875297344E+01  0.73446142508E+01  0.35274156308E+02  0.54367081092E+02  0.39999992966E+02 0.  0.
        -12    1    3    3    0    0 -0.75875297344E+01 -0.73446142508E+01 -0.35274156308E+02  0.36820918908E+02  0.00000000000E+00 0.  1.
         11    1    4    4    0    0 -0.91054310203E+01  0.16025896511E+02  0.26301136161E+02  0.32116786836E+02  0.51100000000E-03 0. -1.
        -11    1    4    4    0    0  0.79480274871E+00 -0.79577538610E+00 -0.13206204670E+01  0.17346494036E+01  0.51100000000E-03 0.  1.
         12    1    4    4    0    0  0.15898158006E+02 -0.78855068738E+01  0.10293640614E+02  0.20515644853E+02  0.00000000000E+00 0. -1.
</event>
<event>
 8    1  0.1244838E-006  0.9118800E+02  0.7816164E-02  0.1184000E+00
        -11   -1    0    0    0    0  0.00000000000E+00  0.00000000000E+00  0.45593999997E+02  0.45594000000E+02  0.51100000000E-03 0. -1.
         11   -1    0    0    0    0 -0.00000000000E+00 -0.00000000000E+00 -0.45593999997E+02  0.45594000000E+02  0.51100000000E-03 0.  1.
         23    2    1    2    0    0 -0.53290705182E-14  0.77715611724E-15  0.00000000000E+00  0.91188000000E+02  0.91188000000E+02 0.  0.
    9900012    2    3    3    0    0  0.13548329060E+02  0.71670358247E+00  0.34230211671E+02  0.54367105451E+02  0.40000048498E+02 0.  0.
        -12    1    3    3    0    0 -0.13548329060E+02 -0.71670358247E+00 -0.34230211671E+02  0.36820894549E+02  0.00000000000E+00 0.  1.
         11    1    4    4    0    0  0.25889937571E+02 -0.66298034551E+01  0.22221472247E+02  0.34756826529E+02  0.51100000000E-03 0. -1.
        -11    1    4    4    0    0 -0.10686079331E+02  0.80718635238E+01  0.11686778979E+02  0.17774365682E+02  0.51100000000E-03 0.  1.
         12    1    4    4    0    0 -0.16555291806E+01 -0.72535648619E+00  0.32196044442E+00  0.18359132408E+01  0.00000000000E+00 0. -1.
</event>
<event>
 8    1  0.1244838E-006  0.9118800E+02  0.7816164E-02  0.1184000E+00
        -11   -1    0    0    0    0  0.00000000000E+00  0.00000000000E+00  0.45593999997E+02  0.45594000000E+02  0.51100000000E-03 0.  1.
         11   -1    0    0    0    0 -0.00000000000E+00 -0.00000000000E+00 -0.45593999997E+02  0.45594000000E+02  0.51100000000E-03 0. -1.
         23    2    1    2    0    0 -0.88817841970E-15 -0.71054273576E-14  0.31918911958E-15  0.91188000000E+02  0.91188000000E+02 0.  0.
    9900012    2    3    3    0    0  0.76379399828E+01  0.36019889790E+02 -0.86993949639E-01  0.54367107078E+02  0.40000052205E+02 0.  0.
        -12    1    3    3    0    0 -0.76379399828E+01 -0.36019889790E+02  0.86993949639E-01  0.36820892922E+02  0.00000000000E+00 0.  1.
         11    1    4    4    0    0  0.32906338788E+01  0.40151630543E+02  0.28345725494E+01  0.40385845396E+02  0.51100000000E-03 0. -1.
        -11    1    4    4    0    0 -0.24295217747E+01  0.29677449944E+01 -0.46213482455E+00  0.38631147100E+01  0.51100000000E-03 0.  1.
        -12    1    4    4    0    0  0.67768278788E+01 -0.70994857474E+01 -0.24594316745E+01  0.10118146972E+02  0.00000000000E+00 0.  1.
</event>
<event>
 8    1  0.1244838E-006  0.9118800E+02  0.7816164E-02  0.1184000E+00
        -11   -1    0    0    0    0  0.00000000000E+00  0.00000000000E+00  0.45593999997E+02  0.45594000000E+02  0.51100000000E-03 0.  1.
         11   -1    0    0    0    0 -0.00000000000E+00 -0.00000000000E+00 -0.45593999997E+02  0.45594000000E+02  0.51100000000E-03 0. -1.
         23    2    1    2    0    0  0.26645352591E-14  0.00000000000E+00  0.14988010832E-14  0.91188000000E+02  0.91188000000E+02 0.  0.
    9900012    2    3    3    0    0  0.38832151515E+01  0.36612899392E+02  0.44257852143E+00  0.54367086954E+02  0.40000006330E+02 0.  0.
         12    1    3    3    0    0 -0.38832151515E+01 -0.36612899392E+02 -0.44257852143E+00  0.36820913046E+02  0.00000000000E+00 0. -1.
         11    1    4    4    0    0  0.95978297479E+01  0.45396616873E+01  0.14746301756E+02  0.18170863487E+02  0.51100000000E-03 0. -1.
        -11    1    4    4    0    0 -0.63787891365E+01  0.24864421058E+02 -0.89230710309E+01  0.27176268734E+02  0.51100000000E-03 0.  1.
         12    1    4    4    0    0  0.66417454017E+00  0.72088166460E+01 -0.53806522040E+01  0.90199547336E+01  0.00000000000E+00 0. -1.
</event>
<event>
 8    1  0.1244838E-006  0.9118800E+02  0.7816164E-02  0.1184000E+00
        -11   -1    0    0    0    0  0.00000000000E+00  0.00000000000E+00  0.45593999997E+02  0.45594000000E+02  0.51100000000E-03 0. -1.
         11   -1    0    0    0    0 -0.00000000000E+00 -0.00000000000E+00 -0.45593999997E+02  0.45594000000E+02  0.51100000000E-03 0.  1.
         23    2    1    2    0    0  0.00000000000E+00  0.00000000000E+00  0.00000000000E+00  0.91188000000E+02  0.91188000000E+02 0.  0.
    9900012    2    3    3    0    0 -0.35021170503E+02 -0.92319291966E+01  0.66384620252E+01  0.54367080970E+02  0.39999992688E+02 0.  0.
         12    1    3    3    0    0  0.35021170503E+02  0.92319291966E+01 -0.66384620252E+01  0.36820919030E+02  0.00000000000E+00 0. -1.
         11    1    4    4    0    0 -0.23435454974E+01 -0.36103221853E+01  0.53752039818E+01  0.68861781771E+01  0.51100000000E-03 0. -1.
        -11    1    4    4    0    0 -0.32792055665E+02 -0.12788477615E+02  0.96031610693E+01  0.36484034552E+02  0.51100000000E-03 0.  1.
         12    1    4    4    0    0  0.11443065862E+00  0.71668706039E+01 -0.83399030258E+01  0.10996868241E+02  0.00000000000E+00 0. -1.
</event>
<event>
 8    1  0.1244838E-006  0.9118800E+02  0.7816164E-02  0.1184000E+00
        -11   -1    0    0    0    0  0.00000000000E+00  0.00000000000E+00  0.45593999997E+02  0.45594000000E+02  0.51100000000E-03 0. -1.
         11   -1    0    0    0    0 -0.00000000000E+00 -0.00000000000E+00 -0.45593999997E+02  0.45594000000E+02  0.51100000000E-03 0.  1.
         23    2    1    2    0    0  0.00000000000E+00 -0.23314683517E-14  0.00000000000E+00  0.91188000000E+02  0.91188000000E+02 0.  0.
    9900012    2    3    3    0    0  0.25987200296E+02  0.20814686735E+00  0.26084277238E+02  0.54367252813E+02  0.40000384436E+02 0.  0.
        -12    1    3    3    0    0 -0.25987200296E+02 -0.20814686735E+00 -0.26084277238E+02  0.36820747187E+02  0.00000000000E+00 0.  1.
         11    1    4    4    0    0  0.19332361932E+02  0.17827644887E+02  0.17013237797E+02  0.31321165379E+02  0.51100000000E-03 0. -1.
        -11    1    4    4    0    0 -0.19680749977E+01 -0.80326504759E+01  0.40506895837E+01  0.92089564680E+01  0.51100000000E-03 0.  1.
         12    1    4    4    0    0  0.86229133622E+01 -0.95868475439E+01  0.50203498575E+01  0.13837130966E+02  0.00000000000E+00 0. -1.
</event>
<event>
 8    1  0.1244838E-006  0.9118800E+02  0.7816164E-02  0.1184000E+00
        -11   -1    0    0    0    0  0.00000000000E+00  0.00000000000E+00  0.45593999997E+02  0.45594000000E+02  0.51100000000E-03 0. -1.
         11   -1    0    0    0    0 -0.00000000000E+00 -0.00000000000E+00 -0.45593999997E+02  0.45594000000E+02  0.51100000000E-03 0.  1.
         23    2    1    2    0    0  0.00000000000E+00 -0.71054273576E-14  0.00000000000E+00  0.91188000000E+02  0.91188000000E+02 0.  0.
    9900012    2    3    3    0    0  0.26153917107E+01 -0.34389037577E+02 -0.12896941593E+02  0.54367118944E+02  0.40000079257E+02 0.  0.
         12    1    3    3    0    0 -0.26153917107E+01  0.34389037577E+02  0.12896941593E+02  0.36820881056E+02  0.00000000000E+00 0. -1.
         11    1    4    4    0    0  0.36722859573E+01 -0.72301677144E+01 -0.44321550711E+01  0.92414830069E+01  0.51100000000E-03 0. -1.
        -11    1    4    4    0    0  0.63495607870E+01 -0.27371229545E+02 -0.17758693501E+02  0.33239619795E+02  0.51100000000E-03 0.  1.
         12    1    4    4    0    0 -0.74064550336E+01  0.21235968268E+00  0.92939069792E+01  0.11886016142E+02  0.00000000000E+00 0. -1.
</event>
<event>
 8    1  0.1244838E-006  0.9118800E+02  0.7816164E-02  0.1184000E+00
        -11   -1    0    0    0    0  0.00000000000E+00  0.00000000000E+00  0.45593999997E+02  0.45594000000E+02  0.51100000000E-03 0.  1.
         11   -1    0    0    0    0 -0.00000000000E+00 -0.00000000000E+00 -0.45593999997E+02  0.45594000000E+02  0.51100000000E-03 0. -1.
         23    2    1    2    0    0  0.00000000000E+00  0.17763568394E-14  0.00000000000E+00  0.91188000000E+02  0.91188000000E+02 0.  0.
    9900012    2    3    3    0    0  0.21706237453E+02  0.11024330409E+02 -0.27623961864E+02  0.54367083738E+02  0.39999998997E+02 0.  0.
        -12    1    3    3    0    0 -0.21706237453E+02 -0.11024330409E+02  0.27623961864E+02  0.36820916262E+02  0.00000000000E+00 0.  1.
         11    1    4    4    0    0  0.68895246346E+01  0.10733510679E+02  0.38648651016E+01  0.13327077087E+02  0.51100000000E-03 0. -1.
        -11    1    4    4    0    0  0.14507738665E+02 -0.64662311983E+01 -0.10631361095E+02  0.19113149036E+02  0.51100000000E-03 0.  1.
         12    1    4    4    0    0  0.30897415320E+00  0.67570509286E+01 -0.20857465871E+02  0.21926857614E+02  0.00000000000E+00 0. -1.
</event>
<event>
 8    1  0.1244838E-006  0.9118800E+02  0.7816164E-02  0.1184000E+00
        -11   -1    0    0    0    0  0.00000000000E+00  0.00000000000E+00  0.45593999997E+02  0.45594000000E+02  0.51100000000E-03 0.  1.
         11   -1    0    0    0    0 -0.00000000000E+00 -0.00000000000E+00 -0.45593999997E+02  0.45594000000E+02  0.51100000000E-03 0. -1.
         23    2    1    2    0    0 -0.35527136788E-14  0.00000000000E+00  0.88817841970E-15  0.91188000000E+02  0.91188000000E+02 0.  0.
    9900012    2    3    3    0    0  0.19646319897E+02 -0.30808290737E+02 -0.45442747960E+01  0.54367094294E+02  0.40000023062E+02 0.  0.
        -12    1    3    3    0    0 -0.19646319897E+02  0.30808290737E+02  0.45442747960E+01  0.36820905706E+02  0.00000000000E+00 0.  1.
         11    1    4    4    0    0 -0.35849324862E+01 -0.15687587456E+01 -0.95013863296E+01  0.10275655083E+02  0.51100000000E-03 0. -1.
        -11    1    4    4    0    0 -0.41819651856E+01 -0.13268799751E+01  0.21007321363E+01  0.48644135362E+01  0.51100000000E-03 0.  1.
         12    1    4    4    0    0  0.27413217569E+02 -0.27912652016E+02  0.28563793973E+01  0.39227025675E+02  0.00000000000E+00 0. -1.
</event>
<event>
 8    1  0.1244838E-006  0.9118800E+02  0.7816164E-02  0.1184000E+00
        -11   -1    0    0    0    0  0.00000000000E+00  0.00000000000E+00  0.45593999997E+02  0.45594000000E+02  0.51100000000E-03 0.  1.
         11   -1    0    0    0    0 -0.00000000000E+00 -0.00000000000E+00 -0.45593999997E+02  0.45594000000E+02  0.51100000000E-03 0. -1.
         23    2    1    2    0    0 -0.13322676296E-14  0.00000000000E+00  0.11102230246E-15  0.91188000000E+02  0.91188000000E+02 0.  0.
    9900012    2    3    3    0    0 -0.12922624699E+01 -0.36785515712E+02  0.96896194056E+00  0.54367041352E+02  0.39999902371E+02 0.  0.
         12    1    3    3    0    0  0.12922624699E+01  0.36785515712E+02 -0.96896194056E+00  0.36820958648E+02  0.00000000000E+00 0. -1.
         11    1    4    4    0    0  0.11552675662E+02 -0.21078131898E+02  0.43568213692E+01  0.24428136482E+02  0.51100000000E-03 0.  1.
        -11    1    4    4    0    0 -0.14402799737E+02 -0.12725101812E+02  0.58644501541E+01  0.20093795865E+02  0.51100000000E-03 0. -1.
        -12    1    4    4    0    0  0.15578616051E+01 -0.29822820024E+01 -0.92523095827E+01  0.98451090058E+01  0.00000000000E+00 0.  1.
</event>
<event>
 8    1  0.1244838E-006  0.9118800E+02  0.7816164E-02  0.1184000E+00
        -11   -1    0    0    0    0  0.00000000000E+00  0.00000000000E+00  0.45593999997E+02  0.45594000000E+02  0.51100000000E-03 0.  1.
         11   -1    0    0    0    0 -0.00000000000E+00 -0.00000000000E+00 -0.45593999997E+02  0.45594000000E+02  0.51100000000E-03 0. -1.
         23    2    1    2    0    0  0.35527136788E-14 -0.35527136788E-14 -0.88817841970E-15  0.91188000000E+02  0.91188000000E+02 0.  0.
    9900012    2    3    3    0    0 -0.25700425342E+02  0.25959121231E+02  0.46251220858E+01  0.54367087570E+02  0.40000007734E+02 0.  0.
         12    1    3    3    0    0  0.25700425342E+02 -0.25959121231E+02 -0.46251220858E+01  0.36820912430E+02  0.00000000000E+00 0. -1.
         11    1    4    4    0    0  0.63890188007E+00  0.37908925223E+01 -0.55640412821E+01  0.67629592175E+01  0.51100000000E-03 0. -1.
        -11    1    4    4    0    0 -0.94990138109E+01 -0.65977397344E+01  0.82661900814E+01  0.14215883079E+02  0.51100000000E-03 0.  1.
         12    1    4    4    0    0 -0.16840313411E+02  0.28765968443E+02  0.19229732866E+01  0.33388245274E+02  0.00000000000E+00 0. -1.
</event>
<event>
 8    1  0.1244838E-006  0.9118800E+02  0.7816164E-02  0.1184000E+00
        -11   -1    0    0    0    0  0.00000000000E+00  0.00000000000E+00  0.45593999997E+02  0.45594000000E+02  0.51100000000E-03 0.  1.
         11   -1    0    0    0    0 -0.00000000000E+00 -0.00000000000E+00 -0.45593999997E+02  0.45594000000E+02  0.51100000000E-03 0. -1.
         23    2    1    2    0    0 -0.17763568394E-14 -0.71054273576E-14  0.00000000000E+00  0.91188000000E+02  0.91188000000E+02 0.  0.
    9900012    2    3    3    0    0 -0.60282562030E+01 -0.35495970151E+02 -0.77120436604E+01  0.54367090353E+02  0.40000014078E+02 0.  0.
        -12    1    3    3    0    0  0.60282562030E+01  0.35495970151E+02  0.77120436604E+01  0.36820909647E+02  0.00000000000E+00 0.  1.
         11    1    4    4    0    0 -0.66592376253E+01 -0.11698751301E+02 -0.73442855398E+01  0.15334430479E+02  0.51100000000E-03 0. -1.
        -11    1    4    4    0    0 -0.13859679768E+02 -0.18367319826E+02  0.29745554950E+01  0.23201231466E+02  0.51100000000E-03 0.  1.
         12    1    4    4    0    0  0.14490661191E+02 -0.54298990233E+01 -0.33423136156E+01  0.15831428408E+02  0.00000000000E+00 0. -1.
</event>
<event>
 8    1  0.1244838E-006  0.9118800E+02  0.7816164E-02  0.1184000E+00
        -11   -1    0    0    0    0  0.00000000000E+00  0.00000000000E+00  0.45593999997E+02  0.45594000000E+02  0.51100000000E-03 0.  1.
         11   -1    0    0    0    0 -0.00000000000E+00 -0.00000000000E+00 -0.45593999997E+02  0.45594000000E+02  0.51100000000E-03 0. -1.
         23    2    1    2    0    0 -0.35527136788E-14  0.00000000000E+00 -0.31086244690E-14  0.91188000000E+02  0.91188000000E+02 0.  0.
    9900012    2    3    3    0    0 -0.26639353585E+02  0.25160699456E+02  0.36143636242E+01  0.54367087722E+02  0.40000008080E+02 0.  0.
         12    1    3    3    0    0  0.26639353585E+02 -0.25160699456E+02 -0.36143636242E+01  0.36820912278E+02  0.00000000000E+00 0. -1.
         11    1    4    4    0    0 -0.50447651237E+01  0.49043711982E+01 -0.40054261872E+01  0.80960454053E+01  0.51100000000E-03 0. -1.
        -11    1    4    4    0    0 -0.14106419622E+02  0.17939062997E+02  0.20837986924E+02  0.30903442447E+02  0.51100000000E-03 0.  1.
        -12    1    4    4    0    0 -0.74881688400E+01  0.23172652610E+01 -0.13218197112E+02  0.15367599870E+02  0.00000000000E+00 0.  1.
</event>
<event>
 8    1  0.1244838E-006  0.9118800E+02  0.7816164E-02  0.1184000E+00
        -11   -1    0    0    0    0  0.00000000000E+00  0.00000000000E+00  0.45593999997E+02  0.45594000000E+02  0.51100000000E-03 0. -1.
         11   -1    0    0    0    0 -0.00000000000E+00 -0.00000000000E+00 -0.45593999997E+02  0.45594000000E+02  0.51100000000E-03 0.  1.
         23    2    1    2    0    0  0.00000000000E+00  0.00000000000E+00  0.00000000000E+00  0.91188000000E+02  0.91188000000E+02 0.  0.
    9900012    2    3    3    0    0  0.17158324641E+02  0.82354043494E+01 -0.31520623443E+02  0.54367086221E+02  0.40000004658E+02 0.  0.
         12    1    3    3    0    0 -0.17158324641E+02 -0.82354043494E+01  0.31520623443E+02  0.36820913779E+02  0.00000000000E+00 0. -1.
         11    1    4    4    0    0  0.21769327348E+02  0.29353173133E+01 -0.30865962550E+02  0.37884394483E+02  0.51100000000E-03 0. -1.
        -11    1    4    4    0    0  0.39401656455E+01 -0.13458341380E+01 -0.33248370844E+01  0.53282939803E+01  0.51100000000E-03 0.  1.
         12    1    4    4    0    0 -0.85511683528E+01  0.66459211741E+01  0.26701761913E+01  0.11154397758E+02  0.00000000000E+00 0. -1.
</event>
<event>
 8    1  0.1244838E-006  0.9118800E+02  0.7816164E-02  0.1184000E+00
        -11   -1    0    0    0    0  0.00000000000E+00  0.00000000000E+00  0.45593999997E+02  0.45594000000E+02  0.51100000000E-03 0. -1.
         11   -1    0    0    0    0 -0.00000000000E+00 -0.00000000000E+00 -0.45593999997E+02  0.45594000000E+02  0.51100000000E-03 0.  1.
         23    2    1    2    0    0  0.00000000000E+00 -0.17763568394E-14  0.88817841970E-15  0.91188000000E+02  0.91188000000E+02 0.  0.
    9900012    2    3    3    0    0  0.32608078624E+02 -0.15256518431E+02  0.77287073478E+01  0.54367067592E+02  0.39999962189E+02 0.  0.
        -12    1    3    3    0    0 -0.32608078624E+02  0.15256518431E+02 -0.77287073478E+01  0.36820932408E+02  0.00000000000E+00 0.  1.
         11    1    4    4    0    0  0.21324409378E+02 -0.17539309039E+01 -0.11709258475E+02  0.24390847529E+02  0.51100000000E-03 0. -1.
        -11    1    4    4    0    0 -0.63629579467E+00 -0.10176430828E+02  0.10994957707E+02  0.14995122940E+02  0.51100000000E-03 0.  1.
         12    1    4    4    0    0  0.11919965041E+02 -0.33261566991E+01  0.84430081151E+01  0.14981097122E+02  0.00000000000E+00 0. -1.
</event>
<event>
 8    1  0.1244838E-006  0.9118800E+02  0.7816164E-02  0.1184000E+00
        -11   -1    0    0    0    0  0.00000000000E+00  0.00000000000E+00  0.45593999997E+02  0.45594000000E+02  0.51100000000E-03 0.  1.
         11   -1    0    0    0    0 -0.00000000000E+00 -0.00000000000E+00 -0.45593999997E+02  0.45594000000E+02  0.51100000000E-03 0. -1.
         23    2    1    2    0    0  0.35527136788E-14  0.00000000000E+00 -0.71054273576E-14  0.91188000000E+02  0.91188000000E+02 0.  0.
    9900012    2    3    3    0    0  0.66801786506E+01 -0.17923347876E+02 -0.31462828112E+02  0.54367072001E+02  0.39999972241E+02 0.  0.
        -12    1    3    3    0    0 -0.66801786506E+01  0.17923347876E+02  0.31462828112E+02  0.36820927999E+02  0.00000000000E+00 0.  1.
         11    1    4    4    0    0 -0.10636780243E+02 -0.42468938482E+01 -0.79697826541E+01  0.13953302015E+02  0.51100000000E-03 0. -1.
        -11    1    4    4    0    0  0.12506703829E+02  0.49715339596E+01 -0.76839540962E+01  0.15497643092E+02  0.51100000000E-03 0.  1.
         12    1    4    4    0    0  0.48102550645E+01 -0.18647987987E+02 -0.15809091362E+02  0.24916126895E+02  0.00000000000E+00 0. -1.
</event>
<event>
 8    1  0.1244838E-006  0.9118800E+02  0.7816164E-02  0.1184000E+00
        -11   -1    0    0    0    0  0.00000000000E+00  0.00000000000E+00  0.45593999997E+02  0.45594000000E+02  0.51100000000E-03 0.  1.
         11   -1    0    0    0    0 -0.00000000000E+00 -0.00000000000E+00 -0.45593999997E+02  0.45594000000E+02  0.51100000000E-03 0. -1.
         23    2    1    2    0    0 -0.35527136788E-14  0.35527136788E-14  0.00000000000E+00  0.91188000000E+02  0.91188000000E+02 0.  0.
    9900012    2    3    3    0    0 -0.16656566111E+02  0.17022821673E+02  0.28081324537E+02  0.54367103215E+02  0.40000043398E+02 0.  0.
         12    1    3    3    0    0  0.16656566111E+02 -0.17022821673E+02 -0.28081324537E+02  0.36820896785E+02  0.00000000000E+00 0. -1.
         11    1    4    4    0    0 -0.11707430086E+02  0.11747835644E+02  0.11870459329E+02  0.20395670287E+02  0.51100000000E-03 0.  1.
        -11    1    4    4    0    0  0.42822659796E+01 -0.78552796147E+01  0.15510135038E+02  0.17905516159E+02  0.51100000000E-03 0. -1.
         12    1    4    4    0    0 -0.92314020048E+01  0.13130265643E+02  0.70073017016E+00  0.16065916768E+02  0.00000000000E+00 0. -1.
</event>
<event>
 8    1  0.1244838E-006  0.9118800E+02  0.7816164E-02  0.1184000E+00
        -11   -1    0    0    0    0  0.00000000000E+00  0.00000000000E+00  0.45593999997E+02  0.45594000000E+02  0.51100000000E-03 0. -1.
         11   -1    0    0    0    0 -0.00000000000E+00 -0.00000000000E+00 -0.45593999997E+02  0.45594000000E+02  0.51100000000E-03 0.  1.
         23    2    1    2    0    0  0.00000000000E+00  0.35527136788E-14  0.00000000000E+00  0.91188000000E+02  0.91188000000E+02 0.  0.
    9900012    2    3    3    0    0 -0.19580594696E+02 -0.16742772557E+02 -0.26306997610E+02  0.54367105867E+02  0.40000049444E+02 0.  0.
         12    1    3    3    0    0  0.19580594696E+02  0.16742772557E+02  0.26306997610E+02  0.36820894133E+02  0.00000000000E+00 0. -1.
         11    1    4    4    0    0 -0.24723228001E+02 -0.79936781696E+01 -0.20067125599E+02  0.32830266881E+02  0.51100000000E-03 0.  1.
        -11    1    4    4    0    0  0.16517944726E+01  0.54987044604E+01 -0.31388581142E+01  0.65434399397E+01  0.51100000000E-03 0. -1.
        -12    1    4    4    0    0  0.34908388324E+01 -0.14247798847E+02 -0.31010138970E+01  0.14993399046E+02  0.00000000000E+00 0.  1.
</event>
<event>
 8    1  0.1244838E-006  0.9118800E+02  0.7816164E-02  0.1184000E+00
        -11   -1    0    0    0    0  0.00000000000E+00  0.00000000000E+00  0.45593999997E+02  0.45594000000E+02  0.51100000000E-03 0. -1.
         11   -1    0    0    0    0 -0.00000000000E+00 -0.00000000000E+00 -0.45593999997E+02  0.45594000000E+02  0.51100000000E-03 0.  1.
         23    2    1    2    0    0 -0.22204460493E-15  0.00000000000E+00  0.00000000000E+00  0.91188000000E+02  0.91188000000E+02 0.  0.
    9900012    2    3    3    0    0  0.16985449345E+01 -0.97195563312E+01 -0.35474284293E+02  0.54367086428E+02  0.40000005130E+02 0.  0.
         12    1    3    3    0    0 -0.16985449345E+01  0.97195563312E+01  0.35474284293E+02  0.36820913572E+02  0.00000000000E+00 0. -1.
         11    1    4    4    0    0  0.54140404079E+01  0.12325239402E+02 -0.10093253048E+02  0.16825490103E+02  0.51100000000E-03 0. -1.
        -11    1    4    4    0    0 -0.55248434930E+01 -0.13003380925E+02 -0.24496230063E+02  0.28278562528E+02  0.51100000000E-03 0.  1.
         12    1    4    4    0    0  0.18093480197E+01 -0.90414148083E+01 -0.88480118184E+00  0.92630337969E+01  0.00000000000E+00 0. -1.
</event>
<event>
 8    1  0.1244838E-006  0.9118800E+02  0.7816164E-02  0.1184000E+00
        -11   -1    0    0    0    0  0.00000000000E+00  0.00000000000E+00  0.45593999997E+02  0.45594000000E+02  0.51100000000E-03 0. -1.
         11   -1    0    0    0    0 -0.00000000000E+00 -0.00000000000E+00 -0.45593999997E+02  0.45594000000E+02  0.51100000000E-03 0.  1.
         23    2    1    2    0    0  0.71054273576E-14  0.26645352591E-14  0.44408920985E-15  0.91188000000E+02  0.91188000000E+02 0.  0.
    9900012    2    3    3    0    0 -0.36631696869E+02  0.22753416177E+01 -0.29530975775E+01  0.54367093163E+02  0.40000020484E+02 0.  0.
         12    1    3    3    0    0  0.36631696869E+02 -0.22753416177E+01  0.29530975775E+01  0.36820906837E+02  0.00000000000E+00 0. -1.
         11    1    4    4    0    0  0.29765978799E+01  0.37835725843E+01  0.15287258115E+01  0.50509958728E+01  0.51100000000E-03 0. -1.
        -11    1    4    4    0    0 -0.82756630139E+01  0.12279517631E+02 -0.25823020628E+01  0.15031348435E+02  0.51100000000E-03 0.  1.
        -12    1    4    4    0    0 -0.31332631735E+02 -0.13787748597E+02 -0.18995213263E+01  0.34284748856E+02  0.00000000000E+00 0.  1.
</event>
<event>
 8    1  0.1244838E-006  0.9118800E+02  0.7816164E-02  0.1184000E+00
        -11   -1    0    0    0    0  0.00000000000E+00  0.00000000000E+00  0.45593999997E+02  0.45594000000E+02  0.51100000000E-03 0.  1.
         11   -1    0    0    0    0 -0.00000000000E+00 -0.00000000000E+00 -0.45593999997E+02  0.45594000000E+02  0.51100000000E-03 0. -1.
         23    2    1    2    0    0  0.00000000000E+00 -0.88817841970E-15  0.35527136788E-14  0.91188000000E+02  0.91188000000E+02 0.  0.
    9900012    2    3    3    0    0  0.18078689547E+02  0.57459624648E+01  0.31558239482E+02  0.54367114899E+02  0.40000070036E+02 0.  0.
         12    1    3    3    0    0 -0.18078689547E+02 -0.57459624648E+01 -0.31558239482E+02  0.36820885101E+02  0.00000000000E+00 0. -1.
         11    1    4    4    0    0  0.83855759814E+01 -0.13081228155E+02  0.46963007312E+01  0.16232426048E+02  0.51100000000E-03 0. -1.
        -11    1    4    4    0    0  0.51919810988E+01 -0.13088823239E+01  0.17493623187E+01  0.56329485575E+01  0.51100000000E-03 0.  1.
        -12    1    4    4    0    0  0.45011324667E+01  0.20136072943E+02  0.25112576432E+02  0.32501740294E+02  0.00000000000E+00 0.  1.
</event>
<event>
 8    1  0.1244838E-006  0.9118800E+02  0.7816164E-02  0.1184000E+00
        -11   -1    0    0    0    0  0.00000000000E+00  0.00000000000E+00  0.45593999997E+02  0.45594000000E+02  0.51100000000E-03 0. -1.
         11   -1    0    0    0    0 -0.00000000000E+00 -0.00000000000E+00 -0.45593999997E+02  0.45594000000E+02  0.51100000000E-03 0.  1.
         23    2    1    2    0    0 -0.11102230246E-15  0.71054273576E-14 -0.66613381478E-15  0.91188000000E+02  0.91188000000E+02 0.  0.
    9900012    2    3    3    0    0  0.86146519486E+00  0.36802625426E+02 -0.77736115313E+00  0.54367086773E+02  0.40000005915E+02 0.  0.
         12    1    3    3    0    0 -0.86146519486E+00 -0.36802625426E+02  0.77736115313E+00  0.36820913227E+02  0.00000000000E+00 0. -1.
         11    1    4    4    0    0 -0.29575589688E+01  0.29576662977E+01  0.61248974054E+01  0.74168263746E+01  0.51100000000E-03 0. -1.
        -11    1    4    4    0    0  0.20376659600E+01 -0.29187628972E+01  0.68002150809E+01  0.76755576229E+01  0.51100000000E-03 0.  1.
        -12    1    4    4    0    0  0.17813582036E+01  0.36763722026E+02 -0.13702473639E+02  0.39274702775E+02  0.00000000000E+00 0.  1.
</event>
<event>
 8    1  0.1244838E-006  0.9118800E+02  0.7816164E-02  0.1184000E+00
        -11   -1    0    0    0    0  0.00000000000E+00  0.00000000000E+00  0.45593999997E+02  0.45594000000E+02  0.51100000000E-03 0. -1.
         11   -1    0    0    0    0 -0.00000000000E+00 -0.00000000000E+00 -0.45593999997E+02  0.45594000000E+02  0.51100000000E-03 0.  1.
         23    2    1    2    0    0  0.00000000000E+00  0.83266726847E-15  0.00000000000E+00  0.91188000000E+02  0.91188000000E+02 0.  0.
    9900012    2    3    3    0    0 -0.32147855559E+02  0.33735878052E+00 -0.17949458602E+02  0.54367061771E+02  0.39999948918E+02 0.  0.
        -12    1    3    3    0    0  0.32147855559E+02 -0.33735878052E+00  0.17949458602E+02  0.36820938229E+02  0.00000000000E+00 0.  1.
         11    1    4    4    0    0 -0.69492290585E+01  0.15911455062E+02 -0.91807147899E+01  0.19640562900E+02  0.51100000000E-03 0. -1.
        -11    1    4    4    0    0 -0.21695083878E+00 -0.69959819787E+01 -0.36667659307E+00  0.70089431085E+01  0.51100000000E-03 0.  1.
        -12    1    4    4    0    0 -0.24981675662E+02 -0.85781143033E+01 -0.84020672191E+01  0.27717555762E+02  0.00000000000E+00 0.  1.
</event>
<event>
 8    1  0.1244838E-006  0.9118800E+02  0.7816164E-02  0.1184000E+00
        -11   -1    0    0    0    0  0.00000000000E+00  0.00000000000E+00  0.45593999997E+02  0.45594000000E+02  0.51100000000E-03 0. -1.
         11   -1    0    0    0    0 -0.00000000000E+00 -0.00000000000E+00 -0.45593999997E+02  0.45594000000E+02  0.51100000000E-03 0.  1.
         23    2    1    2    0    0  0.00000000000E+00 -0.71054273576E-14 -0.88817841970E-15  0.91188000000E+02  0.91188000000E+02 0.  0.
    9900012    2    3    3    0    0 -0.82172188308E+01 -0.35496408738E+02 -0.53161850173E+01  0.54367088255E+02  0.40000009295E+02 0.  0.
         12    1    3    3    0    0  0.82172188308E+01  0.35496408738E+02  0.53161850173E+01  0.36820911745E+02  0.00000000000E+00 0. -1.
         11    1    4    4    0    0 -0.47043778658E+01  0.72857879002E+01  0.21047821814E+01  0.89243478598E+01  0.51100000000E-03 0. -1.
        -11    1    4    4    0    0  0.14551649801E+01 -0.18382021022E+02  0.25594135545E+01  0.18616304681E+02  0.51100000000E-03 0.  1.
        -12    1    4    4    0    0 -0.49680059450E+01 -0.24400175616E+02 -0.99803807532E+01  0.26826435714E+02  0.00000000000E+00 0.  1.
</event>
<event>
 8    1  0.1244838E-006  0.9118800E+02  0.7816164E-02  0.1184000E+00
        -11   -1    0    0    0    0  0.00000000000E+00  0.00000000000E+00  0.45593999997E+02  0.45594000000E+02  0.51100000000E-03 0. -1.
         11   -1    0    0    0    0 -0.00000000000E+00 -0.00000000000E+00 -0.45593999997E+02  0.45594000000E+02  0.51100000000E-03 0.  1.
         23    2    1    2    0    0  0.35527136788E-14 -0.35527136788E-14  0.35527136788E-14  0.91188000000E+02  0.91188000000E+02 0.  0.
    9900012    2    3    3    0    0  0.18942654248E+02 -0.24905988678E+02  0.19407414554E+02  0.54367079837E+02  0.39999990104E+02 0.  0.
        -12    1    3    3    0    0 -0.18942654248E+02  0.24905988678E+02 -0.19407414554E+02  0.36820920163E+02  0.00000000000E+00 0.  1.
         11    1    4    4    0    0  0.17177395683E+02 -0.12532830586E+02  0.27034106082E+02  0.34394442238E+02  0.51100000000E-03 0. -1.
        -11    1    4    4    0    0 -0.10256538296E+01  0.16732715294E+01  0.19325100116E+01  0.27543417717E+01  0.51100000000E-03 0.  1.
        -12    1    4    4    0    0  0.27909123946E+01 -0.14046429621E+02 -0.95592015401E+01  0.17218295827E+02  0.00000000000E+00 0.  1.
</event>
<event>
 8    1  0.1244838E-006  0.9118800E+02  0.7816164E-02  0.1184000E+00
        -11   -1    0    0    0    0  0.00000000000E+00  0.00000000000E+00  0.45593999997E+02  0.45594000000E+02  0.51100000000E-03 0.  1.
         11   -1    0    0    0    0 -0.00000000000E+00 -0.00000000000E+00 -0.45593999997E+02  0.45594000000E+02  0.51100000000E-03 0. -1.
         23    2    1    2    0    0  0.00000000000E+00  0.00000000000E+00  0.00000000000E+00  0.91188000000E+02  0.91188000000E+02 0.  0.
    9900012    2    3    3    0    0 -0.14218875827E+02 -0.10568686225E+02 -0.32278562543E+02  0.54367093464E+02  0.40000021170E+02 0.  0.
        -12    1    3    3    0    0  0.14218875827E+02  0.10568686225E+02  0.32278562543E+02  0.36820906536E+02  0.00000000000E+00 0.  1.
         11    1    4    4    0    0 -0.71744336253E+01  0.43304658303E+01 -0.16938165067E+02  0.18897800619E+02  0.51100000000E-03 0. -1.
        -11    1    4    4    0    0 -0.99346753411E+01 -0.18773973668E+02 -0.19692563431E+02  0.28964752997E+02  0.51100000000E-03 0.  1.
        -12    1    4    4    0    0  0.28902331397E+01  0.38748216133E+01  0.43521659549E+01  0.65045398481E+01  0.00000000000E+00 0.  1.
</event>
<event>
 8    1  0.1244838E-006  0.9118800E+02  0.7816164E-02  0.1184000E+00
        -11   -1    0    0    0    0  0.00000000000E+00  0.00000000000E+00  0.45593999997E+02  0.45594000000E+02  0.51100000000E-03 0.  1.
         11   -1    0    0    0    0 -0.00000000000E+00 -0.00000000000E+00 -0.45593999997E+02  0.45594000000E+02  0.51100000000E-03 0. -1.
         23    2    1    2    0    0  0.00000000000E+00 -0.44408920985E-15  0.00000000000E+00  0.91188000000E+02  0.91188000000E+02 0.  0.
    9900012    2    3    3    0    0  0.66307365638E+01 -0.38523007846E+01 -0.36013428904E+02  0.54367164185E+02  0.40000182392E+02 0.  0.
        -12    1    3    3    0    0 -0.66307365638E+01  0.38523007846E+01  0.36013428904E+02  0.36820835815E+02  0.00000000000E+00 0.  1.
         11    1    4    4    0    0  0.12768512913E+02 -0.60812091727E+01 -0.38490360596E+01  0.14657117925E+02  0.51100000000E-03 0. -1.
        -11    1    4    4    0    0  0.29550101998E+01 -0.86245465201E+01 -0.11967379156E+02  0.15044369448E+02  0.51100000000E-03 0.  1.
        -12    1    4    4    0    0 -0.90927865490E+01  0.10853454908E+02 -0.20197013688E+02  0.24665676812E+02  0.00000000000E+00 0.  1.
</event>
<event>
 8    1  0.1244838E-006  0.9118800E+02  0.7816164E-02  0.1184000E+00
        -11   -1    0    0    0    0  0.00000000000E+00  0.00000000000E+00  0.45593999997E+02  0.45594000000E+02  0.51100000000E-03 0. -1.
         11   -1    0    0    0    0 -0.00000000000E+00 -0.00000000000E+00 -0.45593999997E+02  0.45594000000E+02  0.51100000000E-03 0.  1.
         23    2    1    2    0    0  0.00000000000E+00  0.00000000000E+00  0.00000000000E+00  0.91188000000E+02  0.91188000000E+02 0.  0.
    9900012    2    3    3    0    0  0.11607566282E+02 -0.12456604911E+02 -0.32647749973E+02  0.54367106757E+02  0.40000051474E+02 0.  0.
         12    1    3    3    0    0 -0.11607566282E+02  0.12456604911E+02  0.32647749973E+02  0.36820893243E+02  0.00000000000E+00 0. -1.
         11    1    4    4    0    0  0.13774620131E+02 -0.29345543247E+01 -0.20673768010E+01  0.14234669506E+02  0.51100000000E-03 0. -1.
        -11    1    4    4    0    0 -0.12446200598E+02 -0.80075761024E+00 -0.15769110435E+02  0.20105073147E+02  0.51100000000E-03 0.  1.
        -12    1    4    4    0    0  0.10279146749E+02 -0.87212929763E+01 -0.14811262737E+02  0.20027364104E+02  0.00000000000E+00 0.  1.
</event>
<event>
 8    1  0.1244838E-006  0.9118800E+02  0.7816164E-02  0.1184000E+00
        -11   -1    0    0    0    0  0.00000000000E+00  0.00000000000E+00  0.45593999997E+02  0.45594000000E+02  0.51100000000E-03 0.  1.
         11   -1    0    0    0    0 -0.00000000000E+00 -0.00000000000E+00 -0.45593999997E+02  0.45594000000E+02  0.51100000000E-03 0. -1.
         23    2    1    2    0    0  0.11102230246E-15  0.35527136788E-14  0.35527136788E-14  0.91188000000E+02  0.91188000000E+02 0.  0.
    9900012    2    3    3    0    0 -0.75520576633E+00 -0.27165832475E+02 -0.24844051946E+02  0.54367086013E+02  0.40000004183E+02 0.  0.
         12    1    3    3    0    0  0.75520576633E+00  0.27165832475E+02  0.24844051946E+02  0.36820913987E+02  0.00000000000E+00 0. -1.
         11    1    4    4    0    0  0.77345948933E+01 -0.21534497759E+01 -0.25349502082E+01  0.84194582320E+01  0.51100000000E-03 0. -1.
        -11    1    4    4    0    0  0.84166789266E+01 -0.21131423023E+02 -0.14051951854E+02  0.26736396061E+02  0.51100000000E-03 0.  1.
         12    1    4    4    0    0 -0.16906479586E+02 -0.38809596752E+01 -0.82571498832E+01  0.19211231720E+02  0.00000000000E+00 0. -1.
</event>
<event>
 8    1  0.1244838E-006  0.9118800E+02  0.7816164E-02  0.1184000E+00
        -11   -1    0    0    0    0  0.00000000000E+00  0.00000000000E+00  0.45593999997E+02  0.45594000000E+02  0.51100000000E-03 0.  1.
         11   -1    0    0    0    0 -0.00000000000E+00 -0.00000000000E+00 -0.45593999997E+02  0.45594000000E+02  0.51100000000E-03 0. -1.
         23    2    1    2    0    0 -0.35527136788E-14  0.00000000000E+00 -0.71054273576E-14  0.91188000000E+02  0.91188000000E+02 0.  0.
    9900012    2    3    3    0    0  0.18125486476E+02  0.12996196363E+02 -0.29297528714E+02  0.54367087889E+02  0.40000008461E+02 0.  0.
        -12    1    3    3    0    0 -0.18125486476E+02 -0.12996196363E+02  0.29297528714E+02  0.36820912111E+02  0.00000000000E+00 0.  1.
         11    1    4    4    0    0 -0.33300048786E+00  0.12213359471E+01  0.46628824618E+01  0.48316688560E+01  0.51100000000E-03 0. -1.
        -11    1    4    4    0    0  0.13977776551E+02  0.98086931973E+01 -0.19886324598E+01  0.17191374549E+02  0.51100000000E-03 0.  1.
         12    1    4    4    0    0  0.44807104127E+01  0.19661672189E+01 -0.31971778716E+02  0.32344044484E+02  0.00000000000E+00 0. -1.
</event>
<event>
 8    1  0.1244838E-006  0.9118800E+02  0.7816164E-02  0.1184000E+00
        -11   -1    0    0    0    0  0.00000000000E+00  0.00000000000E+00  0.45593999997E+02  0.45594000000E+02  0.51100000000E-03 0.  1.
         11   -1    0    0    0    0 -0.00000000000E+00 -0.00000000000E+00 -0.45593999997E+02  0.45594000000E+02  0.51100000000E-03 0. -1.
         23    2    1    2    0    0  0.00000000000E+00  0.17763568394E-14 -0.71054273576E-14  0.91188000000E+02  0.91188000000E+02 0.  0.
    9900012    2    3    3    0    0  0.58965052528E+01  0.84049558207E+01 -0.35360522800E+02  0.54367100646E+02  0.40000037542E+02 0.  0.
        -12    1    3    3    0    0 -0.58965052528E+01 -0.84049558207E+01  0.35360522800E+02  0.36820899354E+02  0.00000000000E+00 0.  1.
         11    1    4    4    0    0 -0.19730514889E+01  0.31342808586E+01 -0.52703546146E+01  0.64415282894E+01  0.51100000000E-03 0. -1.
        -11    1    4    4    0    0 -0.13859347068E+01  0.15220813452E+02 -0.41788692899E+00  0.15289493350E+02  0.51100000000E-03 0.  1.
         12    1    4    4    0    0  0.92554914485E+01 -0.99501384901E+01 -0.29672281257E+02  0.32636079006E+02  0.00000000000E+00 0. -1.
</event>
<event>
 8    1  0.1244838E-006  0.9118800E+02  0.7816164E-02  0.1184000E+00
        -11   -1    0    0    0    0  0.00000000000E+00  0.00000000000E+00  0.45593999997E+02  0.45594000000E+02  0.51100000000E-03 0.  1.
         11   -1    0    0    0    0 -0.00000000000E+00 -0.00000000000E+00 -0.45593999997E+02  0.45594000000E+02  0.51100000000E-03 0. -1.
         23    2    1    2    0    0 -0.35527136788E-14 -0.35527136788E-14 -0.35527136788E-14  0.91188000000E+02  0.91188000000E+02 0.  0.
    9900012    2    3    3    0    0 -0.24363386739E+02 -0.21577081301E+02 -0.17222977361E+02  0.54367136348E+02  0.40000118933E+02 0.  0.
        -12    1    3    3    0    0  0.24363386739E+02  0.21577081301E+02  0.17222977361E+02  0.36820863652E+02  0.00000000000E+00 0.  1.
         11    1    4    4    0    0 -0.20686626606E+01 -0.15671227302E+02 -0.22379021647E+02  0.27398674064E+02  0.51100000000E-03 0. -1.
        -11    1    4    4    0    0 -0.36725135837E+01  0.43270768018E+00 -0.38457813559E+01  0.53352250616E+01  0.51100000000E-03 0.  1.
        -12    1    4    4    0    0 -0.18622210495E+02 -0.63385616795E+01  0.90018256411E+01  0.21633237223E+02  0.00000000000E+00 0.  1.
</event>
<event>
 8    1  0.1244838E-006  0.9118800E+02  0.7816164E-02  0.1184000E+00
        -11   -1    0    0    0    0  0.00000000000E+00  0.00000000000E+00  0.45593999997E+02  0.45594000000E+02  0.51100000000E-03 0.  1.
         11   -1    0    0    0    0 -0.00000000000E+00 -0.00000000000E+00 -0.45593999997E+02  0.45594000000E+02  0.51100000000E-03 0. -1.
         23    2    1    2    0    0  0.35527136788E-14  0.71054273576E-14  0.00000000000E+00  0.91188000000E+02  0.91188000000E+02 0.  0.
    9900012    2    3    3    0    0  0.17795902341E+02  0.30077046867E+02 -0.11595614974E+02  0.54367066076E+02  0.39999958734E+02 0.  0.
         12    1    3    3    0    0 -0.17795902341E+02 -0.30077046867E+02  0.11595614974E+02  0.36820933924E+02  0.00000000000E+00 0. -1.
         11    1    4    4    0    0 -0.47033474122E+01 -0.30008136230E+01  0.23318953491E+01  0.60468252381E+01  0.51100000000E-03 0. -1.
        -11    1    4    4    0    0  0.95827131789E+01  0.75706198674E+01 -0.15443738743E+02  0.19688873601E+02  0.51100000000E-03 0.  1.
         12    1    4    4    0    0  0.12916536574E+02  0.25507240623E+02  0.15162284198E+01  0.28631367238E+02  0.00000000000E+00 0. -1.
</event>
<event>
 8    1  0.1244838E-006  0.9118800E+02  0.7816164E-02  0.1184000E+00
        -11   -1    0    0    0    0  0.00000000000E+00  0.00000000000E+00  0.45593999997E+02  0.45594000000E+02  0.51100000000E-03 0.  1.
         11   -1    0    0    0    0 -0.00000000000E+00 -0.00000000000E+00 -0.45593999997E+02  0.45594000000E+02  0.51100000000E-03 0. -1.
         23    2    1    2    0    0  0.00000000000E+00  0.13322676296E-14  0.35527136788E-14  0.91188000000E+02  0.91188000000E+02 0.  0.
    9900012    2    3    3    0    0 -0.30865833740E+02  0.38013032998E+01  0.19713862369E+02  0.54367000981E+02  0.39999810336E+02 0.  0.
         12    1    3    3    0    0  0.30865833740E+02 -0.38013032998E+01 -0.19713862369E+02  0.36820999019E+02  0.00000000000E+00 0. -1.
         11    1    4    4    0    0  0.73945162339E+01 -0.29706094726E+01  0.67370920692E+01  0.10435123420E+02  0.51100000000E-03 0. -1.
        -11    1    4    4    0    0 -0.54502838326E+01 -0.12969781779E+01  0.80192432760E+01  0.97824337070E+01  0.51100000000E-03 0.  1.
        -12    1    4    4    0    0 -0.32810066142E+02  0.80688909503E+01  0.49575270236E+01  0.34149443854E+02  0.00000000000E+00 0.  1.
</event>
<event>
 8    1  0.1244838E-006  0.9118800E+02  0.7816164E-02  0.1184000E+00
        -11   -1    0    0    0    0  0.00000000000E+00  0.00000000000E+00  0.45593999997E+02  0.45594000000E+02  0.51100000000E-03 0.  1.
         11   -1    0    0    0    0 -0.00000000000E+00 -0.00000000000E+00 -0.45593999997E+02  0.45594000000E+02  0.51100000000E-03 0. -1.
         23    2    1    2    0    0  0.00000000000E+00  0.00000000000E+00  0.00000000000E+00  0.91188000000E+02  0.91188000000E+02 0.  0.
    9900012    2    3    3    0    0  0.66165918751E+01 -0.35171703216E+02  0.86574757188E+01  0.54367083648E+02  0.39999998793E+02 0.  0.
         12    1    3    3    0    0 -0.66165918751E+01  0.35171703216E+02 -0.86574757188E+01  0.36820916352E+02  0.00000000000E+00 0. -1.
         11    1    4    4    0    0 -0.27621158816E+01 -0.42290052125E+01 -0.10169688713E+02  0.11355013783E+02  0.51100000000E-03 0. -1.
        -11    1    4    4    0    0 -0.57302491540E+01 -0.12375278718E+02  0.11879816610E+02  0.18086274399E+02  0.51100000000E-03 0.  1.
        -12    1    4    4    0    0  0.15108956911E+02 -0.18567419286E+02  0.69473478218E+01  0.24925795466E+02  0.00000000000E+00 0.  1.
</event>
<event>
 8    1  0.1244838E-006  0.9118800E+02  0.7816164E-02  0.1184000E+00
        -11   -1    0    0    0    0  0.00000000000E+00  0.00000000000E+00  0.45593999997E+02  0.45594000000E+02  0.51100000000E-03 0.  1.
         11   -1    0    0    0    0 -0.00000000000E+00 -0.00000000000E+00 -0.45593999997E+02  0.45594000000E+02  0.51100000000E-03 0. -1.
         23    2    1    2    0    0  0.00000000000E+00  0.17763568394E-14 -0.35527136788E-14  0.91188000000E+02  0.91188000000E+02 0.  0.
    9900012    2    3    3    0    0  0.28205716970E+02  0.12930782607E+02 -0.19824550813E+02  0.54367076281E+02  0.39999981997E+02 0.  0.
        -12    1    3    3    0    0 -0.28205716970E+02 -0.12930782607E+02  0.19824550813E+02  0.36820923719E+02  0.00000000000E+00 0.  1.
         11    1    4    4    0    0  0.10153043933E+02  0.81692396538E+01 -0.18034682685E+02  0.22250181066E+02  0.51100000000E-03 0. -1.
        -11    1    4    4    0    0  0.11090256435E+02 -0.69739937355E+01 -0.97396744796E+01  0.16324571530E+02  0.51100000000E-03 0.  1.
        -12    1    4    4    0    0  0.69624166020E+01  0.11735536689E+02  0.79498063524E+01  0.15792323685E+02  0.00000000000E+00 0.  1.
</event>
<event>
 8    1  0.1244838E-006  0.9118800E+02  0.7816164E-02  0.1184000E+00
        -11   -1    0    0    0    0  0.00000000000E+00  0.00000000000E+00  0.45593999997E+02  0.45594000000E+02  0.51100000000E-03 0. -1.
         11   -1    0    0    0    0 -0.00000000000E+00 -0.00000000000E+00 -0.45593999997E+02  0.45594000000E+02  0.51100000000E-03 0.  1.
         23    2    1    2    0    0  0.71054273576E-14 -0.88817841970E-15  0.00000000000E+00  0.91188000000E+02  0.91188000000E+02 0.  0.
    9900012    2    3    3    0    0  0.34550486721E+02  0.54230542074E+01  0.11516752578E+02  0.54367065200E+02  0.39999956737E+02 0.  0.
        -12    1    3    3    0    0 -0.34550486721E+02 -0.54230542074E+01 -0.11516752578E+02  0.36820934800E+02  0.00000000000E+00 0.  1.
         11    1    4    4    0    0  0.57447328684E+01 -0.54185921582E+01  0.23524156375E+00  0.79005338782E+01  0.51100000000E-03 0.  1.
        -11    1    4    4    0    0 -0.13514136619E+01  0.13293722101E+02  0.90276706448E+01  0.16126010161E+02  0.51100000000E-03 0. -1.
        -12    1    4    4    0    0  0.30157167514E+02 -0.24520757356E+01  0.22538403699E+01  0.30340521161E+02  0.00000000000E+00 0.  1.
</event>
<event>
 8    1  0.1244838E-006  0.9118800E+02  0.7816164E-02  0.1184000E+00
        -11   -1    0    0    0    0  0.00000000000E+00  0.00000000000E+00  0.45593999997E+02  0.45594000000E+02  0.51100000000E-03 0. -1.
         11   -1    0    0    0    0 -0.00000000000E+00 -0.00000000000E+00 -0.45593999997E+02  0.45594000000E+02  0.51100000000E-03 0.  1.
         23    2    1    2    0    0  0.00000000000E+00  0.71054273576E-14  0.17763568394E-14  0.91188000000E+02  0.91188000000E+02 0.  0.
    9900012    2    3    3    0    0 -0.10366254070E+02  0.32030287793E+02  0.14912307935E+02  0.54367143309E+02  0.40000134800E+02 0.  0.
        -12    1    3    3    0    0  0.10366254070E+02 -0.32030287793E+02 -0.14912307935E+02  0.36820856691E+02  0.00000000000E+00 0.  1.
         11    1    4    4    0    0 -0.69642692732E+01  0.72871381761E+00  0.51701604622E+01  0.87041731258E+01  0.51100000000E-03 0. -1.
        -11    1    4    4    0    0 -0.98273359918E+01  0.11744845339E+02  0.17867457480E+02  0.23532189906E+02  0.51100000000E-03 0.  1.
        -12    1    4    4    0    0  0.64253511945E+01  0.19556728636E+02 -0.81253100074E+01  0.22130780276E+02  0.00000000000E+00 0.  1.
</event>
<event>
 8    1  0.1244838E-006  0.9118800E+02  0.7816164E-02  0.1184000E+00
        -11   -1    0    0    0    0  0.00000000000E+00  0.00000000000E+00  0.45593999997E+02  0.45594000000E+02  0.51100000000E-03 0. -1.
         11   -1    0    0    0    0 -0.00000000000E+00 -0.00000000000E+00 -0.45593999997E+02  0.45594000000E+02  0.51100000000E-03 0.  1.
         23    2    1    2    0    0  0.00000000000E+00 -0.66613381478E-15  0.00000000000E+00  0.91188000000E+02  0.91188000000E+02 0.  0.
    9900012    2    3    3    0    0  0.28718194022E+02  0.19266855297E+01 -0.22963741840E+02  0.54367078986E+02  0.39999988165E+02 0.  0.
         12    1    3    3    0    0 -0.28718194022E+02 -0.19266855297E+01  0.22963741840E+02  0.36820921014E+02  0.00000000000E+00 0. -1.
         11    1    4    4    0    0  0.30641798424E+02 -0.89769652943E+01 -0.18587495391E+02  0.36945915900E+02  0.51100000000E-03 0. -1.
        -11    1    4    4    0    0 -0.48457014962E+01  0.65328319197E+01 -0.77005250838E+01  0.11200750096E+02  0.51100000000E-03 0.  1.
        -12    1    4    4    0    0  0.29220970944E+01  0.43708189042E+01  0.33242786353E+01  0.62204129902E+01  0.00000000000E+00 0.  1.
</event>
<event>
 8    1  0.1244838E-006  0.9118800E+02  0.7816164E-02  0.1184000E+00
        -11   -1    0    0    0    0  0.00000000000E+00  0.00000000000E+00  0.45593999997E+02  0.45594000000E+02  0.51100000000E-03 0. -1.
         11   -1    0    0    0    0 -0.00000000000E+00 -0.00000000000E+00 -0.45593999997E+02  0.45594000000E+02  0.51100000000E-03 0.  1.
         23    2    1    2    0    0  0.00000000000E+00  0.00000000000E+00  0.71054273576E-14  0.91188000000E+02  0.91188000000E+02 0.  0.
    9900012    2    3    3    0    0  0.29110101922E+01  0.99383438265E+01 -0.35334622983E+02  0.54367078777E+02  0.39999987688E+02 0.  0.
         12    1    3    3    0    0 -0.29110101922E+01 -0.99383438265E+01  0.35334622983E+02  0.36820921223E+02  0.00000000000E+00 0. -1.
         11    1    4    4    0    0 -0.45167829243E+01 -0.54192707546E+01  0.12732543516E+01  0.71687516627E+01  0.51100000000E-03 0. -1.
        -11    1    4    4    0    0 -0.72179088386E+01 -0.15592287839E+01 -0.81653969570E+01  0.11009228408E+02  0.51100000000E-03 0.  1.
        -12    1    4    4    0    0  0.14645701955E+02  0.16916843365E+02 -0.28442480378E+02  0.36189098707E+02  0.00000000000E+00 0.  1.
</event>
<event>
 8    1  0.1244838E-006  0.9118800E+02  0.7816164E-02  0.1184000E+00
        -11   -1    0    0    0    0  0.00000000000E+00  0.00000000000E+00  0.45593999997E+02  0.45594000000E+02  0.51100000000E-03 0.  1.
         11   -1    0    0    0    0 -0.00000000000E+00 -0.00000000000E+00 -0.45593999997E+02  0.45594000000E+02  0.51100000000E-03 0. -1.
         23    2    1    2    0    0  0.00000000000E+00  0.26645352591E-14  0.71054273576E-14  0.91188000000E+02  0.91188000000E+02 0.  0.
    9900012    2    3    3    0    0 -0.12274983661E+02 -0.62006163192E+01 -0.34156261818E+02  0.54367175892E+02  0.40000209079E+02 0.  0.
        -12    1    3    3    0    0  0.12274983661E+02  0.62006163192E+01  0.34156261818E+02  0.36820824108E+02  0.00000000000E+00 0.  1.
         11    1    4    4    0    0 -0.24614518127E+01 -0.27974204481E+01 -0.14086522654E+02  0.14571013243E+02  0.51100000000E-03 0. -1.
        -11    1    4    4    0    0 -0.34912328737E+01  0.61368646481E+01 -0.25975116749E+02  0.26917587282E+02  0.51100000000E-03 0.  1.
        -12    1    4    4    0    0 -0.63222989746E+01 -0.95400605193E+01  0.59053775851E+01  0.12878575366E+02  0.00000000000E+00 0.  1.
</event>
<event>
 8    1  0.1244838E-006  0.9118800E+02  0.7816164E-02  0.1184000E+00
        -11   -1    0    0    0    0  0.00000000000E+00  0.00000000000E+00  0.45593999997E+02  0.45594000000E+02  0.51100000000E-03 0.  1.
         11   -1    0    0    0    0 -0.00000000000E+00 -0.00000000000E+00 -0.45593999997E+02  0.45594000000E+02  0.51100000000E-03 0. -1.
         23    2    1    2    0    0  0.00000000000E+00 -0.22204460493E-15 -0.13322676296E-14  0.91188000000E+02  0.91188000000E+02 0.  0.
    9900012    2    3    3    0    0  0.36651248080E+02  0.44781281249E+00  0.35015942581E+01  0.54367140634E+02  0.40000128703E+02 0.  0.
        -12    1    3    3    0    0 -0.36651248080E+02 -0.44781281249E+00 -0.35015942581E+01  0.36820859366E+02  0.00000000000E+00 0.  1.
         11    1    4    4    0    0  0.24326722329E+02  0.61641600508E+01  0.16225305708E+02  0.29883889205E+02  0.51100000000E-03 0. -1.
        -11    1    4    4    0    0  0.47811247385E+00  0.38386017300E+01  0.99405460674E+00  0.39939453679E+01  0.51100000000E-03 0.  1.
         12    1    4    4    0    0  0.11846413276E+02 -0.95549489684E+01 -0.13717766056E+02  0.20489306061E+02  0.00000000000E+00 0. -1.
</event>
<event>
 8    1  0.1244838E-006  0.9118800E+02  0.7816164E-02  0.1184000E+00
        -11   -1    0    0    0    0  0.00000000000E+00  0.00000000000E+00  0.45593999997E+02  0.45594000000E+02  0.51100000000E-03 0. -1.
         11   -1    0    0    0    0 -0.00000000000E+00 -0.00000000000E+00 -0.45593999997E+02  0.45594000000E+02  0.51100000000E-03 0.  1.
         23    2    1    2    0    0  0.00000000000E+00  0.35527136788E-14  0.00000000000E+00  0.91188000000E+02  0.91188000000E+02 0.  0.
    9900012    2    3    3    0    0 -0.98244705719E+01  0.27219256833E+02 -0.22767755127E+02  0.54367097810E+02  0.40000031078E+02 0.  0.
         12    1    3    3    0    0  0.98244705719E+01 -0.27219256833E+02  0.22767755127E+02  0.36820902190E+02  0.00000000000E+00 0. -1.
         11    1    4    4    0    0 -0.88810951910E+01 -0.58924472314E+00  0.52095500827E+01  0.10313121422E+02  0.51100000000E-03 0. -1.
        -11    1    4    4    0    0  0.27372207130E+01  0.69863103108E+00 -0.12092843500E+02  0.12418426902E+02  0.51100000000E-03 0.  1.
         12    1    4    4    0    0 -0.36805960939E+01  0.27109870525E+02 -0.15884461710E+02  0.31635549486E+02  0.00000000000E+00 0. -1.
</event>
<event>
 8    1  0.1244838E-006  0.9118800E+02  0.7816164E-02  0.1184000E+00
        -11   -1    0    0    0    0  0.00000000000E+00  0.00000000000E+00  0.45593999997E+02  0.45594000000E+02  0.51100000000E-03 0. -1.
         11   -1    0    0    0    0 -0.00000000000E+00 -0.00000000000E+00 -0.45593999997E+02  0.45594000000E+02  0.51100000000E-03 0.  1.
         23    2    1    2    0    0  0.44408920985E-15  0.10658141036E-13  0.00000000000E+00  0.91188000000E+02  0.91188000000E+02 0.  0.
    9900012    2    3    3    0    0 -0.23502328923E+01 -0.29260848978E+02  0.22227412853E+02  0.54367098875E+02  0.40000033504E+02 0.  0.
        -12    1    3    3    0    0  0.23502328923E+01  0.29260848978E+02 -0.22227412853E+02  0.36820901125E+02  0.00000000000E+00 0.  1.
         11    1    4    4    0    0  0.11914400218E+01 -0.32533161615E+01  0.20219244887E+01  0.40114553807E+01  0.51100000000E-03 0. -1.
        -11    1    4    4    0    0 -0.88088513568E+01 -0.32030538024E+02  0.55807786457E+01  0.33685253731E+02  0.51100000000E-03 0.  1.
         12    1    4    4    0    0  0.52671784427E+01  0.60230052084E+01  0.14624709719E+02  0.16670389763E+02  0.00000000000E+00 0. -1.
</event>
<event>
 8    1  0.1244838E-006  0.9118800E+02  0.7816164E-02  0.1184000E+00
        -11   -1    0    0    0    0  0.00000000000E+00  0.00000000000E+00  0.45593999997E+02  0.45594000000E+02  0.51100000000E-03 0.  1.
         11   -1    0    0    0    0 -0.00000000000E+00 -0.00000000000E+00 -0.45593999997E+02  0.45594000000E+02  0.51100000000E-03 0. -1.
         23    2    1    2    0    0  0.00000000000E+00  0.88817841970E-15  0.00000000000E+00  0.91188000000E+02  0.91188000000E+02 0.  0.
    9900012    2    3    3    0    0 -0.31220499089E+02  0.70379169663E+01 -0.18207900178E+02  0.54367089263E+02  0.40000011593E+02 0.  0.
        -12    1    3    3    0    0  0.31220499089E+02 -0.70379169663E+01  0.18207900178E+02  0.36820910737E+02  0.00000000000E+00 0.  1.
         11    1    4    4    0    0 -0.35473411453E+02 -0.11295640372E+00 -0.91298643501E+01  0.36629634213E+02  0.51100000000E-03 0.  1.
        -11    1    4    4    0    0  0.44105266143E+01  0.31337376207E+01 -0.11732509785E+02  0.12919939729E+02  0.51100000000E-03 0. -1.
        -12    1    4    4    0    0 -0.15761425008E+00  0.40171357493E+01  0.26544739567E+01  0.48175153209E+01  0.00000000000E+00 0.  1.
</event>
<event>
 8    1  0.1244838E-006  0.9118800E+02  0.7816164E-02  0.1184000E+00
        -11   -1    0    0    0    0  0.00000000000E+00  0.00000000000E+00  0.45593999997E+02  0.45594000000E+02  0.51100000000E-03 0. -1.
         11   -1    0    0    0    0 -0.00000000000E+00 -0.00000000000E+00 -0.45593999997E+02  0.45594000000E+02  0.51100000000E-03 0.  1.
         23    2    1    2    0    0  0.00000000000E+00  0.00000000000E+00  0.00000000000E+00  0.91188000000E+02  0.91188000000E+02 0.  0.
    9900012    2    3    3    0    0 -0.28035025517E+02 -0.16634671602E+02  0.17120314512E+02  0.54367080348E+02  0.39999991269E+02 0.  0.
        -12    1    3    3    0    0  0.28035025517E+02  0.16634671602E+02 -0.17120314512E+02  0.36820919652E+02  0.00000000000E+00 0.  1.
         11    1    4    4    0    0 -0.90208456251E+01 -0.57275919516E+00 -0.43394330495E+01  0.10026683816E+02  0.51100000000E-03 0. -1.
        -11    1    4    4    0    0 -0.13194979842E+02 -0.67075729308E+01 -0.50443262561E+01  0.15637910835E+02  0.51100000000E-03 0.  1.
        -12    1    4    4    0    0 -0.58192000499E+01 -0.93543394756E+01  0.26504073818E+02  0.28702485697E+02  0.00000000000E+00 0.  1.
</event>
<event>
 8    1  0.1244838E-006  0.9118800E+02  0.7816164E-02  0.1184000E+00
        -11   -1    0    0    0    0  0.00000000000E+00  0.00000000000E+00  0.45593999997E+02  0.45594000000E+02  0.51100000000E-03 0. -1.
         11   -1    0    0    0    0 -0.00000000000E+00 -0.00000000000E+00 -0.45593999997E+02  0.45594000000E+02  0.51100000000E-03 0.  1.
         23    2    1    2    0    0  0.00000000000E+00  0.00000000000E+00  0.00000000000E+00  0.91188000000E+02  0.91188000000E+02 0.  0.
    9900012    2    3    3    0    0 -0.21849002664E+01 -0.10339713991E+02 -0.35271813756E+02  0.54367023367E+02  0.39999861369E+02 0.  0.
         12    1    3    3    0    0  0.21849002664E+01  0.10339713991E+02  0.35271813756E+02  0.36820976633E+02  0.00000000000E+00 0. -1.
         11    1    4    4    0    0 -0.15366119670E+02 -0.10380339616E+02 -0.62969642685E+01  0.19583688200E+02  0.51100000000E-03 0. -1.
        -11    1    4    4    0    0  0.28777970488E+01 -0.17798019290E+01 -0.21883718700E+02  0.22143770120E+02  0.51100000000E-03 0.  1.
        -12    1    4    4    0    0  0.10303422355E+02  0.18204275543E+01 -0.70911307879E+01  0.12639565046E+02  0.00000000000E+00 0.  1.
</event>
<event>
 8    1  0.1244838E-006  0.9118800E+02  0.7816164E-02  0.1184000E+00
        -11   -1    0    0    0    0  0.00000000000E+00  0.00000000000E+00  0.45593999997E+02  0.45594000000E+02  0.51100000000E-03 0. -1.
         11   -1    0    0    0    0 -0.00000000000E+00 -0.00000000000E+00 -0.45593999997E+02  0.45594000000E+02  0.51100000000E-03 0.  1.
         23    2    1    2    0    0 -0.17763568394E-14  0.00000000000E+00 -0.53290705182E-14  0.91188000000E+02  0.91188000000E+02 0.  0.
    9900012    2    3    3    0    0 -0.12661886422E+02  0.31519859007E+02 -0.14211091592E+02  0.54367081980E+02  0.39999994989E+02 0.  0.
         12    1    3    3    0    0  0.12661886422E+02 -0.31519859007E+02  0.14211091592E+02  0.36820918020E+02  0.00000000000E+00 0. -1.
         11    1    4    4    0    0  0.77068259382E+01  0.17388117885E+02  0.35245717421E+00  0.19022776767E+02  0.51100000000E-03 0. -1.
        -11    1    4    4    0    0 -0.13385785505E+01  0.62716222704E+00  0.47994570648E+01  0.50219431870E+01  0.51100000000E-03 0.  1.
        -12    1    4    4    0    0 -0.19030133810E+02  0.13504578895E+02 -0.19363005831E+02  0.30322362025E+02  0.00000000000E+00 0.  1.
</event>
<event>
 8    1  0.1244838E-006  0.9118800E+02  0.7816164E-02  0.1184000E+00
        -11   -1    0    0    0    0  0.00000000000E+00  0.00000000000E+00  0.45593999997E+02  0.45594000000E+02  0.51100000000E-03 0.  1.
         11   -1    0    0    0    0 -0.00000000000E+00 -0.00000000000E+00 -0.45593999997E+02  0.45594000000E+02  0.51100000000E-03 0. -1.
         23    2    1    2    0    0  0.35527136788E-14 -0.17763568394E-14  0.00000000000E+00  0.91188000000E+02  0.91188000000E+02 0.  0.
    9900012    2    3    3    0    0  0.25264368221E+02  0.12435964997E+02  0.23724222991E+02  0.54367078182E+02  0.39999986331E+02 0.  0.
         12    1    3    3    0    0 -0.25264368221E+02 -0.12435964997E+02 -0.23724222991E+02  0.36820921818E+02  0.00000000000E+00 0. -1.
         11    1    4    4    0    0  0.12245335019E+01  0.80199286088E+01 -0.66030242921E+01  0.10460337817E+02  0.51100000000E-03 0. -1.
        -11    1    4    4    0    0  0.32852334958E+01  0.40843087927E+01  0.20089587294E+02  0.20762125501E+02  0.51100000000E-03 0.  1.
        -12    1    4    4    0    0  0.20754601223E+02  0.33172759585E+00  0.10237659989E+02  0.23144614864E+02  0.00000000000E+00 0.  1.
</event>
<event>
 8    1  0.1244838E-006  0.9118800E+02  0.7816164E-02  0.1184000E+00
        -11   -1    0    0    0    0  0.00000000000E+00  0.00000000000E+00  0.45593999997E+02  0.45594000000E+02  0.51100000000E-03 0.  1.
         11   -1    0    0    0    0 -0.00000000000E+00 -0.00000000000E+00 -0.45593999997E+02  0.45594000000E+02  0.51100000000E-03 0. -1.
         23    2    1    2    0    0  0.00000000000E+00  0.35527136788E-14 -0.88817841970E-15  0.91188000000E+02  0.91188000000E+02 0.  0.
    9900012    2    3    3    0    0  0.26909756419E+02 -0.24490542712E+02  0.56443176899E+01  0.54367082099E+02  0.39999995262E+02 0.  0.
        -12    1    3    3    0    0 -0.26909756419E+02  0.24490542712E+02 -0.56443176899E+01  0.36820917901E+02  0.00000000000E+00 0.  1.
         11    1    4    4    0    0  0.19314606372E+02 -0.31200427610E+02  0.82780333123E-01  0.36695061727E+02  0.51100000000E-03 0. -1.
        -11    1    4    4    0    0  0.46508443346E+00 -0.39095109830E+01  0.18724813225E+01  0.43596750132E+01  0.51100000000E-03 0.  1.
         12    1    4    4    0    0  0.71300656136E+01  0.10619395881E+02  0.36890560342E+01  0.13312345359E+02  0.00000000000E+00 0. -1.
</event>
<event>
 8    1  0.1244838E-006  0.9118800E+02  0.7816164E-02  0.1184000E+00
        -11   -1    0    0    0    0  0.00000000000E+00  0.00000000000E+00  0.45593999997E+02  0.45594000000E+02  0.51100000000E-03 0. -1.
         11   -1    0    0    0    0 -0.00000000000E+00 -0.00000000000E+00 -0.45593999997E+02  0.45594000000E+02  0.51100000000E-03 0.  1.
         23    2    1    2    0    0 -0.88817841970E-15  0.00000000000E+00  0.00000000000E+00  0.91188000000E+02  0.91188000000E+02 0.  0.
    9900012    2    3    3    0    0  0.41358804343E+01 -0.12402700061E+02 -0.34421607812E+02  0.54367088005E+02  0.40000008725E+02 0.  0.
         12    1    3    3    0    0 -0.41358804343E+01  0.12402700061E+02  0.34421607812E+02  0.36820911995E+02  0.00000000000E+00 0. -1.
         11    1    4    4    0    0 -0.10839387016E+02 -0.78277551704E+00 -0.19030694548E+02  0.21915117696E+02  0.51100000000E-03 0. -1.
        -11    1    4    4    0    0  0.62638085048E+01 -0.15517466366E+02 -0.15640238957E+02  0.22905111532E+02  0.51100000000E-03 0.  1.
         12    1    4    4    0    0  0.87114589452E+01  0.38975418222E+01  0.24932569214E+00  0.95468587772E+01  0.00000000000E+00 0. -1.
</event>
<event>
 8    1  0.1244838E-006  0.9118800E+02  0.7816164E-02  0.1184000E+00
        -11   -1    0    0    0    0  0.00000000000E+00  0.00000000000E+00  0.45593999997E+02  0.45594000000E+02  0.51100000000E-03 0. -1.
         11   -1    0    0    0    0 -0.00000000000E+00 -0.00000000000E+00 -0.45593999997E+02  0.45594000000E+02  0.51100000000E-03 0.  1.
         23    2    1    2    0    0 -0.35527136788E-14 -0.11102230246E-15  0.00000000000E+00  0.91188000000E+02  0.91188000000E+02 0.  0.
    9900012    2    3    3    0    0 -0.28510431184E+02  0.89176583906E+00  0.23283722738E+02  0.54367195050E+02  0.40000252755E+02 0.  0.
        -12    1    3    3    0    0  0.28510431184E+02 -0.89176583906E+00 -0.23283722738E+02  0.36820804950E+02  0.00000000000E+00 0.  1.
         11    1    4    4    0    0 -0.67176602149E+00 -0.44227566750E+01  0.72492414542E+00  0.45318386414E+01  0.51100000000E-03 0. -1.
        -11    1    4    4    0    0  0.47985930885E+01  0.47358821314E+01 -0.39243974779E+01  0.78010237160E+01  0.51100000000E-03 0.  1.
         12    1    4    4    0    0 -0.32637258251E+02  0.57864038268E+00  0.26483196071E+02  0.42034332693E+02  0.00000000000E+00 0. -1.
</event>
<event>
 8    1  0.1244838E-006  0.9118800E+02  0.7816164E-02  0.1184000E+00
        -11   -1    0    0    0    0  0.00000000000E+00  0.00000000000E+00  0.45593999997E+02  0.45594000000E+02  0.51100000000E-03 0.  1.
         11   -1    0    0    0    0 -0.00000000000E+00 -0.00000000000E+00 -0.45593999997E+02  0.45594000000E+02  0.51100000000E-03 0. -1.
         23    2    1    2    0    0  0.00000000000E+00 -0.16653345369E-14  0.88817841970E-15  0.91188000000E+02  0.91188000000E+02 0.  0.
    9900012    2    3    3    0    0 -0.36172930808E+02 -0.81683532499E+00 -0.68288191290E+01  0.54367069623E+02  0.39999966819E+02 0.  0.
        -12    1    3    3    0    0  0.36172930808E+02  0.81683532499E+00  0.68288191290E+01  0.36820930377E+02  0.00000000000E+00 0.  1.
         11    1    4    4    0    0 -0.38910771734E+02 -0.93045360723E+01 -0.69454654373E+00  0.40013809412E+02  0.51100000000E-03 0. -1.
        -11    1    4    4    0    0  0.54788100451E+00 -0.52818171854E-01 -0.54850150092E+01  0.55125632211E+01  0.51100000000E-03 0.  1.
         12    1    4    4    0    0  0.21899599219E+01  0.85405189191E+01 -0.64925757607E+00  0.88406969899E+01  0.00000000000E+00 0. -1.
</event>
<event>
 8    1  0.1244838E-006  0.9118800E+02  0.7816164E-02  0.1184000E+00
        -11   -1    0    0    0    0  0.00000000000E+00  0.00000000000E+00  0.45593999997E+02  0.45594000000E+02  0.51100000000E-03 0.  1.
         11   -1    0    0    0    0 -0.00000000000E+00 -0.00000000000E+00 -0.45593999997E+02  0.45594000000E+02  0.51100000000E-03 0. -1.
         23    2    1    2    0    0  0.00000000000E+00  0.00000000000E+00  0.00000000000E+00  0.91188000000E+02  0.91188000000E+02 0.  0.
    9900012    2    3    3    0    0 -0.22248906619E+02 -0.16168552049E+02 -0.24481511229E+02  0.54367077780E+02  0.39999985415E+02 0.  0.
        -12    1    3    3    0    0  0.22248906619E+02  0.16168552049E+02  0.24481511229E+02  0.36820922220E+02  0.00000000000E+00 0.  1.
         11    1    4    4    0    0 -0.10785458392E+02 -0.72121586788E+01  0.73893847865E+00  0.12995667581E+02  0.51100000000E-03 0. -1.
        -11    1    4    4    0    0 -0.15584828877E+02 -0.11912081540E+02 -0.29024597055E+02  0.35031583067E+02  0.51100000000E-03 0.  1.
        -12    1    4    4    0    0  0.41213806506E+01  0.29556881699E+01  0.38041473473E+01  0.63398271321E+01  0.00000000000E+00 0.  1.
</event>
<event>
 8    1  0.1244838E-006  0.9118800E+02  0.7816164E-02  0.1184000E+00
        -11   -1    0    0    0    0  0.00000000000E+00  0.00000000000E+00  0.45593999997E+02  0.45594000000E+02  0.51100000000E-03 0.  1.
         11   -1    0    0    0    0 -0.00000000000E+00 -0.00000000000E+00 -0.45593999997E+02  0.45594000000E+02  0.51100000000E-03 0. -1.
         23    2    1    2    0    0  0.00000000000E+00  0.17763568394E-14  0.17763568394E-14  0.91188000000E+02  0.91188000000E+02 0.  0.
    9900012    2    3    3    0    0 -0.33953483249E+02  0.11596671384E+02 -0.82739171569E+01  0.54367088590E+02  0.40000010059E+02 0.  0.
         12    1    3    3    0    0  0.33953483249E+02 -0.11596671384E+02  0.82739171569E+01  0.36820911410E+02  0.00000000000E+00 0. -1.
         11    1    4    4    0    0 -0.82495042995E+01  0.90079916232E+01  0.82471434431E+01  0.14738168458E+02  0.51100000000E-03 0. -1.
        -11    1    4    4    0    0 -0.24733294445E+02 -0.33096527575E+01 -0.33664251469E+01  0.25179802899E+02  0.51100000000E-03 0.  1.
         12    1    4    4    0    0 -0.97068450426E+00  0.58983325187E+01 -0.13154635453E+02  0.14449117233E+02  0.00000000000E+00 0. -1.
</event>
<event>
 8    1  0.1244838E-006  0.9118800E+02  0.7816164E-02  0.1184000E+00
        -11   -1    0    0    0    0  0.00000000000E+00  0.00000000000E+00  0.45593999997E+02  0.45594000000E+02  0.51100000000E-03 0. -1.
         11   -1    0    0    0    0 -0.00000000000E+00 -0.00000000000E+00 -0.45593999997E+02  0.45594000000E+02  0.51100000000E-03 0.  1.
         23    2    1    2    0    0  0.00000000000E+00 -0.35527136788E-14  0.00000000000E+00  0.91188000000E+02  0.91188000000E+02 0.  0.
    9900012    2    3    3    0    0 -0.34181448179E+01  0.31546108752E+02  0.18679903446E+02  0.54367089037E+02  0.40000011078E+02 0.  0.
        -12    1    3    3    0    0  0.34181448179E+01 -0.31546108752E+02 -0.18679903446E+02  0.36820910963E+02  0.00000000000E+00 0.  1.
         11    1    4    4    0    0  0.15559768899E+02  0.47601067524E+01  0.13714180091E+01  0.16329293068E+02  0.51100000000E-03 0. -1.
        -11    1    4    4    0    0 -0.13425701731E+02  0.19473226674E+02  0.16461086868E+02  0.28817067949E+02  0.51100000000E-03 0.  1.
         12    1    4    4    0    0 -0.55522119855E+01  0.73127753254E+01  0.84739856902E+00  0.92207280205E+01  0.00000000000E+00 0. -1.
</event>
<event>
 8    1  0.1244838E-006  0.9118800E+02  0.7816164E-02  0.1184000E+00
        -11   -1    0    0    0    0  0.00000000000E+00  0.00000000000E+00  0.45593999997E+02  0.45594000000E+02  0.51100000000E-03 0. -1.
         11   -1    0    0    0    0 -0.00000000000E+00 -0.00000000000E+00 -0.45593999997E+02  0.45594000000E+02  0.51100000000E-03 0.  1.
         23    2    1    2    0    0  0.00000000000E+00 -0.53290705182E-14  0.00000000000E+00  0.91188000000E+02  0.91188000000E+02 0.  0.
    9900012    2    3    3    0    0  0.16298082972E+02  0.12861046710E+02  0.30409521023E+02  0.54367177089E+02  0.40000211809E+02 0.  0.
        -12    1    3    3    0    0 -0.16298082972E+02 -0.12861046710E+02 -0.30409521023E+02  0.36820822911E+02  0.00000000000E+00 0.  1.
         11    1    4    4    0    0  0.12253740926E+01  0.20901146193E+02  0.72340113024E+01  0.22151532083E+02  0.51100000000E-03 0. -1.
        -11    1    4    4    0    0  0.76509594680E+01 -0.10673732708E+02  0.19536882689E+02  0.23540508410E+02  0.51100000000E-03 0.  1.
        -12    1    4    4    0    0  0.74217494112E+01  0.26336332248E+01  0.36386270307E+01  0.86751365957E+01  0.00000000000E+00 0.  1.
</event>
<event>
 8    1  0.1244838E-006  0.9118800E+02  0.7816164E-02  0.1184000E+00
        -11   -1    0    0    0    0  0.00000000000E+00  0.00000000000E+00  0.45593999997E+02  0.45594000000E+02  0.51100000000E-03 0.  1.
         11   -1    0    0    0    0 -0.00000000000E+00 -0.00000000000E+00 -0.45593999997E+02  0.45594000000E+02  0.51100000000E-03 0. -1.
         23    2    1    2    0    0  0.00000000000E+00  0.00000000000E+00  0.00000000000E+00  0.91188000000E+02  0.91188000000E+02 0.  0.
    9900012    2    3    3    0    0  0.13440442202E+02 -0.24706137179E+02  0.23764246979E+02  0.54367107353E+02  0.40000052832E+02 0.  0.
         12    1    3    3    0    0 -0.13440442202E+02  0.24706137179E+02 -0.23764246979E+02  0.36820892647E+02  0.00000000000E+00 0. -1.
         11    1    4    4    0    0 -0.53981505851E+01 -0.15815477833E+02 -0.36471516175E+00  0.16715333865E+02  0.51100000000E-03 0. -1.
        -11    1    4    4    0    0  0.12302083650E+02 -0.11267442227E+02  0.51819699525E+01  0.17468523959E+02  0.51100000000E-03 0.  1.
        -12    1    4    4    0    0  0.65365091369E+01  0.23767828804E+01  0.18946992188E+02  0.20183249529E+02  0.00000000000E+00 0.  1.
</event>
<event>
 8    1  0.1244838E-006  0.9118800E+02  0.7816164E-02  0.1184000E+00
        -11   -1    0    0    0    0  0.00000000000E+00  0.00000000000E+00  0.45593999997E+02  0.45594000000E+02  0.51100000000E-03 0.  1.
         11   -1    0    0    0    0 -0.00000000000E+00 -0.00000000000E+00 -0.45593999997E+02  0.45594000000E+02  0.51100000000E-03 0. -1.
         23    2    1    2    0    0  0.00000000000E+00 -0.33306690739E-15  0.00000000000E+00  0.91188000000E+02  0.91188000000E+02 0.  0.
    9900012    2    3    3    0    0  0.36117539300E+02 -0.73303830450E+00 -0.71249951244E+01  0.54367088200E+02  0.40000009169E+02 0.  0.
        -12    1    3    3    0    0 -0.36117539300E+02  0.73303830450E+00  0.71249951244E+01  0.36820911800E+02  0.00000000000E+00 0.  1.
         11    1    4    4    0    0 -0.21153943708E+01 -0.19348983303E+01 -0.72140671738E+01  0.77628274708E+01  0.51100000000E-03 0.  1.
        -11    1    4    4    0    0  0.23744382316E+02 -0.40058677267E+01  0.12220116294E+02  0.27003220369E+02  0.51100000000E-03 0. -1.
         12    1    4    4    0    0  0.14488551355E+02  0.52077277525E+01 -0.12131044245E+02  0.19601040360E+02  0.00000000000E+00 0. -1.
</event>
<event>
 8    1  0.1244838E-006  0.9118800E+02  0.7816164E-02  0.1184000E+00
        -11   -1    0    0    0    0  0.00000000000E+00  0.00000000000E+00  0.45593999997E+02  0.45594000000E+02  0.51100000000E-03 0.  1.
         11   -1    0    0    0    0 -0.00000000000E+00 -0.00000000000E+00 -0.45593999997E+02  0.45594000000E+02  0.51100000000E-03 0. -1.
         23    2    1    2    0    0 -0.35527136788E-14  0.88817841970E-15 -0.35527136788E-14  0.91188000000E+02  0.91188000000E+02 0.  0.
    9900012    2    3    3    0    0 -0.23555475497E+02  0.75710043031E+01 -0.27269011428E+02  0.54367088600E+02  0.40000010082E+02 0.  0.
        -12    1    3    3    0    0  0.23555475497E+02 -0.75710043031E+01  0.27269011428E+02  0.36820911400E+02  0.00000000000E+00 0.  1.
         11    1    4    4    0    0 -0.10187956545E+02  0.56679910016E+01 -0.25966950555E+02  0.28464066855E+02  0.51100000000E-03 0. -1.
        -11    1    4    4    0    0  0.42690804168E+01 -0.42240586494E+01 -0.37384268496E+01  0.70741469203E+01  0.51100000000E-03 0.  1.
        -12    1    4    4    0    0 -0.17636599369E+02  0.61270719508E+01  0.24363659771E+01  0.18828874825E+02  0.00000000000E+00 0.  1.
</event>
<event>
 8    1  0.1244838E-006  0.9118800E+02  0.7816164E-02  0.1184000E+00
        -11   -1    0    0    0    0  0.00000000000E+00  0.00000000000E+00  0.45593999997E+02  0.45594000000E+02  0.51100000000E-03 0.  1.
         11   -1    0    0    0    0 -0.00000000000E+00 -0.00000000000E+00 -0.45593999997E+02  0.45594000000E+02  0.51100000000E-03 0. -1.
         23    2    1    2    0    0  0.13322676296E-14  0.35527136788E-14  0.00000000000E+00  0.91188000000E+02  0.91188000000E+02 0.  0.
    9900012    2    3    3    0    0 -0.20436720623E+01  0.19556203937E+02  0.31131247685E+02  0.54367132406E+02  0.40000109946E+02 0.  0.
         12    1    3    3    0    0  0.20436720623E+01 -0.19556203937E+02 -0.31131247685E+02  0.36820867594E+02  0.00000000000E+00 0. -1.
         11    1    4    4    0    0  0.46462839302E-02  0.18592150432E+01  0.15515860781E+02  0.15626856312E+02  0.51100000000E-03 0. -1.
        -11    1    4    4    0    0 -0.16066879323E+02  0.63505883260E+01  0.93749362328E+01  0.19656144406E+02  0.51100000000E-03 0.  1.
        -12    1    4    4    0    0  0.14018560977E+02  0.11346400568E+02  0.62404506711E+01  0.19084131688E+02  0.00000000000E+00 0.  1.
</event>
<event>
 8    1  0.1244838E-006  0.9118800E+02  0.7816164E-02  0.1184000E+00
        -11   -1    0    0    0    0  0.00000000000E+00  0.00000000000E+00  0.45593999997E+02  0.45594000000E+02  0.51100000000E-03 0.  1.
         11   -1    0    0    0    0 -0.00000000000E+00 -0.00000000000E+00 -0.45593999997E+02  0.45594000000E+02  0.51100000000E-03 0. -1.
         23    2    1    2    0    0  0.00000000000E+00 -0.35527136788E-14  0.00000000000E+00  0.91188000000E+02  0.91188000000E+02 0.  0.
    9900012    2    3    3    0    0  0.25522382292E+02 -0.26527861480E+02 -0.81129329300E+00  0.54367114223E+02  0.40000068495E+02 0.  0.
         12    1    3    3    0    0 -0.25522382292E+02  0.26527861480E+02  0.81129329300E+00  0.36820885777E+02  0.00000000000E+00 0. -1.
         11    1    4    4    0    0  0.64177890894E+01 -0.10892177949E+02 -0.88592911953E+01  0.15437441434E+02  0.51100000000E-03 0. -1.
        -11    1    4    4    0    0  0.23854884983E+02 -0.10911498306E+02 -0.25882512261E+01  0.26359350855E+02  0.51100000000E-03 0.  1.
        -12    1    4    4    0    0 -0.47502917798E+01 -0.47241852245E+01  0.10636249128E+02  0.12570321935E+02  0.00000000000E+00 0.  1.
</event>
<event>
 8    1  0.1244838E-006  0.9118800E+02  0.7816164E-02  0.1184000E+00
        -11   -1    0    0    0    0  0.00000000000E+00  0.00000000000E+00  0.45593999997E+02  0.45594000000E+02  0.51100000000E-03 0.  1.
         11   -1    0    0    0    0 -0.00000000000E+00 -0.00000000000E+00 -0.45593999997E+02  0.45594000000E+02  0.51100000000E-03 0. -1.
         23    2    1    2    0    0  0.44408920985E-15  0.00000000000E+00  0.00000000000E+00  0.91188000000E+02  0.91188000000E+02 0.  0.
    9900012    2    3    3    0    0  0.39883831202E+01  0.12676750410E+02 -0.34339056300E+02  0.54367109348E+02  0.40000057381E+02 0.  0.
        -12    1    3    3    0    0 -0.39883831202E+01 -0.12676750410E+02  0.34339056300E+02  0.36820890652E+02  0.00000000000E+00 0.  1.
         11    1    4    4    0    0  0.10418051237E+02  0.17991895792E+02 -0.76214544517E+01  0.22143411526E+02  0.51100000000E-03 0. -1.
        -11    1    4    4    0    0  0.35596827723E+01 -0.67868781405E+01 -0.89086231206E+01  0.11751451932E+02  0.51100000000E-03 0.  1.
         12    1    4    4    0    0 -0.99893508892E+01  0.14717327578E+01 -0.17808978727E+02  0.20472245891E+02  0.00000000000E+00 0. -1.
</event>
<event>
 8    1  0.1244838E-006  0.9118800E+02  0.7816164E-02  0.1184000E+00
        -11   -1    0    0    0    0  0.00000000000E+00  0.00000000000E+00  0.45593999997E+02  0.45594000000E+02  0.51100000000E-03 0.  1.
         11   -1    0    0    0    0 -0.00000000000E+00 -0.00000000000E+00 -0.45593999997E+02  0.45594000000E+02  0.51100000000E-03 0. -1.
         23    2    1    2    0    0  0.17763568394E-14  0.00000000000E+00  0.35527136788E-14  0.91188000000E+02  0.91188000000E+02 0.  0.
    9900012    2    3    3    0    0 -0.14583176155E+02  0.16304701942E+02 -0.29618702311E+02  0.54367083950E+02  0.39999999480E+02 0.  0.
        -12    1    3    3    0    0  0.14583176155E+02 -0.16304701942E+02  0.29618702311E+02  0.36820916050E+02  0.00000000000E+00 0.  1.
         11    1    4    4    0    0  0.94772581935E+00  0.76035169401E+00 -0.11010991135E+02  0.11077826726E+02  0.51100000000E-03 0. -1.
        -11    1    4    4    0    0 -0.21912883297E+01 -0.94998710549E+01 -0.78485731485E+00  0.97808637589E+01  0.51100000000E-03 0.  1.
         12    1    4    4    0    0 -0.13339613645E+02  0.25044221303E+02 -0.17822853861E+02  0.33508393465E+02  0.00000000000E+00 0. -1.
</event>
<event>
 8    1  0.1244838E-006  0.9118800E+02  0.7816164E-02  0.1184000E+00
        -11   -1    0    0    0    0  0.00000000000E+00  0.00000000000E+00  0.45593999997E+02  0.45594000000E+02  0.51100000000E-03 0. -1.
         11   -1    0    0    0    0 -0.00000000000E+00 -0.00000000000E+00 -0.45593999997E+02  0.45594000000E+02  0.51100000000E-03 0.  1.
         23    2    1    2    0    0  0.00000000000E+00  0.35527136788E-14  0.00000000000E+00  0.91188000000E+02  0.91188000000E+02 0.  0.
    9900012    2    3    3    0    0  0.28193944502E+02 -0.22872108092E+02  0.61439288181E+01  0.54367086154E+02  0.40000004506E+02 0.  0.
        -12    1    3    3    0    0 -0.28193944502E+02  0.22872108092E+02 -0.61439288181E+01  0.36820913846E+02  0.00000000000E+00 0.  1.
         11    1    4    4    0    0  0.21149559539E+01 -0.10127224801E+02  0.33998711805E+01  0.10890034213E+02  0.51100000000E-03 0. -1.
        -11    1    4    4    0    0  0.14476948431E+02 -0.10975815610E+02 -0.14065531625E+02  0.22975851330E+02  0.51100000000E-03 0.  1.
         12    1    4    4    0    0  0.11602040116E+02 -0.17690676810E+01  0.16809589263E+02  0.20501200611E+02  0.00000000000E+00 0. -1.
</event>
<event>
 8    1  0.1244838E-006  0.9118800E+02  0.7816164E-02  0.1184000E+00
        -11   -1    0    0    0    0  0.00000000000E+00  0.00000000000E+00  0.45593999997E+02  0.45594000000E+02  0.51100000000E-03 0. -1.
         11   -1    0    0    0    0 -0.00000000000E+00 -0.00000000000E+00 -0.45593999997E+02  0.45594000000E+02  0.51100000000E-03 0.  1.
         23    2    1    2    0    0  0.00000000000E+00  0.66613381478E-15  0.00000000000E+00  0.91188000000E+02  0.91188000000E+02 0.  0.
    9900012    2    3    3    0    0 -0.31216534833E+02  0.14184350590E+01  0.19475521834E+02  0.54367082634E+02  0.39999996481E+02 0.  0.
        -12    1    3    3    0    0  0.31216534833E+02 -0.14184350590E+01 -0.19475521834E+02  0.36820917366E+02  0.00000000000E+00 0.  1.
         11    1    4    4    0    0 -0.27955279456E+02  0.71842699353E+01  0.13317199301E+02  0.31787720608E+02  0.51100000000E-03 0. -1.
        -11    1    4    4    0    0 -0.33136230889E+00  0.32232778457E+01 -0.62140418118E+01  0.70081122244E+01  0.51100000000E-03 0.  1.
         12    1    4    4    0    0 -0.29298930682E+01 -0.89891127220E+01  0.12372364344E+02  0.15571249802E+02  0.00000000000E+00 0. -1.
</event>
<event>
 8    1  0.1244838E-006  0.9118800E+02  0.7816164E-02  0.1184000E+00
        -11   -1    0    0    0    0  0.00000000000E+00  0.00000000000E+00  0.45593999997E+02  0.45594000000E+02  0.51100000000E-03 0.  1.
         11   -1    0    0    0    0 -0.00000000000E+00 -0.00000000000E+00 -0.45593999997E+02  0.45594000000E+02  0.51100000000E-03 0. -1.
         23    2    1    2    0    0  0.17763568394E-14  0.00000000000E+00  0.00000000000E+00  0.91188000000E+02  0.91188000000E+02 0.  0.
    9900012    2    3    3    0    0  0.80518983234E+01 -0.29135916627E+02  0.21024891104E+02  0.54367071845E+02  0.39999971884E+02 0.  0.
        -12    1    3    3    0    0 -0.80518983234E+01  0.29135916627E+02 -0.21024891104E+02  0.36820928155E+02  0.00000000000E+00 0.  1.
         11    1    4    4    0    0 -0.12793220868E+02 -0.16932461938E+02  0.37445334895E+00  0.21225338231E+02  0.51100000000E-03 0. -1.
        -11    1    4    4    0    0  0.10676783400E+02 -0.11410395437E+02  0.11086804023E+02  0.19160063975E+02  0.51100000000E-03 0.  1.
         12    1    4    4    0    0  0.10168335791E+02 -0.79305925209E+00  0.95636337313E+01  0.13981669639E+02  0.00000000000E+00 0. -1.
</event>
<event>
 8    1  0.1244838E-006  0.9118800E+02  0.7816164E-02  0.1184000E+00
        -11   -1    0    0    0    0  0.00000000000E+00  0.00000000000E+00  0.45593999997E+02  0.45594000000E+02  0.51100000000E-03 0. -1.
         11   -1    0    0    0    0 -0.00000000000E+00 -0.00000000000E+00 -0.45593999997E+02  0.45594000000E+02  0.51100000000E-03 0.  1.
         23    2    1    2    0    0  0.35527136788E-14  0.17763568394E-14  0.00000000000E+00  0.91188000000E+02  0.91188000000E+02 0.  0.
    9900012    2    3    3    0    0  0.27593142506E+02  0.11540352775E+02  0.21475987242E+02  0.54367091761E+02  0.40000017288E+02 0.  0.
        -12    1    3    3    0    0 -0.27593142506E+02 -0.11540352775E+02 -0.21475987242E+02  0.36820908239E+02  0.00000000000E+00 0.  1.
         11    1    4    4    0    0  0.13571665106E+02  0.27345786027E+01  0.53845665968E+01  0.14854681806E+02  0.51100000000E-03 0. -1.
        -11    1    4    4    0    0 -0.36801105851E+01  0.16003375195E+02  0.40065509063E+01  0.16902771429E+02  0.51100000000E-03 0.  1.
        -12    1    4    4    0    0  0.17701587985E+02 -0.71976010228E+01  0.12084869738E+02  0.22609638526E+02  0.00000000000E+00 0.  1.
</event>
<event>
 8    1  0.1244838E-006  0.9118800E+02  0.7816164E-02  0.1184000E+00
        -11   -1    0    0    0    0  0.00000000000E+00  0.00000000000E+00  0.45593999997E+02  0.45594000000E+02  0.51100000000E-03 0.  1.
         11   -1    0    0    0    0 -0.00000000000E+00 -0.00000000000E+00 -0.45593999997E+02  0.45594000000E+02  0.51100000000E-03 0. -1.
         23    2    1    2    0    0 -0.35527136788E-14  0.00000000000E+00  0.00000000000E+00  0.91188000000E+02  0.91188000000E+02 0.  0.
    9900012    2    3    3    0    0  0.19442901517E+02  0.26502463230E+02 -0.16594383690E+02  0.54367074609E+02  0.39999978185E+02 0.  0.
        -12    1    3    3    0    0 -0.19442901517E+02 -0.26502463230E+02  0.16594383690E+02  0.36820925391E+02  0.00000000000E+00 0.  1.
         11    1    4    4    0    0  0.13019335468E+02  0.13684203622E+02 -0.16213047573E+02  0.24892236474E+02  0.51100000000E-03 0. -1.
        -11    1    4    4    0    0  0.26064742962E+01 -0.56599383928E+01  0.68573412440E+01  0.92656214073E+01  0.51100000000E-03 0.  1.
         12    1    4    4    0    0  0.38170917524E+01  0.18478198001E+02 -0.72386773607E+01  0.20209216727E+02  0.00000000000E+00 0. -1.
</event>
<event>
 8    1  0.1244838E-006  0.9118800E+02  0.7816164E-02  0.1184000E+00
        -11   -1    0    0    0    0  0.00000000000E+00  0.00000000000E+00  0.45593999997E+02  0.45594000000E+02  0.51100000000E-03 0.  1.
         11   -1    0    0    0    0 -0.00000000000E+00 -0.00000000000E+00 -0.45593999997E+02  0.45594000000E+02  0.51100000000E-03 0. -1.
         23    2    1    2    0    0  0.00000000000E+00 -0.17763568394E-14  0.00000000000E+00  0.91188000000E+02  0.91188000000E+02 0.  0.
    9900012    2    3    3    0    0 -0.20563195807E+02 -0.52715545894E+01 -0.30085632632E+02  0.54367087458E+02  0.40000007477E+02 0.  0.
        -12    1    3    3    0    0  0.20563195807E+02  0.52715545894E+01  0.30085632632E+02  0.36820912542E+02  0.00000000000E+00 0.  1.
         11    1    4    4    0    0  0.69048858412E+01 -0.93210758753E+01 -0.19535387468E+02  0.22719843040E+02  0.51100000000E-03 0.  1.
        -11    1    4    4    0    0 -0.20088850068E+01  0.10626500973E+01 -0.48952727184E+01  0.53970861999E+01  0.51100000000E-03 0. -1.
        -12    1    4    4    0    0 -0.25459196641E+02  0.29868711886E+01 -0.56549724453E+01  0.26250158218E+02  0.00000000000E+00 0.  1.
</event>
<event>
 8    1  0.1244838E-006  0.9118800E+02  0.7816164E-02  0.1184000E+00
        -11   -1    0    0    0    0  0.00000000000E+00  0.00000000000E+00  0.45593999997E+02  0.45594000000E+02  0.51100000000E-03 0.  1.
         11   -1    0    0    0    0 -0.00000000000E+00 -0.00000000000E+00 -0.45593999997E+02  0.45594000000E+02  0.51100000000E-03 0. -1.
         23    2    1    2    0    0  0.00000000000E+00  0.00000000000E+00 -0.17763568394E-14  0.91188000000E+02  0.91188000000E+02 0.  0.
    9900012    2    3    3    0    0  0.28416114907E+02 -0.20672653634E+02  0.10997532382E+02  0.54367083211E+02  0.39999997797E+02 0.  0.
         12    1    3    3    0    0 -0.28416114907E+02  0.20672653634E+02 -0.10997532382E+02  0.36820916789E+02  0.00000000000E+00 0. -1.
         11    1    4    4    0    0 -0.43992656895E+01 -0.13928150726E+01  0.66088429162E+00  0.46615706303E+01  0.51100000000E-03 0. -1.
        -11    1    4    4    0    0  0.11477378034E+02  0.79609076454E+01  0.39743588297E+01  0.14522457968E+02  0.51100000000E-03 0.  1.
        -12    1    4    4    0    0  0.21338002563E+02 -0.27240746207E+02  0.63622892611E+01  0.35183054613E+02  0.00000000000E+00 0.  1.
</event>
<event>
 8    1  0.1244838E-006  0.9118800E+02  0.7816164E-02  0.1184000E+00
        -11   -1    0    0    0    0  0.00000000000E+00  0.00000000000E+00  0.45593999997E+02  0.45594000000E+02  0.51100000000E-03 0.  1.
         11   -1    0    0    0    0 -0.00000000000E+00 -0.00000000000E+00 -0.45593999997E+02  0.45594000000E+02  0.51100000000E-03 0. -1.
         23    2    1    2    0    0  0.00000000000E+00  0.00000000000E+00  0.00000000000E+00  0.91188000000E+02  0.91188000000E+02 0.  0.
    9900012    2    3    3    0    0 -0.17831562579E+02 -0.24294242225E+02  0.21156689132E+02  0.54367077628E+02  0.39999985069E+02 0.  0.
         12    1    3    3    0    0  0.17831562579E+02  0.24294242225E+02 -0.21156689132E+02  0.36820922372E+02  0.00000000000E+00 0. -1.
         11    1    4    4    0    0  0.28320855954E+01 -0.50446383463E+01 -0.19261461221E+00  0.57884527738E+01  0.51100000000E-03 0. -1.
        -11    1    4    4    0    0 -0.17611079065E+02  0.50931332063E+01  0.46885602720E+01  0.18922809236E+02  0.51100000000E-03 0.  1.
        -12    1    4    4    0    0 -0.30525691092E+01 -0.24342737085E+02  0.16660743472E+02  0.29655815618E+02  0.00000000000E+00 0.  1.
</event>
<event>
 8    1  0.1244838E-006  0.9118800E+02  0.7816164E-02  0.1184000E+00
        -11   -1    0    0    0    0  0.00000000000E+00  0.00000000000E+00  0.45593999997E+02  0.45594000000E+02  0.51100000000E-03 0.  1.
         11   -1    0    0    0    0 -0.00000000000E+00 -0.00000000000E+00 -0.45593999997E+02  0.45594000000E+02  0.51100000000E-03 0. -1.
         23    2    1    2    0    0  0.17763568394E-14 -0.88817841970E-15 -0.71054273576E-14  0.91188000000E+02  0.91188000000E+02 0.  0.
    9900012    2    3    3    0    0 -0.90003901643E+01  0.36178115855E+01  0.35520197731E+02  0.54367081616E+02  0.39999994160E+02 0.  0.
         12    1    3    3    0    0  0.90003901643E+01 -0.36178115855E+01 -0.35520197731E+02  0.36820918384E+02  0.00000000000E+00 0. -1.
         11    1    4    4    0    0  0.19568824980E+01  0.66340759252E+01 -0.47650637427E+01  0.83991776517E+01  0.51100000000E-03 0. -1.
        -11    1    4    4    0    0 -0.98485794581E-01 -0.94819229097E+01  0.16335657796E+02  0.18888363545E+02  0.51100000000E-03 0.  1.
        -12    1    4    4    0    0 -0.10858786868E+02  0.64656585700E+01  0.23949603678E+02  0.27079540419E+02  0.00000000000E+00 0.  1.
</event>
<event>
 8    1  0.1244838E-006  0.9118800E+02  0.7816164E-02  0.1184000E+00
        -11   -1    0    0    0    0  0.00000000000E+00  0.00000000000E+00  0.45593999997E+02  0.45594000000E+02  0.51100000000E-03 0. -1.
         11   -1    0    0    0    0 -0.00000000000E+00 -0.00000000000E+00 -0.45593999997E+02  0.45594000000E+02  0.51100000000E-03 0.  1.
         23    2    1    2    0    0  0.00000000000E+00  0.13322676296E-14  0.88817841970E-15  0.91188000000E+02  0.91188000000E+02 0.  0.
    9900012    2    3    3    0    0 -0.36009109340E+02  0.32880009724E+01  0.69507526347E+01  0.54367083824E+02  0.39999999193E+02 0.  0.
        -12    1    3    3    0    0  0.36009109340E+02 -0.32880009724E+01 -0.69507526347E+01  0.36820916176E+02  0.00000000000E+00 0.  1.
         11    1    4    4    0    0 -0.24158128581E+02  0.16320748637E+01  0.39999871031E+01  0.24541367973E+02  0.51100000000E-03 0. -1.
        -11    1    4    4    0    0 -0.69630186345E+01 -0.10381458367E+02  0.90903137956E+01  0.15456135076E+02  0.51100000000E-03 0.  1.
        -12    1    4    4    0    0 -0.48879621244E+01  0.12037384476E+02 -0.61395482640E+01  0.14369580775E+02  0.00000000000E+00 0.  1.
</event>
<event>
 8    1  0.1244838E-006  0.9118800E+02  0.7816164E-02  0.1184000E+00
        -11   -1    0    0    0    0  0.00000000000E+00  0.00000000000E+00  0.45593999997E+02  0.45594000000E+02  0.51100000000E-03 0.  1.
         11   -1    0    0    0    0 -0.00000000000E+00 -0.00000000000E+00 -0.45593999997E+02  0.45594000000E+02  0.51100000000E-03 0. -1.
         23    2    1    2    0    0  0.00000000000E+00  0.11102230246E-14 -0.88817841970E-15  0.91188000000E+02  0.91188000000E+02 0.  0.
    9900012    2    3    3    0    0 -0.36383138294E+02 -0.14770008483E+01  0.54650370221E+01  0.54367069631E+02  0.39999966838E+02 0.  0.
         12    1    3    3    0    0  0.36383138294E+02  0.14770008483E+01 -0.54650370221E+01  0.36820930369E+02  0.00000000000E+00 0. -1.
         11    1    4    4    0    0 -0.72972916754E+01  0.10579907723E+02  0.16713367499E+01  0.12960643503E+02  0.51100000000E-03 0. -1.
        -11    1    4    4    0    0 -0.31512419375E+02 -0.60189905485E+01 -0.27225350899E+01  0.32197407033E+02  0.51100000000E-03 0.  1.
         12    1    4    4    0    0  0.24265727565E+01 -0.60379180229E+01  0.65162353621E+01  0.92090190948E+01  0.00000000000E+00 0. -1.
</event>
<event>
 8    1  0.1244838E-006  0.9118800E+02  0.7816164E-02  0.1184000E+00
        -11   -1    0    0    0    0  0.00000000000E+00  0.00000000000E+00  0.45593999997E+02  0.45594000000E+02  0.51100000000E-03 0.  1.
         11   -1    0    0    0    0 -0.00000000000E+00 -0.00000000000E+00 -0.45593999997E+02  0.45594000000E+02  0.51100000000E-03 0. -1.
         23    2    1    2    0    0  0.00000000000E+00 -0.15543122345E-14  0.71054273576E-14  0.91188000000E+02  0.91188000000E+02 0.  0.
    9900012    2    3    3    0    0  0.16792289070E+02 -0.95869093272E+00 -0.32754831116E+02  0.54367095314E+02  0.40000025386E+02 0.  0.
        -12    1    3    3    0    0 -0.16792289070E+02  0.95869093272E+00  0.32754831116E+02  0.36820904686E+02  0.00000000000E+00 0.  1.
         11    1    4    4    0    0 -0.60754625331E+00  0.15803480447E+02 -0.10609347159E+02  0.19044089741E+02  0.51100000000E-03 0.  1.
        -11    1    4    4    0    0  0.17275969915E+02 -0.10716840958E+02 -0.20885698991E+02  0.29146564793E+02  0.51100000000E-03 0. -1.
        -12    1    4    4    0    0  0.12386540818E+00 -0.60453304215E+01 -0.12597849666E+01  0.61764407798E+01  0.00000000000E+00 0.  1.
</event>
<event>
 8    1  0.1244838E-006  0.9118800E+02  0.7816164E-02  0.1184000E+00
        -11   -1    0    0    0    0  0.00000000000E+00  0.00000000000E+00  0.45593999997E+02  0.45594000000E+02  0.51100000000E-03 0.  1.
         11   -1    0    0    0    0 -0.00000000000E+00 -0.00000000000E+00 -0.45593999997E+02  0.45594000000E+02  0.51100000000E-03 0. -1.
         23    2    1    2    0    0 -0.17763568394E-14  0.00000000000E+00  0.00000000000E+00  0.91188000000E+02  0.91188000000E+02 0.  0.
    9900012    2    3    3    0    0  0.80724321195E+01 -0.29880994324E+02  0.19943443858E+02  0.54367096493E+02  0.40000028076E+02 0.  0.
         12    1    3    3    0    0 -0.80724321195E+01  0.29880994324E+02 -0.19943443858E+02  0.36820903507E+02  0.00000000000E+00 0. -1.
         11    1    4    4    0    0  0.13924610432E+02 -0.26180608111E+02 -0.34491773783E+01  0.29853238377E+02  0.51100000000E-03 0. -1.
        -11    1    4    4    0    0 -0.62197007875E+00 -0.39329149707E+00  0.61616172890E+01  0.62054051324E+01  0.51100000000E-03 0.  1.
         12    1    4    4    0    0 -0.52302082333E+01 -0.33070947161E+01  0.17231003948E+02  0.18308452984E+02  0.00000000000E+00 0. -1.
</event>
<event>
 8    1  0.1244838E-006  0.9118800E+02  0.7816164E-02  0.1184000E+00
        -11   -1    0    0    0    0  0.00000000000E+00  0.00000000000E+00  0.45593999997E+02  0.45594000000E+02  0.51100000000E-03 0. -1.
         11   -1    0    0    0    0 -0.00000000000E+00 -0.00000000000E+00 -0.45593999997E+02  0.45594000000E+02  0.51100000000E-03 0.  1.
         23    2    1    2    0    0 -0.17763568394E-14  0.00000000000E+00  0.17763568394E-14  0.91188000000E+02  0.91188000000E+02 0.  0.
    9900012    2    3    3    0    0  0.14504305968E+02 -0.32485605554E+02 -0.94915872577E+01  0.54367086262E+02  0.40000004752E+02 0.  0.
        -12    1    3    3    0    0 -0.14504305968E+02  0.32485605554E+02  0.94915872577E+01  0.36820913738E+02  0.00000000000E+00 0.  1.
         11    1    4    4    0    0  0.15044932992E+02 -0.13894675010E+02  0.36964202915E+01  0.20810466732E+02  0.51100000000E-03 0. -1.
        -11    1    4    4    0    0  0.70317073492E+01 -0.10355279843E+02  0.39188694136E+01  0.13116183386E+02  0.51100000000E-03 0.  1.
        -12    1    4    4    0    0 -0.75723343739E+01 -0.82356507001E+01 -0.17106876963E+02  0.20440436144E+02  0.00000000000E+00 0.  1.
</event>
<event>
 8    1  0.1244838E-006  0.9118800E+02  0.7816164E-02  0.1184000E+00
        -11   -1    0    0    0    0  0.00000000000E+00  0.00000000000E+00  0.45593999997E+02  0.45594000000E+02  0.51100000000E-03 0. -1.
         11   -1    0    0    0    0 -0.00000000000E+00 -0.00000000000E+00 -0.45593999997E+02  0.45594000000E+02  0.51100000000E-03 0.  1.
         23    2    1    2    0    0  0.00000000000E+00  0.00000000000E+00  0.35527136788E-14  0.91188000000E+02  0.91188000000E+02 0.  0.
    9900012    2    3    3    0    0  0.42301982375E+01  0.29875411359E+02 -0.21103250598E+02  0.54367055324E+02  0.39999934223E+02 0.  0.
         12    1    3    3    0    0 -0.42301982375E+01 -0.29875411359E+02  0.21103250598E+02  0.36820944676E+02  0.00000000000E+00 0. -1.
         11    1    4    4    0    0  0.13278971801E+01  0.38501490959E+01 -0.10230438069E+02  0.11011304298E+02  0.51100000000E-03 0. -1.
        -11    1    4    4    0    0 -0.50299907650E+01  0.25396076518E+02 -0.18899056155E+02  0.32053639941E+02  0.51100000000E-03 0.  1.
         12    1    4    4    0    0  0.79322918224E+01  0.62918574453E+00  0.80262436263E+01  0.11302111086E+02  0.00000000000E+00 0. -1.
</event>
<event>
 8    1  0.1244838E-006  0.9118800E+02  0.7816164E-02  0.1184000E+00
        -11   -1    0    0    0    0  0.00000000000E+00  0.00000000000E+00  0.45593999997E+02  0.45594000000E+02  0.51100000000E-03 0. -1.
         11   -1    0    0    0    0 -0.00000000000E+00 -0.00000000000E+00 -0.45593999997E+02  0.45594000000E+02  0.51100000000E-03 0.  1.
         23    2    1    2    0    0  0.00000000000E+00  0.00000000000E+00  0.00000000000E+00  0.91188000000E+02  0.91188000000E+02 0.  0.
    9900012    2    3    3    0    0 -0.32512859109E+01  0.36145330481E+02 -0.62229833818E+01  0.54367064408E+02  0.39999954931E+02 0.  0.
        -12    1    3    3    0    0  0.32512859109E+01 -0.36145330481E+02  0.62229833818E+01  0.36820935592E+02  0.00000000000E+00 0.  1.
         11    1    4    4    0    0  0.17217742403E+01  0.14354251052E+02 -0.61989335345E+00  0.14470428391E+02  0.51100000000E-03 0. -1.
        -11    1    4    4    0    0 -0.12036417970E+01 -0.58795058850E+01  0.70322727552E+01  0.92450096480E+01  0.51100000000E-03 0.  1.
        -12    1    4    4    0    0 -0.37694183543E+01  0.27670585315E+02 -0.12635362784E+02  0.30651626369E+02  0.00000000000E+00 0.  1.
</event>
<event>
 8    1  0.1244838E-006  0.9118800E+02  0.7816164E-02  0.1184000E+00
        -11   -1    0    0    0    0  0.00000000000E+00  0.00000000000E+00  0.45593999997E+02  0.45594000000E+02  0.51100000000E-03 0.  1.
         11   -1    0    0    0    0 -0.00000000000E+00 -0.00000000000E+00 -0.45593999997E+02  0.45594000000E+02  0.51100000000E-03 0. -1.
         23    2    1    2    0    0  0.00000000000E+00 -0.35527136788E-14 -0.35527136788E-14  0.91188000000E+02  0.91188000000E+02 0.  0.
    9900012    2    3    3    0    0  0.17467411560E+02  0.16931350025E+02  0.27640526452E+02  0.54367084982E+02  0.40000001833E+02 0.  0.
         12    1    3    3    0    0 -0.17467411560E+02 -0.16931350025E+02 -0.27640526452E+02  0.36820915018E+02  0.00000000000E+00 0. -1.
         11    1    4    4    0    0  0.40218841270E+01 -0.20306387583E+01  0.15984525069E+02  0.16607350410E+02  0.51100000000E-03 0. -1.
        -11    1    4    4    0    0 -0.13272184230E+01 -0.20701203594E+01  0.11804070134E+02  0.12057486431E+02  0.51100000000E-03 0.  1.
         12    1    4    4    0    0  0.14772745856E+02  0.21032109143E+02 -0.14806875164E+00  0.25702248140E+02  0.00000000000E+00 0. -1.
</event>
<event>
 8    1  0.1244838E-006  0.9118800E+02  0.7816164E-02  0.1184000E+00
        -11   -1    0    0    0    0  0.00000000000E+00  0.00000000000E+00  0.45593999997E+02  0.45594000000E+02  0.51100000000E-03 0. -1.
         11   -1    0    0    0    0 -0.00000000000E+00 -0.00000000000E+00 -0.45593999997E+02  0.45594000000E+02  0.51100000000E-03 0.  1.
         23    2    1    2    0    0 -0.35527136788E-14  0.00000000000E+00  0.17763568394E-14  0.91188000000E+02  0.91188000000E+02 0.  0.
    9900012    2    3    3    0    0  0.30882302428E+02  0.14660336744E+02  0.13679903892E+02  0.54367056948E+02  0.39999937925E+02 0.  0.
        -12    1    3    3    0    0 -0.30882302428E+02 -0.14660336744E+02 -0.13679903892E+02  0.36820943052E+02  0.00000000000E+00 0.  1.
         11    1    4    4    0    0  0.90354478773E+01  0.50832445687E+01  0.25581097953E+01  0.10678137463E+02  0.51100000000E-03 0. -1.
        -11    1    4    4    0    0  0.23241783372E+02  0.37053239189E+01 -0.70278323129E+01  0.24562173090E+02  0.51100000000E-03 0.  1.
        -12    1    4    4    0    0 -0.13949288208E+01  0.58717682565E+01  0.18149626409E+02  0.19126746395E+02  0.00000000000E+00 0.  1.
</event>
<event>
 8    1  0.1244838E-006  0.9118800E+02  0.7816164E-02  0.1184000E+00
        -11   -1    0    0    0    0  0.00000000000E+00  0.00000000000E+00  0.45593999997E+02  0.45594000000E+02  0.51100000000E-03 0.  1.
         11   -1    0    0    0    0 -0.00000000000E+00 -0.00000000000E+00 -0.45593999997E+02  0.45594000000E+02  0.51100000000E-03 0. -1.
         23    2    1    2    0    0  0.00000000000E+00  0.00000000000E+00  0.00000000000E+00  0.91188000000E+02  0.91188000000E+02 0.  0.
    9900012    2    3    3    0    0  0.29269634872E+02 -0.19150701879E+02  0.11502985582E+02  0.54367087664E+02  0.40000007947E+02 0.  0.
         12    1    3    3    0    0 -0.29269634872E+02  0.19150701879E+02 -0.11502985582E+02  0.36820912336E+02  0.00000000000E+00 0. -1.
         11    1    4    4    0    0  0.19934678924E+02 -0.69687268188E+01  0.42871344617E+01  0.21548412922E+02  0.51100000000E-03 0.  1.
        -11    1    4    4    0    0  0.69892144153E+01 -0.91593330768E+01 -0.99551686014E+01  0.15226551898E+02  0.51100000000E-03 0. -1.
         12    1    4    4    0    0  0.23457415322E+01 -0.30226419830E+01  0.17171019721E+02  0.17592122844E+02  0.00000000000E+00 0. -1.
</event>
<event>
 8    1  0.1244838E-006  0.9118800E+02  0.7816164E-02  0.1184000E+00
        -11   -1    0    0    0    0  0.00000000000E+00  0.00000000000E+00  0.45593999997E+02  0.45594000000E+02  0.51100000000E-03 0.  1.
         11   -1    0    0    0    0 -0.00000000000E+00 -0.00000000000E+00 -0.45593999997E+02  0.45594000000E+02  0.51100000000E-03 0. -1.
         23    2    1    2    0    0  0.00000000000E+00  0.00000000000E+00  0.17763568394E-14  0.91188000000E+02  0.91188000000E+02 0.  0.
    9900012    2    3    3    0    0 -0.32536521445E+02  0.12829193395E+02 -0.11513753118E+02  0.54367082823E+02  0.39999996912E+02 0.  0.
        -12    1    3    3    0    0  0.32536521445E+02 -0.12829193395E+02  0.11513753118E+02  0.36820917177E+02  0.00000000000E+00 0.  1.
         11    1    4    4    0    0 -0.37113182624E+00  0.70018931757E+01  0.11902693526E+02  0.13814425805E+02  0.51100000000E-03 0. -1.
        -11    1    4    4    0    0 -0.24052552693E+02  0.62534625613E+01 -0.16036099500E+02  0.29576808018E+02  0.51100000000E-03 0.  1.
         12    1    4    4    0    0 -0.81128369251E+01 -0.42616234205E+00 -0.73803471436E+01  0.10975849000E+02  0.00000000000E+00 0. -1.
</event>
<event>
 8    1  0.1244838E-006  0.9118800E+02  0.7816164E-02  0.1184000E+00
        -11   -1    0    0    0    0  0.00000000000E+00  0.00000000000E+00  0.45593999997E+02  0.45594000000E+02  0.51100000000E-03 0.  1.
         11   -1    0    0    0    0 -0.00000000000E+00 -0.00000000000E+00 -0.45593999997E+02  0.45594000000E+02  0.51100000000E-03 0. -1.
         23    2    1    2    0    0 -0.88817841970E-15  0.71054273576E-14  0.00000000000E+00  0.91188000000E+02  0.91188000000E+02 0.  0.
    9900012    2    3    3    0    0 -0.49183365030E+01  0.36147894565E+02  0.49918475621E+01  0.54367097546E+02  0.40000030475E+02 0.  0.
         12    1    3    3    0    0  0.49183365030E+01 -0.36147894565E+02 -0.49918475621E+01  0.36820902454E+02  0.00000000000E+00 0. -1.
         11    1    4    4    0    0  0.15306054581E+01  0.34183022914E+02 -0.54498063418E+01  0.34648552611E+02  0.51100000000E-03 0. -1.
        -11    1    4    4    0    0 -0.57212909779E+01  0.84391783961E+01  0.59451845156E+01  0.11802462524E+02  0.51100000000E-03 0.  1.
        -12    1    4    4    0    0 -0.72765098323E+00 -0.64743067445E+01  0.44964693883E+01  0.79160824108E+01  0.00000000000E+00 0.  1.
</event>
<event>
 8    1  0.1244838E-006  0.9118800E+02  0.7816164E-02  0.1184000E+00
        -11   -1    0    0    0    0  0.00000000000E+00  0.00000000000E+00  0.45593999997E+02  0.45594000000E+02  0.51100000000E-03 0. -1.
         11   -1    0    0    0    0 -0.00000000000E+00 -0.00000000000E+00 -0.45593999997E+02  0.45594000000E+02  0.51100000000E-03 0.  1.
         23    2    1    2    0    0  0.00000000000E+00  0.00000000000E+00  0.35527136788E-14  0.91188000000E+02  0.91188000000E+02 0.  0.
    9900012    2    3    3    0    0 -0.13968231860E+02  0.12165556302E+02 -0.31822433360E+02  0.54367088464E+02  0.40000009771E+02 0.  0.
         12    1    3    3    0    0  0.13968231860E+02 -0.12165556302E+02  0.31822433360E+02  0.36820911536E+02  0.00000000000E+00 0. -1.
         11    1    4    4    0    0 -0.94080155351E+01  0.12080194985E+02 -0.70826813276E+01  0.16870276887E+02  0.51100000000E-03 0. -1.
        -11    1    4    4    0    0 -0.11883124183E+02  0.33727748122E+01 -0.94956575609E+00  0.12388943686E+02  0.51100000000E-03 0.  1.
         12    1    4    4    0    0  0.73229078576E+01 -0.32874134957E+01 -0.23790186276E+02  0.25107867891E+02  0.00000000000E+00 0. -1.
</event>
<event>
 8    1  0.1244838E-006  0.9118800E+02  0.7816164E-02  0.1184000E+00
        -11   -1    0    0    0    0  0.00000000000E+00  0.00000000000E+00  0.45593999997E+02  0.45594000000E+02  0.51100000000E-03 0.  1.
         11   -1    0    0    0    0 -0.00000000000E+00 -0.00000000000E+00 -0.45593999997E+02  0.45594000000E+02  0.51100000000E-03 0. -1.
         23    2    1    2    0    0  0.00000000000E+00  0.00000000000E+00  0.22204460493E-15  0.91188000000E+02  0.91188000000E+02 0.  0.
    9900012    2    3    3    0    0 -0.34568187387E+02 -0.12605944609E+02 -0.13823156721E+01  0.54367079108E+02  0.39999988443E+02 0.  0.
        -12    1    3    3    0    0  0.34568187387E+02  0.12605944609E+02  0.13823156721E+01  0.36820920892E+02  0.00000000000E+00 0.  1.
         11    1    4    4    0    0 -0.21347205934E+02 -0.14087353543E+02 -0.14376212119E+02  0.29339942164E+02  0.51100000000E-03 0. -1.
        -11    1    4    4    0    0 -0.12273262939E+02  0.75083803184E+01  0.55953614410E+01  0.15437513663E+02  0.51100000000E-03 0.  1.
         12    1    4    4    0    0 -0.94771851467E+00 -0.60269713842E+01  0.73985350059E+01  0.95896232816E+01  0.00000000000E+00 0. -1.
</event>
<event>
 8    1  0.1244838E-006  0.9118800E+02  0.7816164E-02  0.1184000E+00
        -11   -1    0    0    0    0  0.00000000000E+00  0.00000000000E+00  0.45593999997E+02  0.45594000000E+02  0.51100000000E-03 0.  1.
         11   -1    0    0    0    0 -0.00000000000E+00 -0.00000000000E+00 -0.45593999997E+02  0.45594000000E+02  0.51100000000E-03 0. -1.
         23    2    1    2    0    0 -0.88817841970E-15  0.00000000000E+00  0.00000000000E+00  0.91188000000E+02  0.91188000000E+02 0.  0.
    9900012    2    3    3    0    0 -0.40219128360E+01  0.18555315917E+01 -0.36553504955E+02  0.54367115915E+02  0.40000072350E+02 0.  0.
        -12    1    3    3    0    0  0.40219128360E+01 -0.18555315917E+01  0.36553504955E+02  0.36820884085E+02  0.00000000000E+00 0.  1.
         11    1    4    4    0    0  0.94484901023E+01 -0.22127138278E+01 -0.91088683671E+01  0.13309453441E+02  0.51100000000E-03 0. -1.
        -11    1    4    4    0    0 -0.21761842429E+01 -0.13469027292E+01 -0.28382166942E+02  0.28497321373E+02  0.51100000000E-03 0.  1.
        -12    1    4    4    0    0 -0.11294218695E+02  0.54151481487E+01  0.93753035452E+00  0.12560341101E+02  0.00000000000E+00 0.  1.
</event>
<event>
 8    1  0.1244838E-006  0.9118800E+02  0.7816164E-02  0.1184000E+00
        -11   -1    0    0    0    0  0.00000000000E+00  0.00000000000E+00  0.45593999997E+02  0.45594000000E+02  0.51100000000E-03 0.  1.
         11   -1    0    0    0    0 -0.00000000000E+00 -0.00000000000E+00 -0.45593999997E+02  0.45594000000E+02  0.51100000000E-03 0. -1.
         23    2    1    2    0    0  0.00000000000E+00  0.00000000000E+00  0.00000000000E+00  0.91188000000E+02  0.91188000000E+02 0.  0.
    9900012    2    3    3    0    0 -0.36701319415E+01  0.11256994604E+02 -0.34865311372E+02  0.54367085657E+02  0.40000003373E+02 0.  0.
        -12    1    3    3    0    0  0.36701319415E+01 -0.11256994604E+02  0.34865311372E+02  0.36820914343E+02  0.00000000000E+00 0.  1.
         11    1    4    4    0    0  0.22838828471E+01  0.58292703041E+01 -0.52724341555E+01  0.81850519438E+01  0.51100000000E-03 0. -1.
        -11    1    4    4    0    0  0.48947484466E+01  0.12841009104E+02  0.66441305166E-01  0.13742433986E+02  0.51100000000E-03 0.  1.
        -12    1    4    4    0    0 -0.10848763235E+02 -0.74132848036E+01 -0.29659318521E+02  0.32439599727E+02  0.00000000000E+00 0.  1.
</event>
<event>
 8    1  0.1244838E-006  0.9118800E+02  0.7816164E-02  0.1184000E+00
        -11   -1    0    0    0    0  0.00000000000E+00  0.00000000000E+00  0.45593999997E+02  0.45594000000E+02  0.51100000000E-03 0.  1.
         11   -1    0    0    0    0 -0.00000000000E+00 -0.00000000000E+00 -0.45593999997E+02  0.45594000000E+02  0.51100000000E-03 0. -1.
         23    2    1    2    0    0  0.35527136788E-14  0.00000000000E+00  0.35527136788E-14  0.91188000000E+02  0.91188000000E+02 0.  0.
    9900012    2    3    3    0    0 -0.23791085065E+02 -0.60492905071E+01 -0.27443948977E+02  0.54367082308E+02  0.39999995738E+02 0.  0.
        -12    1    3    3    0    0  0.23791085065E+02  0.60492905071E+01  0.27443948977E+02  0.36820917692E+02  0.00000000000E+00 0.  1.
         11    1    4    4    0    0 -0.58992720972E+01  0.34673997404E+01 -0.20294968668E+02  0.21417516797E+02  0.51100000000E-03 0. -1.
        -11    1    4    4    0    0  0.56392761697E+00 -0.12110983503E+02  0.18313198977E+01  0.12261634010E+02  0.51100000000E-03 0.  1.
         12    1    4    4    0    0 -0.18455740585E+02  0.25942932551E+01 -0.89803002067E+01  0.20687931502E+02  0.00000000000E+00 0. -1.
</event>
<event>
 8    1  0.1244838E-006  0.9118800E+02  0.7816164E-02  0.1184000E+00
        -11   -1    0    0    0    0  0.00000000000E+00  0.00000000000E+00  0.45593999997E+02  0.45594000000E+02  0.51100000000E-03 0.  1.
         11   -1    0    0    0    0 -0.00000000000E+00 -0.00000000000E+00 -0.45593999997E+02  0.45594000000E+02  0.51100000000E-03 0. -1.
         23    2    1    2    0    0  0.00000000000E+00  0.71054273576E-14 -0.35527136788E-14  0.91188000000E+02  0.91188000000E+02 0.  0.
    9900012    2    3    3    0    0  0.14625125204E+02  0.31398297839E+02 -0.12491241314E+02  0.54367102347E+02  0.40000041420E+02 0.  0.
         12    1    3    3    0    0 -0.14625125204E+02 -0.31398297839E+02  0.12491241314E+02  0.36820897653E+02  0.00000000000E+00 0. -1.
         11    1    4    4    0    0  0.12454724191E+02  0.24793785018E+02 -0.20981164316E+02  0.34785933745E+02  0.51100000000E-03 0. -1.
        -11    1    4    4    0    0  0.67731933284E+01 -0.26539571632E+01  0.40788142019E+01  0.83400456859E+01  0.51100000000E-03 0.  1.
        -12    1    4    4    0    0 -0.46027923153E+01  0.92584699844E+01  0.44111088010E+01  0.11241122916E+02  0.00000000000E+00 0.  1.
</event>
<event>
 8    1  0.1244838E-006  0.9118800E+02  0.7816164E-02  0.1184000E+00
        -11   -1    0    0    0    0  0.00000000000E+00  0.00000000000E+00  0.45593999997E+02  0.45594000000E+02  0.51100000000E-03 0. -1.
         11   -1    0    0    0    0 -0.00000000000E+00 -0.00000000000E+00 -0.45593999997E+02  0.45594000000E+02  0.51100000000E-03 0.  1.
         23    2    1    2    0    0  0.00000000000E+00  0.17763568394E-14 -0.35527136788E-14  0.91188000000E+02  0.91188000000E+02 0.  0.
    9900012    2    3    3    0    0  0.19903158737E+02 -0.15011695870E+02 -0.27097822752E+02  0.54367099162E+02  0.40000034160E+02 0.  0.
         12    1    3    3    0    0 -0.19903158737E+02  0.15011695870E+02  0.27097822752E+02  0.36820900838E+02  0.00000000000E+00 0. -1.
         11    1    4    4    0    0  0.20111247576E+02  0.50025833071E+01 -0.16655970196E+02  0.26587769035E+02  0.51100000000E-03 0. -1.
        -11    1    4    4    0    0  0.45088813836E+01 -0.11812840537E+02 -0.12838397892E+02  0.18019369400E+02  0.51100000000E-03 0.  1.
         12    1    4    4    0    0 -0.47169702222E+01 -0.82014386407E+01  0.23965453366E+01  0.97599607276E+01  0.00000000000E+00 0. -1.
</event>
<event>
 8    1  0.1244838E-006  0.9118800E+02  0.7816164E-02  0.1184000E+00
        -11   -1    0    0    0    0  0.00000000000E+00  0.00000000000E+00  0.45593999997E+02  0.45594000000E+02  0.51100000000E-03 0.  1.
         11   -1    0    0    0    0 -0.00000000000E+00 -0.00000000000E+00 -0.45593999997E+02  0.45594000000E+02  0.51100000000E-03 0. -1.
         23    2    1    2    0    0 -0.71054273576E-14  0.17763568394E-14  0.00000000000E+00  0.91188000000E+02  0.91188000000E+02 0.  0.
    9900012    2    3    3    0    0  0.35385527273E+02  0.95040898808E+01 -0.36493249442E+01  0.54367070661E+02  0.39999969185E+02 0.  0.
         12    1    3    3    0    0 -0.35385527273E+02 -0.95040898808E+01  0.36493249442E+01  0.36820929339E+02  0.00000000000E+00 0. -1.
         11    1    4    4    0    0  0.15736035687E+01 -0.11878204627E+02 -0.48408912222E+01  0.12922933159E+02  0.51100000000E-03 0. -1.
        -11    1    4    4    0    0  0.15308861364E+02  0.13801298903E+02  0.47054614111E+01  0.21141864985E+02  0.51100000000E-03 0.  1.
         12    1    4    4    0    0  0.18503062341E+02  0.75809956044E+01 -0.35138951331E+01  0.20302272517E+02  0.00000000000E+00 0. -1.
</event>
<event>
 8    1  0.1244838E-006  0.9118800E+02  0.7816164E-02  0.1184000E+00
        -11   -1    0    0    0    0  0.00000000000E+00  0.00000000000E+00  0.45593999997E+02  0.45594000000E+02  0.51100000000E-03 0.  1.
         11   -1    0    0    0    0 -0.00000000000E+00 -0.00000000000E+00 -0.45593999997E+02  0.45594000000E+02  0.51100000000E-03 0. -1.
         23    2    1    2    0    0 -0.88817841970E-15  0.00000000000E+00  0.00000000000E+00  0.91188000000E+02  0.91188000000E+02 0.  0.
    9900012    2    3    3    0    0  0.51905120498E+01  0.29721507351E+02  0.21105970904E+02  0.54367198510E+02  0.40000260642E+02 0.  0.
         12    1    3    3    0    0 -0.51905120498E+01 -0.29721507351E+02 -0.21105970904E+02  0.36820801490E+02  0.00000000000E+00 0. -1.
         11    1    4    4    0    0  0.60412383119E+01  0.32528135586E+00 -0.25818020458E+01  0.65778469400E+01  0.51100000000E-03 0. -1.
        -11    1    4    4    0    0 -0.74777162225E+01  0.32425302703E+02  0.15143650552E+02  0.36560178440E+02  0.51100000000E-03 0.  1.
        -12    1    4    4    0    0  0.66269899605E+01 -0.30290767072E+01  0.85441223976E+01  0.11229173130E+02  0.00000000000E+00 0.  1.
</event>
<event>
 8    1  0.1244838E-006  0.9118800E+02  0.7816164E-02  0.1184000E+00
        -11   -1    0    0    0    0  0.00000000000E+00  0.00000000000E+00  0.45593999997E+02  0.45594000000E+02  0.51100000000E-03 0.  1.
         11   -1    0    0    0    0 -0.00000000000E+00 -0.00000000000E+00 -0.45593999997E+02  0.45594000000E+02  0.51100000000E-03 0. -1.
         23    2    1    2    0    0  0.00000000000E+00 -0.17763568394E-14  0.00000000000E+00  0.91188000000E+02  0.91188000000E+02 0.  0.
    9900012    2    3    3    0    0  0.17087449246E+02 -0.96138283471E+01  0.31166843386E+02  0.54367099089E+02  0.40000033994E+02 0.  0.
         12    1    3    3    0    0 -0.17087449246E+02  0.96138283471E+01 -0.31166843386E+02  0.36820900911E+02  0.00000000000E+00 0. -1.
         11    1    4    4    0    0 -0.95406359976E+00  0.13453799672E+01  0.13749166662E+02  0.13847738760E+02  0.51100000000E-03 0. -1.
        -11    1    4    4    0    0  0.14967073413E+01  0.25300850500E+01 -0.72940739924E+01  0.78641578630E+01  0.51100000000E-03 0.  1.
        -12    1    4    4    0    0  0.16544805504E+02 -0.13489293364E+02  0.24711750716E+02  0.32655202466E+02  0.00000000000E+00 0.  1.
</event>
<event>
 8    1  0.1244838E-006  0.9118800E+02  0.7816164E-02  0.1184000E+00
        -11   -1    0    0    0    0  0.00000000000E+00  0.00000000000E+00  0.45593999997E+02  0.45594000000E+02  0.51100000000E-03 0.  1.
         11   -1    0    0    0    0 -0.00000000000E+00 -0.00000000000E+00 -0.45593999997E+02  0.45594000000E+02  0.51100000000E-03 0. -1.
         23    2    1    2    0    0  0.00000000000E+00 -0.35527136788E-14  0.00000000000E+00  0.91188000000E+02  0.91188000000E+02 0.  0.
    9900012    2    3    3    0    0  0.22061996819E+02 -0.24482799325E+02 -0.16420758070E+02  0.54367075758E+02  0.39999980805E+02 0.  0.
        -12    1    3    3    0    0 -0.22061996819E+02  0.24482799325E+02  0.16420758070E+02  0.36820924242E+02  0.00000000000E+00 0.  1.
         11    1    4    4    0    0  0.86448401991E+01  0.55512532841E+01  0.44741148735E+01  0.11205685131E+02  0.51100000000E-03 0. -1.
        -11    1    4    4    0    0  0.47704811990E+01 -0.18962896862E+02 -0.21549382231E+02  0.29098536442E+02  0.51100000000E-03 0.  1.
        -12    1    4    4    0    0  0.86466754214E+01 -0.11071155747E+02  0.65450928775E+00  0.14062854185E+02  0.00000000000E+00 0.  1.
</event>
<event>
 8    1  0.1244838E-006  0.9118800E+02  0.7816164E-02  0.1184000E+00
        -11   -1    0    0    0    0  0.00000000000E+00  0.00000000000E+00  0.45593999997E+02  0.45594000000E+02  0.51100000000E-03 0. -1.
         11   -1    0    0    0    0 -0.00000000000E+00 -0.00000000000E+00 -0.45593999997E+02  0.45594000000E+02  0.51100000000E-03 0.  1.
         23    2    1    2    0    0  0.71054273576E-14  0.35527136788E-14 -0.88817841970E-15  0.91188000000E+02  0.91188000000E+02 0.  0.
    9900012    2    3    3    0    0 -0.33140865765E+02 -0.15800731636E+02  0.27927740372E+01  0.54367086232E+02  0.40000004682E+02 0.  0.
         12    1    3    3    0    0  0.33140865765E+02  0.15800731636E+02 -0.27927740372E+01  0.36820913768E+02  0.00000000000E+00 0. -1.
         11    1    4    4    0    0 -0.27591946928E+02 -0.90425211183E+01  0.16836089732E+02  0.33563918740E+02  0.51100000000E-03 0. -1.
        -11    1    4    4    0    0 -0.41211631291E+01 -0.85698243334E+01 -0.36966395533E+01  0.10202500619E+02  0.51100000000E-03 0.  1.
        -12    1    4    4    0    0 -0.14277557082E+01  0.18116138155E+01 -0.10346676141E+02  0.10600666873E+02  0.00000000000E+00 0.  1.
</event>
<event>
 8    1  0.1244838E-006  0.9118800E+02  0.7816164E-02  0.1184000E+00
        -11   -1    0    0    0    0  0.00000000000E+00  0.00000000000E+00  0.45593999997E+02  0.45594000000E+02  0.51100000000E-03 0.  1.
         11   -1    0    0    0    0 -0.00000000000E+00 -0.00000000000E+00 -0.45593999997E+02  0.45594000000E+02  0.51100000000E-03 0. -1.
         23    2    1    2    0    0 -0.88817841970E-15  0.00000000000E+00 -0.35527136788E-14  0.91188000000E+02  0.91188000000E+02 0.  0.
    9900012    2    3    3    0    0 -0.54481637223E+01  0.17692361373E+02  0.31828889282E+02  0.54367077526E+02  0.39999984836E+02 0.  0.
         12    1    3    3    0    0  0.54481637223E+01 -0.17692361373E+02 -0.31828889282E+02  0.36820922474E+02  0.00000000000E+00 0. -1.
         11    1    4    4    0    0  0.16454959510E+01 -0.99970933432E+01  0.10341160643E+02  0.14477193648E+02  0.51100000000E-03 0. -1.
        -11    1    4    4    0    0 -0.11301268313E+01  0.28368550289E+00  0.91926802064E+01  0.92662308280E+01  0.51100000000E-03 0.  1.
         12    1    4    4    0    0 -0.59635328420E+01  0.27405769213E+02  0.12295048433E+02  0.30623653050E+02  0.00000000000E+00 0. -1.
</event>
<event>
 8    1  0.1244838E-006  0.9118800E+02  0.7816164E-02  0.1184000E+00
        -11   -1    0    0    0    0  0.00000000000E+00  0.00000000000E+00  0.45593999997E+02  0.45594000000E+02  0.51100000000E-03 0. -1.
         11   -1    0    0    0    0 -0.00000000000E+00 -0.00000000000E+00 -0.45593999997E+02  0.45594000000E+02  0.51100000000E-03 0.  1.
         23    2    1    2    0    0  0.00000000000E+00  0.00000000000E+00  0.17763568394E-14  0.91188000000E+02  0.91188000000E+02 0.  0.
    9900012    2    3    3    0    0 -0.33785180496E+02  0.52578000061E+01 -0.13664068339E+02  0.54366951052E+02  0.39999696512E+02 0.  0.
         12    1    3    3    0    0  0.33785180496E+02 -0.52578000061E+01  0.13664068339E+02  0.36821048948E+02  0.00000000000E+00 0. -1.
         11    1    4    4    0    0 -0.13800880824E+02 -0.19966134991E+01 -0.99813715513E+01  0.17148718765E+02  0.51100000000E-03 0. -1.
        -11    1    4    4    0    0  0.73432429102E+00  0.14436729197E+02  0.19285032605E+01  0.14583466911E+02  0.51100000000E-03 0.  1.
         12    1    4    4    0    0 -0.20718623963E+02 -0.71823156915E+01 -0.56112000480E+01  0.22634765376E+02  0.00000000000E+00 0. -1.
</event>
<event>
 8    1  0.1244838E-006  0.9118800E+02  0.7816164E-02  0.1184000E+00
        -11   -1    0    0    0    0  0.00000000000E+00  0.00000000000E+00  0.45593999997E+02  0.45594000000E+02  0.51100000000E-03 0.  1.
         11   -1    0    0    0    0 -0.00000000000E+00 -0.00000000000E+00 -0.45593999997E+02  0.45594000000E+02  0.51100000000E-03 0. -1.
         23    2    1    2    0    0  0.00000000000E+00 -0.17763568394E-14  0.00000000000E+00  0.91188000000E+02  0.91188000000E+02 0.  0.
    9900012    2    3    3    0    0 -0.32717413162E+02  0.15466463886E+02 -0.67927254801E+01  0.54367058288E+02  0.39999940978E+02 0.  0.
        -12    1    3    3    0    0  0.32717413162E+02 -0.15466463886E+02  0.67927254801E+01  0.36820941712E+02  0.00000000000E+00 0.  1.
         11    1    4    4    0    0 -0.92125722423E+01  0.97548033093E+01 -0.74291579523E+01  0.15336885703E+02  0.51100000000E-03 0. -1.
        -11    1    4    4    0    0 -0.22726719415E+02 -0.20468967499E+01 -0.10754505565E+02  0.25226037181E+02  0.51100000000E-03 0.  1.
        -12    1    4    4    0    0 -0.77812150459E+00  0.77585573270E+01  0.11390938037E+02  0.13804135403E+02  0.00000000000E+00 0.  1.
</event>
<event>
 8    1  0.1244838E-006  0.9118800E+02  0.7816164E-02  0.1184000E+00
        -11   -1    0    0    0    0  0.00000000000E+00  0.00000000000E+00  0.45593999997E+02  0.45594000000E+02  0.51100000000E-03 0. -1.
         11   -1    0    0    0    0 -0.00000000000E+00 -0.00000000000E+00 -0.45593999997E+02  0.45594000000E+02  0.51100000000E-03 0.  1.
         23    2    1    2    0    0 -0.17763568394E-14  0.88817841970E-15  0.00000000000E+00  0.91188000000E+02  0.91188000000E+02 0.  0.
    9900012    2    3    3    0    0 -0.13296669471E+02  0.65839303566E+01  0.33699114505E+02  0.54367083711E+02  0.39999998935E+02 0.  0.
        -12    1    3    3    0    0  0.13296669471E+02 -0.65839303566E+01 -0.33699114505E+02  0.36820916289E+02  0.00000000000E+00 0.  1.
         11    1    4    4    0    0 -0.13629034485E+02 -0.81540591869E+01  0.12215864306E+02  0.20036631534E+02  0.51100000000E-03 0. -1.
        -11    1    4    4    0    0 -0.46168030646E+00  0.43011574440E+01  0.23307617515E+02  0.23705656256E+02  0.51100000000E-03 0.  1.
        -12    1    4    4    0    0  0.79404532125E+00  0.10436832099E+02 -0.18243673157E+01  0.10624795920E+02  0.00000000000E+00 0.  1.
</event>
<event>
 8    1  0.1244838E-006  0.9118800E+02  0.7816164E-02  0.1184000E+00
        -11   -1    0    0    0    0  0.00000000000E+00  0.00000000000E+00  0.45593999997E+02  0.45594000000E+02  0.51100000000E-03 0.  1.
         11   -1    0    0    0    0 -0.00000000000E+00 -0.00000000000E+00 -0.45593999997E+02  0.45594000000E+02  0.51100000000E-03 0. -1.
         23    2    1    2    0    0 -0.88817841970E-15  0.00000000000E+00 -0.88817841970E-15  0.91188000000E+02  0.91188000000E+02 0.  0.
    9900012    2    3    3    0    0 -0.48837817002E+01  0.36470943919E+02  0.13399197143E+01  0.54367130117E+02  0.40000104729E+02 0.  0.
         12    1    3    3    0    0  0.48837817002E+01 -0.36470943919E+02 -0.13399197143E+01  0.36820869883E+02  0.00000000000E+00 0. -1.
         11    1    4    4    0    0 -0.15218578595E+02  0.19613348474E+02 -0.76265465240E+01  0.25970228820E+02  0.51100000000E-03 0. -1.
        -11    1    4    4    0    0 -0.40454739218E+01  0.90985477282E+01  0.64509878389E+01  0.11864428953E+02  0.51100000000E-03 0.  1.
         12    1    4    4    0    0  0.14380270817E+02  0.77590477168E+01  0.25154783993E+01  0.16532472344E+02  0.00000000000E+00 0. -1.
</event>
<event>
 8    1  0.1244838E-006  0.9118800E+02  0.7816164E-02  0.1184000E+00
        -11   -1    0    0    0    0  0.00000000000E+00  0.00000000000E+00  0.45593999997E+02  0.45594000000E+02  0.51100000000E-03 0. -1.
         11   -1    0    0    0    0 -0.00000000000E+00 -0.00000000000E+00 -0.45593999997E+02  0.45594000000E+02  0.51100000000E-03 0.  1.
         23    2    1    2    0    0 -0.35527136788E-14  0.00000000000E+00  0.88817841970E-15  0.91188000000E+02  0.91188000000E+02 0.  0.
    9900012    2    3    3    0    0 -0.18987525663E+02 -0.31536123228E+02  0.85337985324E+00  0.54367062258E+02  0.39999950029E+02 0.  0.
        -12    1    3    3    0    0  0.18987525663E+02  0.31536123228E+02 -0.85337985324E+00  0.36820937742E+02  0.00000000000E+00 0.  1.
         11    1    4    4    0    0 -0.72765160043E+01 -0.14458797794E+02 -0.52037181410E+01  0.17002446929E+02  0.51100000000E-03 0. -1.
        -11    1    4    4    0    0 -0.49105517793E-01 -0.11535274487E+02 -0.11021663844E+02  0.15954373789E+02  0.51100000000E-03 0.  1.
         12    1    4    4    0    0 -0.11661904141E+02 -0.55420509466E+01  0.17078761838E+02  0.21410241540E+02  0.00000000000E+00 0. -1.
</event>
<event>
 8    1  0.1244838E-006  0.9118800E+02  0.7816164E-02  0.1184000E+00
        -11   -1    0    0    0    0  0.00000000000E+00  0.00000000000E+00  0.45593999997E+02  0.45594000000E+02  0.51100000000E-03 0.  1.
         11   -1    0    0    0    0 -0.00000000000E+00 -0.00000000000E+00 -0.45593999997E+02  0.45594000000E+02  0.51100000000E-03 0. -1.
         23    2    1    2    0    0 -0.35527136788E-14  0.00000000000E+00  0.71054273576E-14  0.91188000000E+02  0.91188000000E+02 0.  0.
    9900012    2    3    3    0    0 -0.17431294977E+02  0.70971265464E+01  0.31647436128E+02  0.54367089320E+02  0.40000011724E+02 0.  0.
         12    1    3    3    0    0  0.17431294977E+02 -0.70971265464E+01 -0.31647436128E+02  0.36820910680E+02  0.00000000000E+00 0. -1.
         11    1    4    4    0    0  0.10698760900E+02 -0.58847677556E+01  0.11117812498E+02  0.16513622599E+02  0.51100000000E-03 0.  1.
        -11    1    4    4    0    0 -0.65381719808E+01  0.43280713355E+01  0.19423946875E+01  0.80779200119E+01  0.51100000000E-03 0. -1.
         12    1    4    4    0    0 -0.21591883896E+02  0.86538229666E+01  0.18587228943E+02  0.29775546710E+02  0.00000000000E+00 0. -1.
</event>
<event>
 8    1  0.1244838E-006  0.9118800E+02  0.7816164E-02  0.1184000E+00
        -11   -1    0    0    0    0  0.00000000000E+00  0.00000000000E+00  0.45593999997E+02  0.45594000000E+02  0.51100000000E-03 0. -1.
         11   -1    0    0    0    0 -0.00000000000E+00 -0.00000000000E+00 -0.45593999997E+02  0.45594000000E+02  0.51100000000E-03 0.  1.
         23    2    1    2    0    0  0.00000000000E+00  0.00000000000E+00 -0.35527136788E-14  0.91188000000E+02  0.91188000000E+02 0.  0.
    9900012    2    3    3    0    0 -0.14378218912E+02 -0.23343915325E+02 -0.24578614370E+02  0.54367084122E+02  0.39999999872E+02 0.  0.
         12    1    3    3    0    0  0.14378218912E+02  0.23343915325E+02  0.24578614370E+02  0.36820915878E+02  0.00000000000E+00 0. -1.
         11    1    4    4    0    0 -0.40414848046E+01  0.16752923207E+01 -0.17346032542E+02  0.17889243947E+02  0.51100000000E-03 0. -1.
        -11    1    4    4    0    0 -0.84488147165E+01  0.10015108460E+01 -0.59022866892E+01  0.10354828946E+02  0.51100000000E-03 0.  1.
         12    1    4    4    0    0 -0.18879193904E+01 -0.26020718492E+02 -0.13302951382E+01  0.26123011228E+02  0.00000000000E+00 0. -1.
</event>
<event>
 8    1  0.1244838E-006  0.9118800E+02  0.7816164E-02  0.1184000E+00
        -11   -1    0    0    0    0  0.00000000000E+00  0.00000000000E+00  0.45593999997E+02  0.45594000000E+02  0.51100000000E-03 0. -1.
         11   -1    0    0    0    0 -0.00000000000E+00 -0.00000000000E+00 -0.45593999997E+02  0.45594000000E+02  0.51100000000E-03 0.  1.
         23    2    1    2    0    0 -0.17763568394E-14 -0.17763568394E-14  0.10658141036E-13  0.91188000000E+02  0.91188000000E+02 0.  0.
    9900012    2    3    3    0    0 -0.11492201340E+02 -0.14726208975E+02  0.31730844108E+02  0.54367103891E+02  0.40000044941E+02 0.  0.
        -12    1    3    3    0    0  0.11492201340E+02  0.14726208975E+02 -0.31730844108E+02  0.36820896109E+02  0.00000000000E+00 0.  1.
         11    1    4    4    0    0  0.12322385366E+01  0.37556045802E+01  0.51771711683E+01  0.65135304668E+01  0.51100000000E-03 0. -1.
        -11    1    4    4    0    0 -0.14833084337E+02  0.33120894957E+01  0.26327502501E+01  0.15424710756E+02  0.51100000000E-03 0.  1.
         12    1    4    4    0    0  0.21086444597E+01 -0.21793903051E+02  0.23920922690E+02  0.32428862669E+02  0.00000000000E+00 0. -1.
</event>
<event>
 8    1  0.1244838E-006  0.9118800E+02  0.7816164E-02  0.1184000E+00
        -11   -1    0    0    0    0  0.00000000000E+00  0.00000000000E+00  0.45593999997E+02  0.45594000000E+02  0.51100000000E-03 0.  1.
         11   -1    0    0    0    0 -0.00000000000E+00 -0.00000000000E+00 -0.45593999997E+02  0.45594000000E+02  0.51100000000E-03 0. -1.
         23    2    1    2    0    0 -0.17763568394E-14  0.00000000000E+00  0.00000000000E+00  0.91188000000E+02  0.91188000000E+02 0.  0.
    9900012    2    3    3    0    0  0.65098207161E+01 -0.36028259245E+02  0.39200391546E+01  0.54367082888E+02  0.39999997061E+02 0.  0.
        -12    1    3    3    0    0 -0.65098207161E+01  0.36028259245E+02 -0.39200391546E+01  0.36820917112E+02  0.00000000000E+00 0.  1.
         11    1    4    4    0    0  0.16419275369E+02 -0.26971806051E+02  0.42400418475E+01  0.31859831770E+02  0.51100000000E-03 0. -1.
        -11    1    4    4    0    0  0.25708123602E+01  0.12379667292E+01 -0.49202813834E+01  0.56877769794E+01  0.51100000000E-03 0.  1.
        -12    1    4    4    0    0 -0.12480267013E+02 -0.10294419923E+02  0.46002786905E+01  0.16819474139E+02  0.00000000000E+00 0.  1.
</event>
<event>
 8    1  0.1244838E-006  0.9118800E+02  0.7816164E-02  0.1184000E+00
        -11   -1    0    0    0    0  0.00000000000E+00  0.00000000000E+00  0.45593999997E+02  0.45594000000E+02  0.51100000000E-03 0.  1.
         11   -1    0    0    0    0 -0.00000000000E+00 -0.00000000000E+00 -0.45593999997E+02  0.45594000000E+02  0.51100000000E-03 0. -1.
         23    2    1    2    0    0  0.00000000000E+00  0.88817841970E-15  0.00000000000E+00  0.91188000000E+02  0.91188000000E+02 0.  0.
    9900012    2    3    3    0    0  0.46650931346E+01  0.25113915412E+01  0.36437753673E+02  0.54367081025E+02  0.39999992813E+02 0.  0.
         12    1    3    3    0    0 -0.46650931346E+01 -0.25113915412E+01 -0.36437753673E+02  0.36820918975E+02  0.00000000000E+00 0. -1.
         11    1    4    4    0    0  0.71010126557E+01  0.23395693958E+01  0.32724362615E+01  0.81612992251E+01  0.51100000000E-03 0. -1.
        -11    1    4    4    0    0  0.31889811090E+01 -0.15158666295E+02  0.19560186935E+02  0.24951065660E+02  0.51100000000E-03 0.  1.
         12    1    4    4    0    0 -0.56249006301E+01  0.15330488441E+02  0.13605130477E+02  0.21254716141E+02  0.00000000000E+00 0. -1.
</event>
<event>
 8    1  0.1244838E-006  0.9118800E+02  0.7816164E-02  0.1184000E+00
        -11   -1    0    0    0    0  0.00000000000E+00  0.00000000000E+00  0.45593999997E+02  0.45594000000E+02  0.51100000000E-03 0.  1.
         11   -1    0    0    0    0 -0.00000000000E+00 -0.00000000000E+00 -0.45593999997E+02  0.45594000000E+02  0.51100000000E-03 0. -1.
         23    2    1    2    0    0  0.88817841970E-15 -0.71054273576E-14 -0.13322676296E-14  0.91188000000E+02  0.91188000000E+02 0.  0.
    9900012    2    3    3    0    0 -0.11377150391E+01 -0.36798720035E+02  0.58275780996E+00  0.54367084770E+02  0.40000001349E+02 0.  0.
         12    1    3    3    0    0  0.11377150391E+01  0.36798720035E+02 -0.58275780996E+00  0.36820915230E+02  0.00000000000E+00 0. -1.
         11    1    4    4    0    0  0.10315617820E+02 -0.13610474646E+02 -0.51161753079E+01  0.17827850155E+02  0.51100000000E-03 0. -1.
        -11    1    4    4    0    0  0.21592600059E+01 -0.17424474739E+02  0.11132635109E+02  0.20789667829E+02  0.51100000000E-03 0.  1.
        -12    1    4    4    0    0 -0.13612592865E+02 -0.57637706496E+01 -0.54337019915E+01  0.15749566786E+02  0.00000000000E+00 0.  1.
</event>
<event>
 8    1  0.1244838E-006  0.9118800E+02  0.7816164E-02  0.1184000E+00
        -11   -1    0    0    0    0  0.00000000000E+00  0.00000000000E+00  0.45593999997E+02  0.45594000000E+02  0.51100000000E-03 0. -1.
         11   -1    0    0    0    0 -0.00000000000E+00 -0.00000000000E+00 -0.45593999997E+02  0.45594000000E+02  0.51100000000E-03 0.  1.
         23    2    1    2    0    0  0.35527136788E-14  0.00000000000E+00  0.35527136788E-14  0.91188000000E+02  0.91188000000E+02 0.  0.
    9900012    2    3    3    0    0  0.28863575009E+02 -0.73373030222E+01  0.21652661469E+02  0.54367085744E+02  0.40000003570E+02 0.  0.
        -12    1    3    3    0    0 -0.28863575009E+02  0.73373030222E+01 -0.21652661469E+02  0.36820914256E+02  0.00000000000E+00 0.  1.
         11    1    4    4    0    0 -0.24942161311E+01  0.19884689892E+01  0.57112275155E+01  0.65416544562E+01  0.51100000000E-03 0. -1.
        -11    1    4    4    0    0 -0.13876635048E+01  0.53302623899E+00  0.13455991060E+02  0.13537851478E+02  0.51100000000E-03 0.  1.
         12    1    4    4    0    0  0.32745454645E+02 -0.98587982504E+01  0.24854428943E+01  0.34287579810E+02  0.00000000000E+00 0. -1.
</event>
<event>
 8    1  0.1244838E-006  0.9118800E+02  0.7816164E-02  0.1184000E+00
        -11   -1    0    0    0    0  0.00000000000E+00  0.00000000000E+00  0.45593999997E+02  0.45594000000E+02  0.51100000000E-03 0. -1.
         11   -1    0    0    0    0 -0.00000000000E+00 -0.00000000000E+00 -0.45593999997E+02  0.45594000000E+02  0.51100000000E-03 0.  1.
         23    2    1    2    0    0 -0.11102230246E-14  0.00000000000E+00  0.00000000000E+00  0.91188000000E+02  0.91188000000E+02 0.  0.
    9900012    2    3    3    0    0  0.18763053786E+01  0.29143391904E+02 -0.22425882442E+02  0.54367108962E+02  0.40000056500E+02 0.  0.
        -12    1    3    3    0    0 -0.18763053786E+01 -0.29143391904E+02  0.22425882442E+02  0.36820891038E+02  0.00000000000E+00 0.  1.
         11    1    4    4    0    0 -0.84420893788E+01  0.60714553396E+01 -0.77824696361E+01  0.12988390082E+02  0.51100000000E-03 0. -1.
        -11    1    4    4    0    0  0.46304434482E+01  0.10467999842E+02 -0.22665831799E+02  0.25392123949E+02  0.51100000000E-03 0.  1.
        -12    1    4    4    0    0  0.56879513093E+01  0.12603936722E+02  0.80224189933E+01  0.15986594931E+02  0.00000000000E+00 0.  1.
</event>
<event>
 8    1  0.1244838E-006  0.9118800E+02  0.7816164E-02  0.1184000E+00
        -11   -1    0    0    0    0  0.00000000000E+00  0.00000000000E+00  0.45593999997E+02  0.45594000000E+02  0.51100000000E-03 0.  1.
         11   -1    0    0    0    0 -0.00000000000E+00 -0.00000000000E+00 -0.45593999997E+02  0.45594000000E+02  0.51100000000E-03 0. -1.
         23    2    1    2    0    0  0.00000000000E+00  0.44408920985E-15  0.88817841970E-15  0.91188000000E+02  0.91188000000E+02 0.  0.
    9900012    2    3    3    0    0 -0.36012807181E+02 -0.30061498021E+01  0.70582679905E+01  0.54367104238E+02  0.40000045732E+02 0.  0.
         12    1    3    3    0    0  0.36012807181E+02  0.30061498021E+01 -0.70582679905E+01  0.36820895762E+02  0.00000000000E+00 0. -1.
         11    1    4    4    0    0 -0.11198682733E+02  0.13865516495E+02 -0.21558400426E+01  0.17953013373E+02  0.51100000000E-03 0. -1.
        -11    1    4    4    0    0 -0.21644208794E+02 -0.58730729714E+01  0.12343608822E+01  0.22460819386E+02  0.51100000000E-03 0.  1.
        -12    1    4    4    0    0 -0.31699156534E+01 -0.10998593325E+02  0.79797471508E+01  0.13953271479E+02  0.00000000000E+00 0.  1.
</event>
<event>
 8    1  0.1244838E-006  0.9118800E+02  0.7816164E-02  0.1184000E+00
        -11   -1    0    0    0    0  0.00000000000E+00  0.00000000000E+00  0.45593999997E+02  0.45594000000E+02  0.51100000000E-03 0. -1.
         11   -1    0    0    0    0 -0.00000000000E+00 -0.00000000000E+00 -0.45593999997E+02  0.45594000000E+02  0.51100000000E-03 0.  1.
         23    2    1    2    0    0  0.00000000000E+00  0.00000000000E+00  0.00000000000E+00  0.91188000000E+02  0.91188000000E+02 0.  0.
    9900012    2    3    3    0    0  0.25046636341E+01 -0.28453068353E+02  0.23236403469E+02  0.54367070017E+02  0.39999967718E+02 0.  0.
        -12    1    3    3    0    0 -0.25046636341E+01  0.28453068353E+02 -0.23236403469E+02  0.36820929983E+02  0.00000000000E+00 0.  1.
         11    1    4    4    0    0 -0.60177992720E+01 -0.13670235794E+02  0.20902563216E+02  0.25690589795E+02  0.51100000000E-03 0. -1.
        -11    1    4    4    0    0 -0.13520821489E+01 -0.15671944674E+02 -0.48182199375E+01  0.16451541558E+02  0.51100000000E-03 0.  1.
         12    1    4    4    0    0  0.98745450550E+01  0.88911211373E+00  0.71520601904E+01  0.12224938665E+02  0.00000000000E+00 0. -1.
</event>
<event>
 8    1  0.1244838E-006  0.9118800E+02  0.7816164E-02  0.1184000E+00
        -11   -1    0    0    0    0  0.00000000000E+00  0.00000000000E+00  0.45593999997E+02  0.45594000000E+02  0.51100000000E-03 0.  1.
         11   -1    0    0    0    0 -0.00000000000E+00 -0.00000000000E+00 -0.45593999997E+02  0.45594000000E+02  0.51100000000E-03 0. -1.
         23    2    1    2    0    0  0.17763568394E-14  0.71054273576E-14  0.00000000000E+00  0.91188000000E+02  0.91188000000E+02 0.  0.
    9900012    2    3    3    0    0 -0.98816146310E+01  0.35461643710E+02  0.77830285838E+00  0.54367078805E+02  0.39999987752E+02 0.  0.
        -12    1    3    3    0    0  0.98816146310E+01 -0.35461643710E+02 -0.77830285838E+00  0.36820921195E+02  0.00000000000E+00 0.  1.
         11    1    4    4    0    0 -0.28176891767E+01 -0.44660312716E+01 -0.34861566112E+01  0.63275663406E+01  0.51100000000E-03 0. -1.
        -11    1    4    4    0    0  0.78729934251E+01  0.45591894982E+01  0.31579983719E+01  0.96303264914E+01  0.51100000000E-03 0.  1.
         12    1    4    4    0    0 -0.14936918879E+02  0.35368485483E+02  0.11064610977E+01  0.38409185973E+02  0.00000000000E+00 0. -1.
</event>
<event>
 8    1  0.1244838E-006  0.9118800E+02  0.7816164E-02  0.1184000E+00
        -11   -1    0    0    0    0  0.00000000000E+00  0.00000000000E+00  0.45593999997E+02  0.45594000000E+02  0.51100000000E-03 0.  1.
         11   -1    0    0    0    0 -0.00000000000E+00 -0.00000000000E+00 -0.45593999997E+02  0.45594000000E+02  0.51100000000E-03 0. -1.
         23    2    1    2    0    0  0.35527136788E-14  0.35527136788E-14  0.00000000000E+00  0.91188000000E+02  0.91188000000E+02 0.  0.
    9900012    2    3    3    0    0 -0.20529871193E+02 -0.28627540838E+02 -0.10713035717E+02  0.54367070627E+02  0.39999969108E+02 0.  0.
        -12    1    3    3    0    0  0.20529871193E+02  0.28627540838E+02  0.10713035717E+02  0.36820929373E+02  0.00000000000E+00 0.  1.
         11    1    4    4    0    0 -0.12926771947E+02 -0.18691630242E+02 -0.13423045850E+02  0.26394253810E+02  0.51100000000E-03 0. -1.
        -11    1    4    4    0    0 -0.41077258433E+01  0.72658198129E+01  0.57807745357E+01  0.10152975113E+02  0.51100000000E-03 0.  1.
        -12    1    4    4    0    0 -0.34953734024E+01 -0.17201730409E+02 -0.30707644034E+01  0.17819841703E+02  0.00000000000E+00 0.  1.
</event>
<event>
 8    1  0.1244838E-006  0.9118800E+02  0.7816164E-02  0.1184000E+00
        -11   -1    0    0    0    0  0.00000000000E+00  0.00000000000E+00  0.45593999997E+02  0.45594000000E+02  0.51100000000E-03 0. -1.
         11   -1    0    0    0    0 -0.00000000000E+00 -0.00000000000E+00 -0.45593999997E+02  0.45594000000E+02  0.51100000000E-03 0.  1.
         23    2    1    2    0    0  0.00000000000E+00  0.17763568394E-14 -0.35527136788E-14  0.91188000000E+02  0.91188000000E+02 0.  0.
    9900012    2    3    3    0    0 -0.26158041273E+02  0.13582166896E+02 -0.22069485369E+02  0.54367074356E+02  0.39999977609E+02 0.  0.
        -12    1    3    3    0    0  0.26158041273E+02 -0.13582166896E+02  0.22069485369E+02  0.36820925644E+02  0.00000000000E+00 0.  1.
         11    1    4    4    0    0 -0.17070116848E+02  0.18004220522E+02  0.41863447558E+00  0.24813627322E+02  0.51100000000E-03 0. -1.
        -11    1    4    4    0    0 -0.23363560873E+01  0.57459655971E+01 -0.11794640828E+02  0.13326223506E+02  0.51100000000E-03 0.  1.
        -12    1    4    4    0    0 -0.67515683379E+01 -0.10168019223E+02 -0.10693479017E+02  0.16227223528E+02  0.00000000000E+00 0.  1.
</event>
<event>
 8    1  0.1244838E-006  0.9118800E+02  0.7816164E-02  0.1184000E+00
        -11   -1    0    0    0    0  0.00000000000E+00  0.00000000000E+00  0.45593999997E+02  0.45594000000E+02  0.51100000000E-03 0.  1.
         11   -1    0    0    0    0 -0.00000000000E+00 -0.00000000000E+00 -0.45593999997E+02  0.45594000000E+02  0.51100000000E-03 0. -1.
         23    2    1    2    0    0  0.14210854715E-13  0.88817841970E-15 -0.17763568394E-14  0.91188000000E+02  0.91188000000E+02 0.  0.
    9900012    2    3    3    0    0  0.34838537743E+02 -0.51289724777E+01 -0.10758704250E+02  0.54367084913E+02  0.40000001675E+02 0.  0.
        -12    1    3    3    0    0 -0.34838537743E+02  0.51289724777E+01  0.10758704250E+02  0.36820915087E+02  0.00000000000E+00 0.  1.
         11    1    4    4    0    0  0.35482000767E+02  0.18730483543E+01 -0.19887811683E+02  0.40718616656E+02  0.51100000000E-03 0. -1.
        -11    1    4    4    0    0 -0.94396068370E+00  0.10891552739E+01 -0.63940861078E-02  0.14413057026E+01  0.51100000000E-03 0.  1.
        -12    1    4    4    0    0  0.30049765950E+00 -0.80911761059E+01  0.91355015189E+01  0.12207162554E+02  0.00000000000E+00 0.  1.
</event>
<event>
 8    1  0.1244838E-006  0.9118800E+02  0.7816164E-02  0.1184000E+00
        -11   -1    0    0    0    0  0.00000000000E+00  0.00000000000E+00  0.45593999997E+02  0.45594000000E+02  0.51100000000E-03 0.  1.
         11   -1    0    0    0    0 -0.00000000000E+00 -0.00000000000E+00 -0.45593999997E+02  0.45594000000E+02  0.51100000000E-03 0. -1.
         23    2    1    2    0    0  0.00000000000E+00  0.71054273576E-14  0.00000000000E+00  0.91188000000E+02  0.91188000000E+02 0.  0.
    9900012    2    3    3    0    0  0.61031862321E+01  0.36148643417E+02  0.34360721288E+01  0.54367083461E+02  0.39999998367E+02 0.  0.
         12    1    3    3    0    0 -0.61031862321E+01 -0.36148643417E+02 -0.34360721288E+01  0.36820916539E+02  0.00000000000E+00 0. -1.
         11    1    4    4    0    0  0.26818497180E+01  0.34469105046E+01 -0.53602305843E+01  0.69141580915E+01  0.51100000000E-03 0. -1.
        -11    1    4    4    0    0  0.23857764374E+00 -0.56078758764E+01 -0.40501336185E+01  0.69216164099E+01  0.51100000000E-03 0.  1.
        -12    1    4    4    0    0  0.31827588704E+01  0.38309608789E+02  0.12846436332E+02  0.40531308960E+02  0.00000000000E+00 0.  1.
</event>
<event>
 8    1  0.1244838E-006  0.9118800E+02  0.7816164E-02  0.1184000E+00
        -11   -1    0    0    0    0  0.00000000000E+00  0.00000000000E+00  0.45593999997E+02  0.45594000000E+02  0.51100000000E-03 0.  1.
         11   -1    0    0    0    0 -0.00000000000E+00 -0.00000000000E+00 -0.45593999997E+02  0.45594000000E+02  0.51100000000E-03 0. -1.
         23    2    1    2    0    0  0.00000000000E+00  0.00000000000E+00  0.14210854715E-13  0.91188000000E+02  0.91188000000E+02 0.  0.
    9900012    2    3    3    0    0  0.69043984929E+01 -0.92707250977E+01  0.34959443460E+02  0.54367085435E+02  0.40000002865E+02 0.  0.
         12    1    3    3    0    0 -0.69043984929E+01  0.92707250977E+01 -0.34959443460E+02  0.36820914565E+02  0.00000000000E+00 0. -1.
         11    1    4    4    0    0  0.78595961642E+00 -0.52160067525E+01 -0.84350874338E+01  0.99486259975E+01  0.51100000000E-03 0. -1.
        -11    1    4    4    0    0  0.57973295203E+00  0.15099112099E+01  0.83516668799E+01  0.85068361975E+01  0.51100000000E-03 0.  1.
         12    1    4    4    0    0  0.55387059245E+01 -0.55646295551E+01  0.35042864014E+02  0.35911623240E+02  0.00000000000E+00 0. -1.
</event>
<event>
 8    1  0.1244838E-006  0.9118800E+02  0.7816164E-02  0.1184000E+00
        -11   -1    0    0    0    0  0.00000000000E+00  0.00000000000E+00  0.45593999997E+02  0.45594000000E+02  0.51100000000E-03 0. -1.
         11   -1    0    0    0    0 -0.00000000000E+00 -0.00000000000E+00 -0.45593999997E+02  0.45594000000E+02  0.51100000000E-03 0.  1.
         23    2    1    2    0    0 -0.35527136788E-14  0.00000000000E+00 -0.22204460493E-15  0.91188000000E+02  0.91188000000E+02 0.  0.
    9900012    2    3    3    0    0 -0.26898100625E+02  0.25137639285E+02 -0.61003408766E+00  0.54367070250E+02  0.39999968249E+02 0.  0.
         12    1    3    3    0    0  0.26898100625E+02 -0.25137639285E+02  0.61003408766E+00  0.36820929750E+02  0.00000000000E+00 0. -1.
         11    1    4    4    0    0  0.68981368581E+01  0.64523963353E-01 -0.36279127331E+01  0.77942418820E+01  0.51100000000E-03 0.  1.
        -11    1    4    4    0    0 -0.26430179740E+02  0.81969787143E+01 -0.11400231035E+01  0.27695568492E+02  0.51100000000E-03 0. -1.
        -12    1    4    4    0    0 -0.73660577430E+01  0.16876136607E+02  0.41579017489E+01  0.18877259876E+02  0.00000000000E+00 0.  1.
</event>
<event>
 8    1  0.1244838E-006  0.9118800E+02  0.7816164E-02  0.1184000E+00
        -11   -1    0    0    0    0  0.00000000000E+00  0.00000000000E+00  0.45593999997E+02  0.45594000000E+02  0.51100000000E-03 0.  1.
         11   -1    0    0    0    0 -0.00000000000E+00 -0.00000000000E+00 -0.45593999997E+02  0.45594000000E+02  0.51100000000E-03 0. -1.
         23    2    1    2    0    0 -0.17763568394E-14  0.00000000000E+00 -0.71054273576E-14  0.91188000000E+02  0.91188000000E+02 0.  0.
    9900012    2    3    3    0    0  0.43940547983E+01 -0.11132424245E+02  0.34821738540E+02  0.54366918239E+02  0.39999621707E+02 0.  0.
         12    1    3    3    0    0 -0.43940547983E+01  0.11132424245E+02 -0.34821738540E+02  0.36821081761E+02  0.00000000000E+00 0. -1.
         11    1    4    4    0    0  0.15771355415E+02 -0.12077576094E+01  0.75745068478E+01  0.17537602011E+02  0.51100000000E-03 0. -1.
        -11    1    4    4    0    0 -0.34087315335E+01 -0.30768871864E+01 -0.25369994027E+01  0.52462416695E+01  0.51100000000E-03 0.  1.
        -12    1    4    4    0    0 -0.79685690830E+01 -0.68477794497E+01  0.29784231095E+02  0.31583074558E+02  0.00000000000E+00 0.  1.
</event>
<event>
 8    1  0.1244838E-006  0.9118800E+02  0.7816164E-02  0.1184000E+00
        -11   -1    0    0    0    0  0.00000000000E+00  0.00000000000E+00  0.45593999997E+02  0.45594000000E+02  0.51100000000E-03 0.  1.
         11   -1    0    0    0    0 -0.00000000000E+00 -0.00000000000E+00 -0.45593999997E+02  0.45594000000E+02  0.51100000000E-03 0. -1.
         23    2    1    2    0    0  0.35527136788E-14 -0.35527136788E-14  0.35527136788E-14  0.91188000000E+02  0.91188000000E+02 0.  0.
    9900012    2    3    3    0    0  0.26206973107E+02 -0.22511718367E+02  0.12735657432E+02  0.54367083750E+02  0.39999999025E+02 0.  0.
         12    1    3    3    0    0 -0.26206973107E+02  0.22511718367E+02 -0.12735657432E+02  0.36820916250E+02  0.00000000000E+00 0. -1.
         11    1    4    4    0    0  0.54809636809E+00 -0.74786085373E+01  0.18216707656E+02  0.19699706428E+02  0.51100000000E-03 0.  1.
        -11    1    4    4    0    0  0.11300111904E+02 -0.40823044281E+00  0.41199275929E+01  0.12034657651E+02  0.51100000000E-03 0. -1.
         12    1    4    4    0    0  0.14358764834E+02 -0.14624879387E+02 -0.96009778166E+01  0.22632719671E+02  0.00000000000E+00 0. -1.
</event>
<event>
 8    1  0.1244838E-006  0.9118800E+02  0.7816164E-02  0.1184000E+00
        -11   -1    0    0    0    0  0.00000000000E+00  0.00000000000E+00  0.45593999997E+02  0.45594000000E+02  0.51100000000E-03 0.  1.
         11   -1    0    0    0    0 -0.00000000000E+00 -0.00000000000E+00 -0.45593999997E+02  0.45594000000E+02  0.51100000000E-03 0. -1.
         23    2    1    2    0    0 -0.35527136788E-14  0.88817841970E-15  0.35527136788E-14  0.91188000000E+02  0.91188000000E+02 0.  0.
    9900012    2    3    3    0    0 -0.17332979483E+02  0.70251518581E+01  0.31717424851E+02  0.54367082364E+02  0.39999995865E+02 0.  0.
         12    1    3    3    0    0  0.17332979483E+02 -0.70251518581E+01 -0.31717424851E+02  0.36820917636E+02  0.00000000000E+00 0. -1.
         11    1    4    4    0    0 -0.27473332540E+01 -0.70219736248E+01 -0.16349534085E+01  0.77155055897E+01  0.51100000000E-03 0. -1.
        -11    1    4    4    0    0 -0.19057484410E+02  0.88306072892E+01  0.11932812678E+02  0.24156973233E+02  0.51100000000E-03 0.  1.
        -12    1    4    4    0    0  0.44718381810E+01  0.52165181937E+01  0.21419565581E+02  0.22494603541E+02  0.00000000000E+00 0.  1.
</event>
<event>
 8    1  0.1244838E-006  0.9118800E+02  0.7816164E-02  0.1184000E+00
        -11   -1    0    0    0    0  0.00000000000E+00  0.00000000000E+00  0.45593999997E+02  0.45594000000E+02  0.51100000000E-03 0. -1.
         11   -1    0    0    0    0 -0.00000000000E+00 -0.00000000000E+00 -0.45593999997E+02  0.45594000000E+02  0.51100000000E-03 0.  1.
         23    2    1    2    0    0  0.88817841970E-15  0.00000000000E+00  0.00000000000E+00  0.91188000000E+02  0.91188000000E+02 0.  0.
    9900012    2    3    3    0    0 -0.65115824320E+01 -0.26531686246E+02  0.24687039611E+02  0.54367068377E+02  0.39999963980E+02 0.  0.
        -12    1    3    3    0    0  0.65115824320E+01  0.26531686246E+02 -0.24687039611E+02  0.36820931623E+02  0.00000000000E+00 0.  1.
         11    1    4    4    0    0 -0.79755091262E+01 -0.30282108478E+02  0.25528823704E+02  0.40402174194E+02  0.51100000000E-03 0. -1.
        -11    1    4    4    0    0 -0.21799754909E+01 -0.90130373235E-01 -0.61150305382E+01  0.64926123686E+01  0.51100000000E-03 0.  1.
         12    1    4    4    0    0  0.36439021850E+01  0.38405526048E+01  0.52732464452E+01  0.74722818146E+01  0.00000000000E+00 0. -1.
</event>
<event>
 8    1  0.1244838E-006  0.9118800E+02  0.7816164E-02  0.1184000E+00
        -11   -1    0    0    0    0  0.00000000000E+00  0.00000000000E+00  0.45593999997E+02  0.45594000000E+02  0.51100000000E-03 0. -1.
         11   -1    0    0    0    0 -0.00000000000E+00 -0.00000000000E+00 -0.45593999997E+02  0.45594000000E+02  0.51100000000E-03 0.  1.
         23    2    1    2    0    0  0.35527136788E-14  0.00000000000E+00  0.00000000000E+00  0.91188000000E+02  0.91188000000E+02 0.  0.
    9900012    2    3    3    0    0  0.28643937074E+02  0.19468104095E+02 -0.12501915009E+02  0.54367080850E+02  0.39999992414E+02 0.  0.
         12    1    3    3    0    0 -0.28643937074E+02 -0.19468104095E+02  0.12501915009E+02  0.36820919150E+02  0.00000000000E+00 0. -1.
         11    1    4    4    0    0  0.58325600947E+00  0.16158945025E+02  0.86327495926E+01  0.18329649688E+02  0.51100000000E-03 0. -1.
        -11    1    4    4    0    0  0.10122781909E+02  0.41969797429E+01 -0.56770797894E+01  0.12341579629E+02  0.51100000000E-03 0.  1.
         12    1    4    4    0    0  0.17937899156E+02 -0.88782067240E+00 -0.15457584812E+02  0.23695851533E+02  0.00000000000E+00 0. -1.
</event>
<event>
 8    1  0.1244838E-006  0.9118800E+02  0.7816164E-02  0.1184000E+00
        -11   -1    0    0    0    0  0.00000000000E+00  0.00000000000E+00  0.45593999997E+02  0.45594000000E+02  0.51100000000E-03 0. -1.
         11   -1    0    0    0    0 -0.00000000000E+00 -0.00000000000E+00 -0.45593999997E+02  0.45594000000E+02  0.51100000000E-03 0.  1.
         23    2    1    2    0    0  0.35527136788E-14  0.00000000000E+00  0.00000000000E+00  0.91188000000E+02  0.91188000000E+02 0.  0.
    9900012    2    3    3    0    0 -0.24650021681E+02 -0.36610419270E+01  0.27106324267E+02  0.54367087299E+02  0.40000007117E+02 0.  0.
        -12    1    3    3    0    0  0.24650021681E+02  0.36610419270E+01 -0.27106324267E+02  0.36820912701E+02  0.00000000000E+00 0.  1.
         11    1    4    4    0    0 -0.19471463970E+02  0.10296280636E+02  0.20431683252E+00  0.22027098077E+02  0.51100000000E-03 0. -1.
        -11    1    4    4    0    0 -0.16850533749E+01 -0.11968632749E+02  0.25250264852E+02  0.27993989535E+02  0.51100000000E-03 0.  1.
        -12    1    4    4    0    0 -0.34935043358E+01 -0.19886898142E+01  0.16517425829E+01  0.43459996872E+01  0.00000000000E+00 0.  1.
</event>
<event>
 8    1  0.1244838E-006  0.9118800E+02  0.7816164E-02  0.1184000E+00
        -11   -1    0    0    0    0  0.00000000000E+00  0.00000000000E+00  0.45593999997E+02  0.45594000000E+02  0.51100000000E-03 0.  1.
         11   -1    0    0    0    0 -0.00000000000E+00 -0.00000000000E+00 -0.45593999997E+02  0.45594000000E+02  0.51100000000E-03 0. -1.
         23    2    1    2    0    0  0.00000000000E+00 -0.71054273576E-14  0.35527136788E-14  0.91188000000E+02  0.91188000000E+02 0.  0.
    9900012    2    3    3    0    0  0.17194049504E+02  0.30641657391E+02 -0.11010584336E+02  0.54367089183E+02  0.40000011411E+02 0.  0.
        -12    1    3    3    0    0 -0.17194049504E+02 -0.30641657391E+02  0.11010584336E+02  0.36820910817E+02  0.00000000000E+00 0.  1.
         11    1    4    4    0    0  0.14011684566E+02  0.33306405440E+02 -0.12516177336E+02  0.38240013639E+02  0.51100000000E-03 0. -1.
        -11    1    4    4    0    0  0.69786982001E+01  0.24615828263E+00  0.62631080539E+01  0.93802636010E+01  0.51100000000E-03 0.  1.
         12    1    4    4    0    0 -0.37963332622E+01 -0.29109063325E+01 -0.47575150532E+01  0.67468119431E+01  0.00000000000E+00 0. -1.
</event>
<event>
 8    1  0.1244838E-006  0.9118800E+02  0.7816164E-02  0.1184000E+00
        -11   -1    0    0    0    0  0.00000000000E+00  0.00000000000E+00  0.45593999997E+02  0.45594000000E+02  0.51100000000E-03 0.  1.
         11   -1    0    0    0    0 -0.00000000000E+00 -0.00000000000E+00 -0.45593999997E+02  0.45594000000E+02  0.51100000000E-03 0. -1.
         23    2    1    2    0    0  0.00000000000E+00  0.00000000000E+00  0.17763568394E-14  0.91188000000E+02  0.91188000000E+02 0.  0.
    9900012    2    3    3    0    0 -0.21779033209E+02  0.25023267097E+02  0.15977816320E+02  0.54367071195E+02  0.39999970402E+02 0.  0.
         12    1    3    3    0    0  0.21779033209E+02 -0.25023267097E+02 -0.15977816320E+02  0.36820928805E+02  0.00000000000E+00 0. -1.
         11    1    4    4    0    0 -0.60207761266E+01 -0.28512108556E+01 -0.50603830092E+00  0.66809597763E+01  0.51100000000E-03 0. -1.
        -11    1    4    4    0    0 -0.20289437439E+02  0.16163503122E+02  0.21959323115E+02  0.33987232554E+02  0.51100000000E-03 0.  1.
        -12    1    4    4    0    0  0.45311803570E+01  0.11710974831E+02 -0.54754684934E+01  0.13698878864E+02  0.00000000000E+00 0.  1.
</event>
<event>
 8    1  0.1244838E-006  0.9118800E+02  0.7816164E-02  0.1184000E+00
        -11   -1    0    0    0    0  0.00000000000E+00  0.00000000000E+00  0.45593999997E+02  0.45594000000E+02  0.51100000000E-03 0.  1.
         11   -1    0    0    0    0 -0.00000000000E+00 -0.00000000000E+00 -0.45593999997E+02  0.45594000000E+02  0.51100000000E-03 0. -1.
         23    2    1    2    0    0  0.17763568394E-14  0.00000000000E+00  0.00000000000E+00  0.91188000000E+02  0.91188000000E+02 0.  0.
    9900012    2    3    3    0    0  0.85318098824E+01  0.24407735825E+02 -0.26215468197E+02  0.54367080393E+02  0.39999991371E+02 0.  0.
        -12    1    3    3    0    0 -0.85318098824E+01 -0.24407735825E+02  0.26215468197E+02  0.36820919607E+02  0.00000000000E+00 0.  1.
         11    1    4    4    0    0 -0.56257260066E+01  0.18968599442E+02 -0.13768153693E+02  0.24104327708E+02  0.51100000000E-03 0. -1.
        -11    1    4    4    0    0  0.93119450435E+00 -0.20314360868E+01 -0.14732934470E+02  0.14901450068E+02  0.51100000000E-03 0.  1.
         12    1    4    4    0    0  0.13226341385E+02  0.74705724695E+01  0.22856199658E+01  0.15361302616E+02  0.00000000000E+00 0. -1.
</event>
<event>
 8    1  0.1244838E-006  0.9118800E+02  0.7816164E-02  0.1184000E+00
        -11   -1    0    0    0    0  0.00000000000E+00  0.00000000000E+00  0.45593999997E+02  0.45594000000E+02  0.51100000000E-03 0. -1.
         11   -1    0    0    0    0 -0.00000000000E+00 -0.00000000000E+00 -0.45593999997E+02  0.45594000000E+02  0.51100000000E-03 0.  1.
         23    2    1    2    0    0  0.71054273576E-14  0.00000000000E+00 -0.44408920985E-15  0.91188000000E+02  0.91188000000E+02 0.  0.
    9900012    2    3    3    0    0  0.35430350971E+02  0.98405904208E+01  0.19061123711E+01  0.54367078581E+02  0.39999987242E+02 0.  0.
        -12    1    3    3    0    0 -0.35430350971E+02 -0.98405904208E+01 -0.19061123711E+01  0.36820921419E+02  0.00000000000E+00 0.  1.
         11    1    4    4    0    0  0.15948126598E+02 -0.40245663037E+01  0.73144587236E+01  0.18001143925E+02  0.51100000000E-03 0. -1.
        -11    1    4    4    0    0 -0.78919798562E+00  0.15364819307E+02 -0.44535761122E+01  0.16016705224E+02  0.51100000000E-03 0.  1.
        -12    1    4    4    0    0  0.20271422358E+02 -0.14996625822E+01 -0.95477024027E+00  0.20349229432E+02  0.00000000000E+00 0.  1.
</event>
<event>
 8    1  0.1244838E-006  0.9118800E+02  0.7816164E-02  0.1184000E+00
        -11   -1    0    0    0    0  0.00000000000E+00  0.00000000000E+00  0.45593999997E+02  0.45594000000E+02  0.51100000000E-03 0.  1.
         11   -1    0    0    0    0 -0.00000000000E+00 -0.00000000000E+00 -0.45593999997E+02  0.45594000000E+02  0.51100000000E-03 0. -1.
         23    2    1    2    0    0 -0.35527136788E-14  0.00000000000E+00 -0.71054273576E-14  0.91188000000E+02  0.91188000000E+02 0.  0.
    9900012    2    3    3    0    0  0.67786939612E+01  0.57702882955E+01  0.35728572416E+02  0.54367111829E+02  0.40000063037E+02 0.  0.
         12    1    3    3    0    0 -0.67786939612E+01 -0.57702882955E+01 -0.35728572416E+02  0.36820888171E+02  0.00000000000E+00 0. -1.
         11    1    4    4    0    0 -0.12308632290E+02 -0.19294577950E+00  0.35034856451E+01  0.12798987024E+02  0.51100000000E-03 0. -1.
        -11    1    4    4    0    0  0.27459272347E+01  0.89094575454E+01  0.85463743303E+01  0.12647492423E+02  0.51100000000E-03 0.  1.
         12    1    4    4    0    0  0.16341399016E+02 -0.29462234705E+01  0.23678712440E+02  0.28920632382E+02  0.00000000000E+00 0. -1.
</event>
<event>
 8    1  0.1244838E-006  0.9118800E+02  0.7816164E-02  0.1184000E+00
        -11   -1    0    0    0    0  0.00000000000E+00  0.00000000000E+00  0.45593999997E+02  0.45594000000E+02  0.51100000000E-03 0.  1.
         11   -1    0    0    0    0 -0.00000000000E+00 -0.00000000000E+00 -0.45593999997E+02  0.45594000000E+02  0.51100000000E-03 0. -1.
         23    2    1    2    0    0 -0.38857805862E-15 -0.53290705182E-14  0.00000000000E+00  0.91188000000E+02  0.91188000000E+02 0.  0.
    9900012    2    3    3    0    0  0.40994679030E+00 -0.12042219762E+02  0.34793627414E+02  0.54367087168E+02  0.40000006816E+02 0.  0.
         12    1    3    3    0    0 -0.40994679030E+00  0.12042219762E+02 -0.34793627414E+02  0.36820912832E+02  0.00000000000E+00 0. -1.
         11    1    4    4    0    0 -0.47303280199E+01  0.88519525468E+01 -0.41881783496E+00  0.10045321085E+02  0.51100000000E-03 0. -1.
        -11    1    4    4    0    0 -0.33042839792E+01 -0.12393110417E+02  0.95216982095E+01  0.15974048187E+02  0.51100000000E-03 0.  1.
         12    1    4    4    0    0  0.84445587893E+01 -0.85010618917E+01  0.25690747039E+02  0.28347717895E+02  0.00000000000E+00 0. -1.
</event>
<event>
 8    1  0.1244838E-006  0.9118800E+02  0.7816164E-02  0.1184000E+00
        -11   -1    0    0    0    0  0.00000000000E+00  0.00000000000E+00  0.45593999997E+02  0.45594000000E+02  0.51100000000E-03 0.  1.
         11   -1    0    0    0    0 -0.00000000000E+00 -0.00000000000E+00 -0.45593999997E+02  0.45594000000E+02  0.51100000000E-03 0. -1.
         23    2    1    2    0    0 -0.88817841970E-15  0.00000000000E+00  0.00000000000E+00  0.91188000000E+02  0.91188000000E+02 0.  0.
    9900012    2    3    3    0    0  0.33142900577E+01  0.16415866791E+02  0.32792001217E+02  0.54367074633E+02  0.39999978241E+02 0.  0.
         12    1    3    3    0    0 -0.33142900577E+01 -0.16415866791E+02 -0.32792001217E+02  0.36820925367E+02  0.00000000000E+00 0. -1.
         11    1    4    4    0    0  0.51255980386E+01  0.72742001759E+01 -0.66790902493E-01  0.88988878371E+01  0.51100000000E-03 0. -1.
        -11    1    4    4    0    0 -0.15521114965E+02  0.23022495293E+01  0.12938297247E+02  0.20337278544E+02  0.51100000000E-03 0.  1.
        -12    1    4    4    0    0  0.13709806984E+02  0.68394170856E+01  0.19920494873E+02  0.25130908252E+02  0.00000000000E+00 0.  1.
</event>
<event>
 8    1  0.1244838E-006  0.9118800E+02  0.7816164E-02  0.1184000E+00
        -11   -1    0    0    0    0  0.00000000000E+00  0.00000000000E+00  0.45593999997E+02  0.45594000000E+02  0.51100000000E-03 0. -1.
         11   -1    0    0    0    0 -0.00000000000E+00 -0.00000000000E+00 -0.45593999997E+02  0.45594000000E+02  0.51100000000E-03 0.  1.
         23    2    1    2    0    0 -0.71054273576E-14  0.00000000000E+00 -0.33306690739E-15  0.91188000000E+02  0.91188000000E+02 0.  0.
    9900012    2    3    3    0    0 -0.34784995294E+02  0.12057918714E+02 -0.62438303385E+00  0.54367093500E+02  0.40000021251E+02 0.  0.
        -12    1    3    3    0    0  0.34784995294E+02 -0.12057918714E+02  0.62438303385E+00  0.36820906500E+02  0.00000000000E+00 0.  1.
         11    1    4    4    0    0  0.25308299108E+01  0.68520287176E+01 -0.61020013381E+01  0.95178683630E+01  0.51100000000E-03 0.  1.
        -11    1    4    4    0    0 -0.26233335982E+02 -0.77527616885E+01  0.48841915139E+01  0.27787561202E+02  0.51100000000E-03 0. -1.
        -12    1    4    4    0    0 -0.11082489223E+02  0.12958651685E+02  0.59342679031E+00  0.17061663934E+02  0.00000000000E+00 0.  1.
</event>
<event>
 8    1  0.1244838E-006  0.9118800E+02  0.7816164E-02  0.1184000E+00
        -11   -1    0    0    0    0  0.00000000000E+00  0.00000000000E+00  0.45593999997E+02  0.45594000000E+02  0.51100000000E-03 0.  1.
         11   -1    0    0    0    0 -0.00000000000E+00 -0.00000000000E+00 -0.45593999997E+02  0.45594000000E+02  0.51100000000E-03 0. -1.
         23    2    1    2    0    0  0.00000000000E+00  0.00000000000E+00  0.00000000000E+00  0.91188000000E+02  0.91188000000E+02 0.  0.
    9900012    2    3    3    0    0  0.14021264798E+02 -0.88635056268E+01  0.32872846251E+02  0.54367060045E+02  0.39999944984E+02 0.  0.
         12    1    3    3    0    0 -0.14021264798E+02  0.88635056268E+01 -0.32872846251E+02  0.36820939955E+02  0.00000000000E+00 0. -1.
         11    1    4    4    0    0 -0.97584178830E+01 -0.24726959713E+01  0.65144922349E+01  0.11990811244E+02  0.51100000000E-03 0. -1.
        -11    1    4    4    0    0  0.92769481571E+01  0.36416778801E+01 -0.79635340553E+00  0.99978879720E+01  0.51100000000E-03 0.  1.
         12    1    4    4    0    0  0.14502734524E+02 -0.10032487536E+02  0.27154707422E+02  0.32378360829E+02  0.00000000000E+00 0. -1.
</event>
<event>
 8    1  0.1244838E-006  0.9118800E+02  0.7816164E-02  0.1184000E+00
        -11   -1    0    0    0    0  0.00000000000E+00  0.00000000000E+00  0.45593999997E+02  0.45594000000E+02  0.51100000000E-03 0.  1.
         11   -1    0    0    0    0 -0.00000000000E+00 -0.00000000000E+00 -0.45593999997E+02  0.45594000000E+02  0.51100000000E-03 0. -1.
         23    2    1    2    0    0  0.35527136788E-14 -0.35527136788E-14 -0.35527136788E-14  0.91188000000E+02  0.91188000000E+02 0.  0.
    9900012    2    3    3    0    0  0.17901286207E+02 -0.29741294514E+02 -0.12279322290E+02  0.54367049400E+02  0.39999920717E+02 0.  0.
        -12    1    3    3    0    0 -0.17901286207E+02  0.29741294514E+02  0.12279322290E+02  0.36820950600E+02  0.00000000000E+00 0.  1.
         11    1    4    4    0    0  0.37592880459E+01 -0.23634738695E+02  0.10159815196E+01  0.23953399310E+02  0.51100000000E-03 0. -1.
        -11    1    4    4    0    0 -0.15379473006E+01 -0.75867133397E+01  0.24736255590E+01  0.81266429025E+01  0.51100000000E-03 0.  1.
        -12    1    4    4    0    0  0.15679945461E+02  0.14801575210E+01 -0.15768929368E+02  0.22287007188E+02  0.00000000000E+00 0.  1.
</event>
<event>
 8    1  0.1244838E-006  0.9118800E+02  0.7816164E-02  0.1184000E+00
        -11   -1    0    0    0    0  0.00000000000E+00  0.00000000000E+00  0.45593999997E+02  0.45594000000E+02  0.51100000000E-03 0.  1.
         11   -1    0    0    0    0 -0.00000000000E+00 -0.00000000000E+00 -0.45593999997E+02  0.45594000000E+02  0.51100000000E-03 0. -1.
         23    2    1    2    0    0  0.00000000000E+00  0.22204460493E-15  0.00000000000E+00  0.91188000000E+02  0.91188000000E+02 0.  0.
    9900012    2    3    3    0    0  0.34446567341E+02  0.19968045058E+01  0.12854024445E+02  0.54367093245E+02  0.40000020671E+02 0.  0.
         12    1    3    3    0    0 -0.34446567341E+02 -0.19968045058E+01 -0.12854024445E+02  0.36820906755E+02  0.00000000000E+00 0. -1.
         11    1    4    4    0    0  0.56618469071E+01 -0.70542826927E+00 -0.72931838688E+01  0.92598418263E+01  0.51100000000E-03 0. -1.
        -11    1    4    4    0    0  0.13904768085E+02  0.12037140294E+02  0.17757388550E-01  0.18391183691E+02  0.51100000000E-03 0.  1.
         12    1    4    4    0    0  0.14879952349E+02 -0.93349075189E+01  0.20129450925E+02  0.26716067728E+02  0.00000000000E+00 0. -1.
</event>
<event>
 8    1  0.1244838E-006  0.9118800E+02  0.7816164E-02  0.1184000E+00
        -11   -1    0    0    0    0  0.00000000000E+00  0.00000000000E+00  0.45593999997E+02  0.45594000000E+02  0.51100000000E-03 0. -1.
         11   -1    0    0    0    0 -0.00000000000E+00 -0.00000000000E+00 -0.45593999997E+02  0.45594000000E+02  0.51100000000E-03 0.  1.
         23    2    1    2    0    0  0.71054273576E-14  0.00000000000E+00 -0.35527136788E-14  0.91188000000E+02  0.91188000000E+02 0.  0.
    9900012    2    3    3    0    0 -0.31887823703E+02  0.96734359361E+01  0.15664230248E+02  0.54367125858E+02  0.40000095018E+02 0.  0.
        -12    1    3    3    0    0  0.31887823703E+02 -0.96734359361E+01 -0.15664230248E+02  0.36820874142E+02  0.00000000000E+00 0.  1.
         11    1    4    4    0    0 -0.27347612321E+01  0.61527883981E+01  0.14124623227E+02  0.15647386543E+02  0.51100000000E-03 0. -1.
        -11    1    4    4    0    0 -0.84315552355E+01 -0.12997046893E+01 -0.11079928440E+02  0.13983746653E+02  0.51100000000E-03 0.  1.
        -12    1    4    4    0    0 -0.20721507236E+02  0.48203522274E+01  0.12619535461E+02  0.24735992662E+02  0.00000000000E+00 0.  1.
</event>
<event>
 8    1  0.1244838E-006  0.9118800E+02  0.7816164E-02  0.1184000E+00
        -11   -1    0    0    0    0  0.00000000000E+00  0.00000000000E+00  0.45593999997E+02  0.45594000000E+02  0.51100000000E-03 0. -1.
         11   -1    0    0    0    0 -0.00000000000E+00 -0.00000000000E+00 -0.45593999997E+02  0.45594000000E+02  0.51100000000E-03 0.  1.
         23    2    1    2    0    0 -0.88817841970E-15 -0.35527136788E-14  0.00000000000E+00  0.91188000000E+02  0.91188000000E+02 0.  0.
    9900012    2    3    3    0    0  0.65939587394E+01 -0.58857908274E+01 -0.35744320097E+02  0.54367092288E+02  0.40000018490E+02 0.  0.
         12    1    3    3    0    0 -0.65939587394E+01  0.58857908274E+01  0.35744320097E+02  0.36820907712E+02  0.00000000000E+00 0. -1.
         11    1    4    4    0    0 -0.54294754284E+00  0.57144247197E+01 -0.13486633886E+01  0.58964680198E+01  0.51100000000E-03 0. -1.
        -11    1    4    4    0    0  0.86583426658E+01 -0.20005395952E+02 -0.33381826500E+02  0.39868898977E+02  0.51100000000E-03 0.  1.
        -12    1    4    4    0    0 -0.15214363836E+01  0.84051804046E+01 -0.10138302083E+01  0.86017252917E+01  0.00000000000E+00 0.  1.
</event>
<event>
 8    1  0.1244838E-006  0.9118800E+02  0.7816164E-02  0.1184000E+00
        -11   -1    0    0    0    0  0.00000000000E+00  0.00000000000E+00  0.45593999997E+02  0.45594000000E+02  0.51100000000E-03 0. -1.
         11   -1    0    0    0    0 -0.00000000000E+00 -0.00000000000E+00 -0.45593999997E+02  0.45594000000E+02  0.51100000000E-03 0.  1.
         23    2    1    2    0    0  0.17763568394E-14  0.00000000000E+00  0.00000000000E+00  0.91188000000E+02  0.91188000000E+02 0.  0.
    9900012    2    3    3    0    0  0.12671657841E+02 -0.85030450414E+01 -0.33509811533E+02  0.54367079909E+02  0.39999990268E+02 0.  0.
         12    1    3    3    0    0 -0.12671657841E+02  0.85030450414E+01  0.33509811533E+02  0.36820920091E+02  0.00000000000E+00 0. -1.
         11    1    4    4    0    0  0.15761497928E+02  0.11460439776E+02 -0.23365342839E+02  0.30425412783E+02  0.51100000000E-03 0. -1.
        -11    1    4    4    0    0 -0.11267888195E+01 -0.85636014318E+01 -0.87419468600E+01  0.12289286297E+02  0.51100000000E-03 0.  1.
         12    1    4    4    0    0 -0.19630512676E+01 -0.11399883385E+02 -0.14025218341E+01  0.11652380828E+02  0.00000000000E+00 0. -1.
</event>
<event>
 8    1  0.1244838E-006  0.9118800E+02  0.7816164E-02  0.1184000E+00
        -11   -1    0    0    0    0  0.00000000000E+00  0.00000000000E+00  0.45593999997E+02  0.45594000000E+02  0.51100000000E-03 0. -1.
         11   -1    0    0    0    0 -0.00000000000E+00 -0.00000000000E+00 -0.45593999997E+02  0.45594000000E+02  0.51100000000E-03 0.  1.
         23    2    1    2    0    0 -0.17763568394E-14  0.00000000000E+00  0.00000000000E+00  0.91188000000E+02  0.91188000000E+02 0.  0.
    9900012    2    3    3    0    0 -0.13913693845E+02 -0.30850730858E+02 -0.14505938928E+02  0.54367072051E+02  0.39999972354E+02 0.  0.
         12    1    3    3    0    0  0.13913693845E+02  0.30850730858E+02  0.14505938928E+02  0.36820927949E+02  0.00000000000E+00 0. -1.
         11    1    4    4    0    0  0.30729432381E+01 -0.90335451119E+01  0.69399045583E+01  0.11798736923E+02  0.51100000000E-03 0. -1.
        -11    1    4    4    0    0 -0.13007317974E+02 -0.10611638982E+02  0.13669896600E+01  0.16842382959E+02  0.51100000000E-03 0.  1.
        -12    1    4    4    0    0 -0.39793191094E+01 -0.11205546764E+02 -0.22812833146E+02  0.25725952169E+02  0.00000000000E+00 0.  1.
</event>
<event>
 8    1  0.1244838E-006  0.9118800E+02  0.7816164E-02  0.1184000E+00
        -11   -1    0    0    0    0  0.00000000000E+00  0.00000000000E+00  0.45593999997E+02  0.45594000000E+02  0.51100000000E-03 0. -1.
         11   -1    0    0    0    0 -0.00000000000E+00 -0.00000000000E+00 -0.45593999997E+02  0.45594000000E+02  0.51100000000E-03 0.  1.
         23    2    1    2    0    0 -0.35527136788E-14  0.00000000000E+00 -0.71054273576E-14  0.91188000000E+02  0.91188000000E+02 0.  0.
    9900012    2    3    3    0    0  0.26153035636E+02  0.16687619081E+02  0.19832326355E+02  0.54367094631E+02  0.40000023830E+02 0.  0.
        -12    1    3    3    0    0 -0.26153035636E+02 -0.16687619081E+02 -0.19832326355E+02  0.36820905369E+02  0.00000000000E+00 0.  1.
         11    1    4    4    0    0  0.13424354583E+02  0.16676105397E+02 -0.44622114399E+01  0.21868175927E+02  0.51100000000E-03 0. -1.
        -11    1    4    4    0    0 -0.25256907715E+01  0.83573613850E+00  0.13583181048E+02  0.13841256317E+02  0.51100000000E-03 0.  1.
         12    1    4    4    0    0  0.15254371825E+02 -0.82422245476E+00  0.10711356746E+02  0.18657662387E+02  0.00000000000E+00 0. -1.
</event>
<event>
 8    1  0.1244838E-006  0.9118800E+02  0.7816164E-02  0.1184000E+00
        -11   -1    0    0    0    0  0.00000000000E+00  0.00000000000E+00  0.45593999997E+02  0.45594000000E+02  0.51100000000E-03 0. -1.
         11   -1    0    0    0    0 -0.00000000000E+00 -0.00000000000E+00 -0.45593999997E+02  0.45594000000E+02  0.51100000000E-03 0.  1.
         23    2    1    2    0    0  0.35527136788E-14  0.35527136788E-14  0.00000000000E+00  0.91188000000E+02  0.91188000000E+02 0.  0.
    9900012    2    3    3    0    0 -0.29668161318E+02 -0.21164906487E+02  0.52560955522E+01  0.54367087423E+02  0.40000007398E+02 0.  0.
        -12    1    3    3    0    0  0.29668161318E+02  0.21164906487E+02 -0.52560955522E+01  0.36820912577E+02  0.00000000000E+00 0.  1.
         11    1    4    4    0    0 -0.57151001853E+01 -0.81653364083E+01  0.13201862322E+02  0.16541591756E+02  0.51100000000E-03 0.  1.
        -11    1    4    4    0    0 -0.82331879453E+01  0.73830511370E+01 -0.68118713070E+00  0.11079659020E+02  0.51100000000E-03 0. -1.
         12    1    4    4    0    0 -0.15719873187E+02 -0.20382621215E+02 -0.72645796389E+01  0.26745836647E+02  0.00000000000E+00 0. -1.
</event>
<event>
 8    1  0.1244838E-006  0.9118800E+02  0.7816164E-02  0.1184000E+00
        -11   -1    0    0    0    0  0.00000000000E+00  0.00000000000E+00  0.45593999997E+02  0.45594000000E+02  0.51100000000E-03 0. -1.
         11   -1    0    0    0    0 -0.00000000000E+00 -0.00000000000E+00 -0.45593999997E+02  0.45594000000E+02  0.51100000000E-03 0.  1.
         23    2    1    2    0    0  0.00000000000E+00 -0.26645352591E-14 -0.71054273576E-14  0.91188000000E+02  0.91188000000E+02 0.  0.
    9900012    2    3    3    0    0 -0.14808787249E+02 -0.57379996210E+01 -0.33219798620E+02  0.54367084207E+02  0.40000000068E+02 0.  0.
         12    1    3    3    0    0  0.14808787249E+02  0.57379996210E+01  0.33219798620E+02  0.36820915793E+02  0.00000000000E+00 0. -1.
         11    1    4    4    0    0 -0.90807658425E+01  0.39656166876E+01  0.58441530215E+01  0.11503936231E+02  0.51100000000E-03 0. -1.
        -11    1    4    4    0    0 -0.64681731613E+01 -0.86828791390E+01 -0.13672362274E+02  0.17440273639E+02  0.51100000000E-03 0.  1.
         12    1    4    4    0    0  0.74015175436E+00 -0.10207371696E+01 -0.25391589368E+02  0.25422874338E+02  0.00000000000E+00 0. -1.
</event>
<event>
 8    1  0.1244838E-006  0.9118800E+02  0.7816164E-02  0.1184000E+00
        -11   -1    0    0    0    0  0.00000000000E+00  0.00000000000E+00  0.45593999997E+02  0.45594000000E+02  0.51100000000E-03 0.  1.
         11   -1    0    0    0    0 -0.00000000000E+00 -0.00000000000E+00 -0.45593999997E+02  0.45594000000E+02  0.51100000000E-03 0. -1.
         23    2    1    2    0    0  0.22204460493E-15  0.00000000000E+00  0.00000000000E+00  0.91188000000E+02  0.91188000000E+02 0.  0.
    9900012    2    3    3    0    0  0.53496648958E+00 -0.33282622738E+02 -0.15740487234E+02  0.54367053464E+02  0.39999929982E+02 0.  0.
        -12    1    3    3    0    0 -0.53496648958E+00  0.33282622738E+02  0.15740487234E+02  0.36820946536E+02  0.00000000000E+00 0.  1.
         11    1    4    4    0    0  0.34597252868E+01 -0.84926068545E+01 -0.20109278643E+02  0.22101519361E+02  0.51100000000E-03 0. -1.
        -11    1    4    4    0    0 -0.20823695057E+01 -0.13347351262E+02 -0.77523709748E+01  0.15575214427E+02  0.51100000000E-03 0.  1.
        -12    1    4    4    0    0 -0.84238929151E+00 -0.11442664621E+02  0.12121162384E+02  0.16690319676E+02  0.00000000000E+00 0.  1.
</event>
<event>
 8    1  0.1244838E-006  0.9118800E+02  0.7816164E-02  0.1184000E+00
        -11   -1    0    0    0    0  0.00000000000E+00  0.00000000000E+00  0.45593999997E+02  0.45594000000E+02  0.51100000000E-03 0.  1.
         11   -1    0    0    0    0 -0.00000000000E+00 -0.00000000000E+00 -0.45593999997E+02  0.45594000000E+02  0.51100000000E-03 0. -1.
         23    2    1    2    0    0  0.44408920985E-15 -0.16445178552E-14  0.00000000000E+00  0.91188000000E+02  0.91188000000E+02 0.  0.
    9900012    2    3    3    0    0 -0.25398262235E+01  0.57505444464E-01 -0.36733145703E+02  0.54367108955E+02  0.40000056485E+02 0.  0.
        -12    1    3    3    0    0  0.25398262235E+01 -0.57505444464E-01  0.36733145703E+02  0.36820891045E+02  0.00000000000E+00 0.  1.
         11    1    4    4    0    0 -0.72759577067E+00  0.15454443271E+02 -0.14701281968E+02  0.21342373443E+02  0.51100000000E-03 0. -1.
        -11    1    4    4    0    0  0.23446005748E+01  0.28818936140E+01  0.46210311833E+00  0.37437951614E+01  0.51100000000E-03 0.  1.
        -12    1    4    4    0    0 -0.41568310276E+01 -0.18278831441E+02 -0.22493966853E+02  0.29280940351E+02  0.00000000000E+00 0.  1.
</event>
<event>
 8    1  0.1244838E-006  0.9118800E+02  0.7816164E-02  0.1184000E+00
        -11   -1    0    0    0    0  0.00000000000E+00  0.00000000000E+00  0.45593999997E+02  0.45594000000E+02  0.51100000000E-03 0.  1.
         11   -1    0    0    0    0 -0.00000000000E+00 -0.00000000000E+00 -0.45593999997E+02  0.45594000000E+02  0.51100000000E-03 0. -1.
         23    2    1    2    0    0 -0.35527136788E-14 -0.35527136788E-14  0.17763568394E-14  0.91188000000E+02  0.91188000000E+02 0.  0.
    9900012    2    3    3    0    0  0.31897272989E+02  0.14999754989E+02  0.10646926555E+02  0.54367004374E+02  0.39999818071E+02 0.  0.
         12    1    3    3    0    0 -0.31897272989E+02 -0.14999754989E+02 -0.10646926555E+02  0.36820995626E+02  0.00000000000E+00 0. -1.
         11    1    4    4    0    0  0.43556177675E+01  0.23964036091E+01  0.14827752617E+02  0.15638938721E+02  0.51100000000E-03 0. -1.
        -11    1    4    4    0    0  0.73801952903E+01  0.13909524706E+02  0.50212681798E+01  0.16527410398E+02  0.51100000000E-03 0.  1.
         12    1    4    4    0    0  0.20161459931E+02 -0.13061733266E+01 -0.92020942414E+01  0.22200655254E+02  0.00000000000E+00 0. -1.
</event>
<event>
 8    1  0.1244838E-006  0.9118800E+02  0.7816164E-02  0.1184000E+00
        -11   -1    0    0    0    0  0.00000000000E+00  0.00000000000E+00  0.45593999997E+02  0.45594000000E+02  0.51100000000E-03 0. -1.
         11   -1    0    0    0    0 -0.00000000000E+00 -0.00000000000E+00 -0.45593999997E+02  0.45594000000E+02  0.51100000000E-03 0.  1.
         23    2    1    2    0    0  0.00000000000E+00  0.00000000000E+00  0.71054273576E-14  0.91188000000E+02  0.91188000000E+02 0.  0.
    9900012    2    3    3    0    0 -0.10178129426E+02  0.96461479680E+01  0.34046112101E+02  0.54367078794E+02  0.39999987727E+02 0.  0.
        -12    1    3    3    0    0  0.10178129426E+02 -0.96461479680E+01 -0.34046112101E+02  0.36820921206E+02  0.00000000000E+00 0.  1.
         11    1    4    4    0    0 -0.13694400537E+02  0.15701088206E+02  0.76207827497E+01  0.22184163426E+02  0.51100000000E-03 0. -1.
        -11    1    4    4    0    0 -0.53924067671E+01 -0.22970889167E+01  0.19305085399E+02  0.20175256895E+02  0.51100000000E-03 0.  1.
        -12    1    4    4    0    0  0.89086778776E+01 -0.37578513214E+01  0.71202439524E+01  0.12007658474E+02  0.00000000000E+00 0.  1.
</event>
<event>
 8    1  0.1244838E-006  0.9118800E+02  0.7816164E-02  0.1184000E+00
        -11   -1    0    0    0    0  0.00000000000E+00  0.00000000000E+00  0.45593999997E+02  0.45594000000E+02  0.51100000000E-03 0.  1.
         11   -1    0    0    0    0 -0.00000000000E+00 -0.00000000000E+00 -0.45593999997E+02  0.45594000000E+02  0.51100000000E-03 0. -1.
         23    2    1    2    0    0  0.00000000000E+00 -0.88817841970E-15 -0.17763568394E-14  0.91188000000E+02  0.91188000000E+02 0.  0.
    9900012    2    3    3    0    0  0.34133332675E+02  0.50955513533E+01  0.12834766437E+02  0.54367078330E+02  0.39999986670E+02 0.  0.
         12    1    3    3    0    0 -0.34133332675E+02 -0.50955513533E+01 -0.12834766437E+02  0.36820921670E+02  0.00000000000E+00 0. -1.
         11    1    4    4    0    0  0.13145580261E+00  0.93781894772E+01 -0.68139134264E-01  0.93793582776E+01  0.51100000000E-03 0. -1.
        -11    1    4    4    0    0  0.36775387969E+01 -0.61197389661E+00  0.13934513837E+02  0.14424613679E+02  0.51100000000E-03 0.  1.
         12    1    4    4    0    0  0.30324338075E+02 -0.36706642273E+01 -0.10316082658E+01  0.30563106374E+02  0.00000000000E+00 0. -1.
</event>
<event>
 8    1  0.1244838E-006  0.9118800E+02  0.7816164E-02  0.1184000E+00
        -11   -1    0    0    0    0  0.00000000000E+00  0.00000000000E+00  0.45593999997E+02  0.45594000000E+02  0.51100000000E-03 0. -1.
         11   -1    0    0    0    0 -0.00000000000E+00 -0.00000000000E+00 -0.45593999997E+02  0.45594000000E+02  0.51100000000E-03 0.  1.
         23    2    1    2    0    0  0.00000000000E+00  0.00000000000E+00  0.00000000000E+00  0.91188000000E+02  0.91188000000E+02 0.  0.
    9900012    2    3    3    0    0  0.27150401448E+02  0.21538847055E+02  0.12438356275E+02  0.54367096452E+02  0.40000027982E+02 0.  0.
        -12    1    3    3    0    0 -0.27150401448E+02 -0.21538847055E+02 -0.12438356275E+02  0.36820903548E+02  0.00000000000E+00 0.  1.
         11    1    4    4    0    0 -0.13748148103E+01  0.15244171362E+02 -0.33559183993E+01  0.15669622358E+02  0.51100000000E-03 0. -1.
        -11    1    4    4    0    0  0.24838189936E+02  0.94899172402E+01  0.52830386587E+01  0.27109125885E+02  0.51100000000E-03 0.  1.
        -12    1    4    4    0    0  0.36870263220E+01 -0.31952415470E+01  0.10511236015E+02  0.11588348209E+02  0.00000000000E+00 0.  1.
</event>
<event>
 8    1  0.1244838E-006  0.9118800E+02  0.7816164E-02  0.1184000E+00
        -11   -1    0    0    0    0  0.00000000000E+00  0.00000000000E+00  0.45593999997E+02  0.45594000000E+02  0.51100000000E-03 0. -1.
         11   -1    0    0    0    0 -0.00000000000E+00 -0.00000000000E+00 -0.45593999997E+02  0.45594000000E+02  0.51100000000E-03 0.  1.
         23    2    1    2    0    0 -0.35527136788E-14 -0.71054273576E-14 -0.17763568394E-14  0.91188000000E+02  0.91188000000E+02 0.  0.
    9900012    2    3    3    0    0  0.15170210715E+02  0.31731653681E+02  0.10897097341E+02  0.54367083812E+02  0.39999999166E+02 0.  0.
        -12    1    3    3    0    0 -0.15170210715E+02 -0.31731653681E+02 -0.10897097341E+02  0.36820916188E+02  0.00000000000E+00 0.  1.
         11    1    4    4    0    0  0.91840899755E+01  0.14571537422E+02  0.11702189371E+02  0.20823507098E+02  0.51100000000E-03 0. -1.
        -11    1    4    4    0    0  0.12470357921E+02  0.19940378165E+02  0.54195053470E+01  0.24135027378E+02  0.51100000000E-03 0.  1.
        -12    1    4    4    0    0 -0.64842371818E+01 -0.27802619065E+01 -0.62245973771E+01  0.94085493359E+01  0.00000000000E+00 0.  1.
</event>
<event>
 8    1  0.1244838E-006  0.9118800E+02  0.7816164E-02  0.1184000E+00
        -11   -1    0    0    0    0  0.00000000000E+00  0.00000000000E+00  0.45593999997E+02  0.45594000000E+02  0.51100000000E-03 0.  1.
         11   -1    0    0    0    0 -0.00000000000E+00 -0.00000000000E+00 -0.45593999997E+02  0.45594000000E+02  0.51100000000E-03 0. -1.
         23    2    1    2    0    0  0.00000000000E+00  0.00000000000E+00 -0.26645352591E-14  0.91188000000E+02  0.91188000000E+02 0.  0.
    9900012    2    3    3    0    0 -0.34586249933E+02  0.97843392227E+01  0.79898051200E+01  0.54367096096E+02  0.40000027170E+02 0.  0.
         12    1    3    3    0    0  0.34586249933E+02 -0.97843392227E+01 -0.79898051200E+01  0.36820903904E+02  0.00000000000E+00 0. -1.
         11    1    4    4    0    0 -0.24649955815E+00  0.11916001731E+01 -0.31730098437E+01  0.33983326403E+01  0.51100000000E-03 0. -1.
        -11    1    4    4    0    0 -0.31605665718E+01  0.25835281024E+00  0.17748706525E+02  0.18029767352E+02  0.51100000000E-03 0.  1.
        -12    1    4    4    0    0 -0.31179183803E+02  0.83343862393E+01 -0.65858915608E+01  0.32938996103E+02  0.00000000000E+00 0.  1.
</event>
<event>
 8    1  0.1244838E-006  0.9118800E+02  0.7816164E-02  0.1184000E+00
        -11   -1    0    0    0    0  0.00000000000E+00  0.00000000000E+00  0.45593999997E+02  0.45594000000E+02  0.51100000000E-03 0. -1.
         11   -1    0    0    0    0 -0.00000000000E+00 -0.00000000000E+00 -0.45593999997E+02  0.45594000000E+02  0.51100000000E-03 0.  1.
         23    2    1    2    0    0  0.17763568394E-14  0.88817841970E-15  0.00000000000E+00  0.91188000000E+02  0.91188000000E+02 0.  0.
    9900012    2    3    3    0    0  0.97609454884E+01 -0.52795743836E+01  0.35108838440E+02  0.54367075254E+02  0.39999979657E+02 0.  0.
        -12    1    3    3    0    0 -0.97609454884E+01  0.52795743836E+01 -0.35108838440E+02  0.36820924746E+02  0.00000000000E+00 0.  1.
         11    1    4    4    0    0 -0.84746693590E+01 -0.57594769181E+01  0.76587884772E+01  0.12792522672E+02  0.51100000000E-03 0. -1.
        -11    1    4    4    0    0  0.18919109628E+02 -0.87319201678E+01  0.23825462080E+02  0.31651726375E+02  0.51100000000E-03 0.  1.
        -12    1    4    4    0    0 -0.68349478100E+00  0.92118227023E+01  0.36245878832E+01  0.99228262072E+01  0.00000000000E+00 0.  1.
</event>
<event>
 8    1  0.1244838E-006  0.9118800E+02  0.7816164E-02  0.1184000E+00
        -11   -1    0    0    0    0  0.00000000000E+00  0.00000000000E+00  0.45593999997E+02  0.45594000000E+02  0.51100000000E-03 0. -1.
         11   -1    0    0    0    0 -0.00000000000E+00 -0.00000000000E+00 -0.45593999997E+02  0.45594000000E+02  0.51100000000E-03 0.  1.
         23    2    1    2    0    0  0.00000000000E+00 -0.88817841970E-15 -0.71054273576E-14  0.91188000000E+02  0.91188000000E+02 0.  0.
    9900012    2    3    3    0    0  0.19207055758E+02  0.77705365347E+01  0.30438286497E+02  0.54367061476E+02  0.39999948246E+02 0.  0.
        -12    1    3    3    0    0 -0.19207055758E+02 -0.77705365347E+01 -0.30438286497E+02  0.36820938524E+02  0.00000000000E+00 0.  1.
         11    1    4    4    0    0  0.18842759665E+02 -0.76254012003E+01  0.59566078892E+01  0.21182009184E+02  0.51100000000E-03 0. -1.
        -11    1    4    4    0    0 -0.46934455704E+01 -0.10328092949E+01  0.29718588365E+01  0.56504045490E+01  0.51100000000E-03 0.  1.
         12    1    4    4    0    0  0.50577416626E+01  0.16428747030E+02  0.21509819772E+02  0.27534647742E+02  0.00000000000E+00 0. -1.
</event>
<event>
 8    1  0.1244838E-006  0.9118800E+02  0.7816164E-02  0.1184000E+00
        -11   -1    0    0    0    0  0.00000000000E+00  0.00000000000E+00  0.45593999997E+02  0.45594000000E+02  0.51100000000E-03 0.  1.
         11   -1    0    0    0    0 -0.00000000000E+00 -0.00000000000E+00 -0.45593999997E+02  0.45594000000E+02  0.51100000000E-03 0. -1.
         23    2    1    2    0    0  0.00000000000E+00  0.17763568394E-14  0.00000000000E+00  0.91188000000E+02  0.91188000000E+02 0.  0.
    9900012    2    3    3    0    0 -0.28011515358E+02 -0.53462055668E+01  0.23292847621E+02  0.54367032374E+02  0.39999881903E+02 0.  0.
         12    1    3    3    0    0  0.28011515358E+02  0.53462055668E+01 -0.23292847621E+02  0.36820967626E+02  0.00000000000E+00 0. -1.
         11    1    4    4    0    0 -0.43600141944E+01 -0.14220906938E+01 -0.67815024027E+01  0.81866257283E+01  0.51100000000E-03 0. -1.
        -11    1    4    4    0    0 -0.16067431646E+02  0.10167037663E+02  0.17259691148E+02  0.25679329300E+02  0.51100000000E-03 0.  1.
        -12    1    4    4    0    0 -0.75840695173E+01 -0.14091152536E+02  0.12814658876E+02  0.20501077346E+02  0.00000000000E+00 0.  1.
</event>
<event>
 8    1  0.1244838E-006  0.9118800E+02  0.7816164E-02  0.1184000E+00
        -11   -1    0    0    0    0  0.00000000000E+00  0.00000000000E+00  0.45593999997E+02  0.45594000000E+02  0.51100000000E-03 0.  1.
         11   -1    0    0    0    0 -0.00000000000E+00 -0.00000000000E+00 -0.45593999997E+02  0.45594000000E+02  0.51100000000E-03 0. -1.
         23    2    1    2    0    0  0.00000000000E+00 -0.17763568394E-14 -0.35527136788E-14  0.91188000000E+02  0.91188000000E+02 0.  0.
    9900012    2    3    3    0    0 -0.26004990070E+02  0.73869490019E+01  0.24999050788E+02  0.54367094737E+02  0.40000024072E+02 0.  0.
         12    1    3    3    0    0  0.26004990070E+02 -0.73869490019E+01 -0.24999050788E+02  0.36820905263E+02  0.00000000000E+00 0. -1.
         11    1    4    4    0    0 -0.32918768416E+01  0.19314886025E+02  0.75610183617E+01  0.21001673129E+02  0.51100000000E-03 0. -1.
        -11    1    4    4    0    0 -0.36807563954E+01 -0.34508048342E+01  0.10075061814E+02  0.11267781169E+02  0.51100000000E-03 0.  1.
        -12    1    4    4    0    0 -0.19032356833E+02 -0.84771321886E+01  0.73629706123E+01  0.22097640439E+02  0.00000000000E+00 0.  1.
</event>
<event>
 8    1  0.1244838E-006  0.9118800E+02  0.7816164E-02  0.1184000E+00
        -11   -1    0    0    0    0  0.00000000000E+00  0.00000000000E+00  0.45593999997E+02  0.45594000000E+02  0.51100000000E-03 0. -1.
         11   -1    0    0    0    0 -0.00000000000E+00 -0.00000000000E+00 -0.45593999997E+02  0.45594000000E+02  0.51100000000E-03 0.  1.
         23    2    1    2    0    0  0.17763568394E-14  0.00000000000E+00  0.17763568394E-14  0.91188000000E+02  0.91188000000E+02 0.  0.
    9900012    2    3    3    0    0  0.14912792031E+02 -0.31296617553E+02  0.12406002641E+02  0.54367101886E+02  0.40000040369E+02 0.  0.
         12    1    3    3    0    0 -0.14912792031E+02  0.31296617553E+02 -0.12406002641E+02  0.36820898114E+02  0.00000000000E+00 0. -1.
         11    1    4    4    0    0 -0.26268927055E+01 -0.65291351825E+01 -0.68033437462E+01  0.97885472828E+01  0.51100000000E-03 0. -1.
        -11    1    4    4    0    0  0.11727304292E+02 -0.28619780391E+02  0.89945491964E+01  0.32210610225E+02  0.51100000000E-03 0.  1.
        -12    1    4    4    0    0  0.58123804449E+01  0.38522980206E+01  0.10214797191E+02  0.12367944378E+02  0.00000000000E+00 0.  1.
</event>
<event>
 8    1  0.1244838E-006  0.9118800E+02  0.7816164E-02  0.1184000E+00
        -11   -1    0    0    0    0  0.00000000000E+00  0.00000000000E+00  0.45593999997E+02  0.45594000000E+02  0.51100000000E-03 0.  1.
         11   -1    0    0    0    0 -0.00000000000E+00 -0.00000000000E+00 -0.45593999997E+02  0.45594000000E+02  0.51100000000E-03 0. -1.
         23    2    1    2    0    0  0.00000000000E+00  0.17763568394E-14 -0.11102230246E-14  0.91188000000E+02  0.91188000000E+02 0.  0.
    9900012    2    3    3    0    0 -0.35682177009E+02 -0.90293655024E+01 -0.10162625783E+01  0.54367082207E+02  0.39999995507E+02 0.  0.
         12    1    3    3    0    0  0.35682177009E+02  0.90293655024E+01  0.10162625783E+01  0.36820917793E+02  0.00000000000E+00 0. -1.
         11    1    4    4    0    0 -0.29689432850E+02 -0.56232638246E+01 -0.17890485854E+02  0.35116278325E+02  0.51100000000E-03 0. -1.
        -11    1    4    4    0    0 -0.45893190549E+01 -0.49375527216E+01  0.99252105901E+01  0.11997961568E+02  0.51100000000E-03 0.  1.
         12    1    4    4    0    0 -0.14034251044E+01  0.15314510439E+01  0.69490126861E+01  0.72528423142E+01  0.00000000000E+00 0. -1.
</event>
<event>
 8    1  0.1244838E-006  0.9118800E+02  0.7816164E-02  0.1184000E+00
        -11   -1    0    0    0    0  0.00000000000E+00  0.00000000000E+00  0.45593999997E+02  0.45594000000E+02  0.51100000000E-03 0. -1.
         11   -1    0    0    0    0 -0.00000000000E+00 -0.00000000000E+00 -0.45593999997E+02  0.45594000000E+02  0.51100000000E-03 0.  1.
         23    2    1    2    0    0  0.35527136788E-14  0.17763568394E-14  0.00000000000E+00  0.91188000000E+02  0.91188000000E+02 0.  0.
    9900012    2    3    3    0    0  0.30339479221E+02  0.14602464448E+02 -0.14901793805E+02  0.54367089827E+02  0.40000012878E+02 0.  0.
         12    1    3    3    0    0 -0.30339479221E+02 -0.14602464448E+02  0.14901793805E+02  0.36820910173E+02  0.00000000000E+00 0. -1.
         11    1    4    4    0    0  0.13333316463E+01 -0.67669136219E+01 -0.78686890620E+01  0.10463515712E+02  0.51100000000E-03 0. -1.
        -11    1    4    4    0    0  0.79351491849E+00 -0.46052539857E+01 -0.24656153238E+01  0.52836814235E+01  0.51100000000E-03 0.  1.
         12    1    4    4    0    0  0.28212632657E+02  0.25974632056E+02 -0.45674894189E+01  0.38619892691E+02  0.00000000000E+00 0. -1.
</event>
<event>
 8    1  0.1244838E-006  0.9118800E+02  0.7816164E-02  0.1184000E+00
        -11   -1    0    0    0    0  0.00000000000E+00  0.00000000000E+00  0.45593999997E+02  0.45594000000E+02  0.51100000000E-03 0. -1.
         11   -1    0    0    0    0 -0.00000000000E+00 -0.00000000000E+00 -0.45593999997E+02  0.45594000000E+02  0.51100000000E-03 0.  1.
         23    2    1    2    0    0  0.00000000000E+00  0.35527136788E-14  0.35527136788E-14  0.91188000000E+02  0.91188000000E+02 0.  0.
    9900012    2    3    3    0    0  0.19663643380E+02 -0.19892941886E+02  0.23945618901E+02  0.54367072902E+02  0.39999974294E+02 0.  0.
        -12    1    3    3    0    0 -0.19663643380E+02  0.19892941886E+02 -0.23945618901E+02  0.36820927098E+02  0.00000000000E+00 0.  1.
         11    1    4    4    0    0  0.84955696016E+01  0.80310195108E+01  0.20897210079E+02  0.23945048895E+02  0.51100000000E-03 0. -1.
        -11    1    4    4    0    0  0.52158954595E+01 -0.91790878189E+01  0.18496823471E+01  0.10718327466E+02  0.51100000000E-03 0.  1.
         12    1    4    4    0    0  0.59521783188E+01 -0.18744873578E+02  0.11987264749E+01  0.19703696540E+02  0.00000000000E+00 0. -1.
</event>
<event>
 8    1  0.1244838E-006  0.9118800E+02  0.7816164E-02  0.1184000E+00
        -11   -1    0    0    0    0  0.00000000000E+00  0.00000000000E+00  0.45593999997E+02  0.45594000000E+02  0.51100000000E-03 0. -1.
         11   -1    0    0    0    0 -0.00000000000E+00 -0.00000000000E+00 -0.45593999997E+02  0.45594000000E+02  0.51100000000E-03 0.  1.
         23    2    1    2    0    0  0.00000000000E+00  0.00000000000E+00  0.00000000000E+00  0.91188000000E+02  0.91188000000E+02 0.  0.
    9900012    2    3    3    0    0  0.76318902359E+01  0.27846656538E+02  0.22849242298E+02  0.54367219148E+02  0.40000307691E+02 0.  0.
        -12    1    3    3    0    0 -0.76318902359E+01 -0.27846656538E+02 -0.22849242298E+02  0.36820780852E+02  0.00000000000E+00 0.  1.
         11    1    4    4    0    0  0.37883547723E+01 -0.42891724607E+01  0.15538054497E+02  0.16558374621E+02  0.51100000000E-03 0. -1.
        -11    1    4    4    0    0  0.29978207861E+01  0.62904875412E+01 -0.55682647458E+01  0.89197945891E+01  0.51100000000E-03 0.  1.
         12    1    4    4    0    0  0.84571467750E+00  0.25845341458E+02  0.12879452547E+02  0.28889049938E+02  0.00000000000E+00 0. -1.
</event>
<event>
 8    1  0.1244838E-006  0.9118800E+02  0.7816164E-02  0.1184000E+00
        -11   -1    0    0    0    0  0.00000000000E+00  0.00000000000E+00  0.45593999997E+02  0.45594000000E+02  0.51100000000E-03 0. -1.
         11   -1    0    0    0    0 -0.00000000000E+00 -0.00000000000E+00 -0.45593999997E+02  0.45594000000E+02  0.51100000000E-03 0.  1.
         23    2    1    2    0    0  0.88817841970E-15  0.00000000000E+00  0.00000000000E+00  0.91188000000E+02  0.91188000000E+02 0.  0.
    9900012    2    3    3    0    0 -0.73724277814E+01 -0.35555209014E+02 -0.61036261924E+01  0.54367084312E+02  0.40000000306E+02 0.  0.
        -12    1    3    3    0    0  0.73724277814E+01  0.35555209014E+02  0.61036261924E+01  0.36820915688E+02  0.00000000000E+00 0.  1.
         11    1    4    4    0    0 -0.13366734970E+01 -0.23461388614E+02 -0.10384119706E+01  0.23522367046E+02  0.51100000000E-03 0. -1.
        -11    1    4    4    0    0  0.90170381769E+01  0.32468635212E+00  0.33076697242E+01  0.96100508831E+01  0.51100000000E-03 0.  1.
        -12    1    4    4    0    0 -0.15052792461E+02 -0.12418506752E+02 -0.83728839459E+01  0.21234666383E+02  0.00000000000E+00 0.  1.
</event>
<event>
 8    1  0.1244838E-006  0.9118800E+02  0.7816164E-02  0.1184000E+00
        -11   -1    0    0    0    0  0.00000000000E+00  0.00000000000E+00  0.45593999997E+02  0.45594000000E+02  0.51100000000E-03 0.  1.
         11   -1    0    0    0    0 -0.00000000000E+00 -0.00000000000E+00 -0.45593999997E+02  0.45594000000E+02  0.51100000000E-03 0. -1.
         23    2    1    2    0    0  0.00000000000E+00  0.00000000000E+00  0.00000000000E+00  0.91188000000E+02  0.91188000000E+02 0.  0.
    9900012    2    3    3    0    0 -0.24952963697E+02 -0.20848355799E+02 -0.17276419278E+02  0.54367095614E+02  0.40000026071E+02 0.  0.
         12    1    3    3    0    0  0.24952963697E+02  0.20848355799E+02  0.17276419278E+02  0.36820904386E+02  0.00000000000E+00 0. -1.
         11    1    4    4    0    0 -0.19300154634E+02 -0.19551612933E+02 -0.13580565895E+02  0.30646260905E+02  0.51100000000E-03 0. -1.
        -11    1    4    4    0    0  0.39200095915E+00 -0.11179533411E+02  0.97712236492E+00  0.11228998193E+02  0.51100000000E-03 0.  1.
         12    1    4    4    0    0 -0.60448100223E+01  0.98827905462E+01 -0.46729757476E+01  0.12491836515E+02  0.00000000000E+00 0. -1.
</event>
<event>
 8    1  0.1244838E-006  0.9118800E+02  0.7816164E-02  0.1184000E+00
        -11   -1    0    0    0    0  0.00000000000E+00  0.00000000000E+00  0.45593999997E+02  0.45594000000E+02  0.51100000000E-03 0.  1.
         11   -1    0    0    0    0 -0.00000000000E+00 -0.00000000000E+00 -0.45593999997E+02  0.45594000000E+02  0.51100000000E-03 0. -1.
         23    2    1    2    0    0  0.00000000000E+00  0.35527136788E-14  0.22204460493E-14  0.91188000000E+02  0.91188000000E+02 0.  0.
    9900012    2    3    3    0    0 -0.27297921928E+02  0.24576606045E+02  0.25678517797E+01  0.54367082452E+02  0.39999996067E+02 0.  0.
        -12    1    3    3    0    0  0.27297921928E+02 -0.24576606045E+02 -0.25678517797E+01  0.36820917548E+02  0.00000000000E+00 0.  1.
         11    1    4    4    0    0 -0.31942245708E+01  0.54021227562E+01 -0.39528769546E+01  0.74169560711E+01  0.51100000000E-03 0.  1.
        -11    1    4    4    0    0 -0.49458010816E+01 -0.51969816266E+01 -0.96194818650E+01  0.12000166581E+02  0.51100000000E-03 0. -1.
        -12    1    4    4    0    0 -0.19157896276E+02  0.24371464916E+02  0.16140210599E+02  0.34949959800E+02  0.00000000000E+00 0.  1.
</event>
<event>
 8    1  0.1244838E-006  0.9118800E+02  0.7816164E-02  0.1184000E+00
        -11   -1    0    0    0    0  0.00000000000E+00  0.00000000000E+00  0.45593999997E+02  0.45594000000E+02  0.51100000000E-03 0. -1.
         11   -1    0    0    0    0 -0.00000000000E+00 -0.00000000000E+00 -0.45593999997E+02  0.45594000000E+02  0.51100000000E-03 0.  1.
         23    2    1    2    0    0  0.00000000000E+00 -0.35527136788E-14  0.00000000000E+00  0.91188000000E+02  0.91188000000E+02 0.  0.
    9900012    2    3    3    0    0  0.20396990299E+02  0.23885919921E+02  0.19214717773E+02  0.54367085253E+02  0.40000002451E+02 0.  0.
        -12    1    3    3    0    0 -0.20396990299E+02 -0.23885919921E+02 -0.19214717773E+02  0.36820914747E+02  0.00000000000E+00 0.  1.
         11    1    4    4    0    0  0.15117857154E+02  0.15415143999E+02 -0.69614017636E+01  0.22685620648E+02  0.51100000000E-03 0. -1.
        -11    1    4    4    0    0  0.79313182700E+01  0.72225679297E+01  0.82909829260E+01  0.13557717180E+02  0.51100000000E-03 0.  1.
        -12    1    4    4    0    0 -0.26521851249E+01  0.12482079924E+01  0.17885136610E+02  0.18123747424E+02  0.00000000000E+00 0.  1.
</event>
<event>
 8    1  0.1244838E-006  0.9118800E+02  0.7816164E-02  0.1184000E+00
        -11   -1    0    0    0    0  0.00000000000E+00  0.00000000000E+00  0.45593999997E+02  0.45594000000E+02  0.51100000000E-03 0.  1.
         11   -1    0    0    0    0 -0.00000000000E+00 -0.00000000000E+00 -0.45593999997E+02  0.45594000000E+02  0.51100000000E-03 0. -1.
         23    2    1    2    0    0  0.35527136788E-14  0.00000000000E+00  0.00000000000E+00  0.91188000000E+02  0.91188000000E+02 0.  0.
    9900012    2    3    3    0    0 -0.21201779982E+02 -0.24507281416E+02 -0.17483054239E+02  0.54367088790E+02  0.40000010515E+02 0.  0.
        -12    1    3    3    0    0  0.21201779982E+02  0.24507281416E+02  0.17483054239E+02  0.36820911210E+02  0.00000000000E+00 0.  1.
         11    1    4    4    0    0  0.65817326979E+01 -0.16000825596E+02 -0.33820084496E+01  0.17629055745E+02  0.51100000000E-03 0. -1.
        -11    1    4    4    0    0 -0.14927868000E+02  0.27852746414E+01 -0.10564836489E+01  0.15222192872E+02  0.51100000000E-03 0.  1.
         12    1    4    4    0    0 -0.12855644680E+02 -0.11291730461E+02 -0.13044562140E+02  0.21515840173E+02  0.00000000000E+00 0. -1.
</event>
<event>
 8    1  0.1244838E-006  0.9118800E+02  0.7816164E-02  0.1184000E+00
        -11   -1    0    0    0    0  0.00000000000E+00  0.00000000000E+00  0.45593999997E+02  0.45594000000E+02  0.51100000000E-03 0. -1.
         11   -1    0    0    0    0 -0.00000000000E+00 -0.00000000000E+00 -0.45593999997E+02  0.45594000000E+02  0.51100000000E-03 0.  1.
         23    2    1    2    0    0  0.11102230246E-14  0.00000000000E+00  0.00000000000E+00  0.91188000000E+02  0.91188000000E+02 0.  0.
    9900012    2    3    3    0    0 -0.18908610038E+01 -0.36309813182E+02 -0.58139944843E+01  0.54367076322E+02  0.39999982092E+02 0.  0.
        -12    1    3    3    0    0  0.18908610038E+01  0.36309813182E+02  0.58139944843E+01  0.36820923678E+02  0.00000000000E+00 0.  1.
         11    1    4    4    0    0  0.49061204639E+01 -0.59815433666E+01  0.18223819853E+00  0.77383518966E+01  0.51100000000E-03 0. -1.
        -11    1    4    4    0    0  0.88467210182E+01 -0.23031475429E+02 -0.13133052460E+02  0.27949783548E+02  0.51100000000E-03 0.  1.
        -12    1    4    4    0    0 -0.15643702486E+02 -0.72967943859E+01  0.71368197772E+01  0.18678940878E+02  0.00000000000E+00 0.  1.
</event>
<event>
 8    1  0.1244838E-006  0.9118800E+02  0.7816164E-02  0.1184000E+00
        -11   -1    0    0    0    0  0.00000000000E+00  0.00000000000E+00  0.45593999997E+02  0.45594000000E+02  0.51100000000E-03 0.  1.
         11   -1    0    0    0    0 -0.00000000000E+00 -0.00000000000E+00 -0.45593999997E+02  0.45594000000E+02  0.51100000000E-03 0. -1.
         23    2    1    2    0    0  0.00000000000E+00 -0.17763568394E-14  0.00000000000E+00  0.91188000000E+02  0.91188000000E+02 0.  0.
    9900012    2    3    3    0    0 -0.31492342681E+02  0.72882075613E+01  0.17632226202E+02  0.54367068211E+02  0.39999963601E+02 0.  0.
         12    1    3    3    0    0  0.31492342681E+02 -0.72882075613E+01 -0.17632226202E+02  0.36820931789E+02  0.00000000000E+00 0. -1.
         11    1    4    4    0    0 -0.18913366165E+02  0.12856033407E+02  0.15434445363E+02  0.27590127194E+02  0.51100000000E-03 0. -1.
        -11    1    4    4    0    0  0.60041377554E+00 -0.32746559875E+01  0.10511826295E+02  0.11026439174E+02  0.51100000000E-03 0.  1.
         12    1    4    4    0    0 -0.13179390291E+02 -0.22931698580E+01 -0.83140454572E+01  0.15750501843E+02  0.00000000000E+00 0. -1.
</event>
<event>
 8    1  0.1244838E-006  0.9118800E+02  0.7816164E-02  0.1184000E+00
        -11   -1    0    0    0    0  0.00000000000E+00  0.00000000000E+00  0.45593999997E+02  0.45594000000E+02  0.51100000000E-03 0. -1.
         11   -1    0    0    0    0 -0.00000000000E+00 -0.00000000000E+00 -0.45593999997E+02  0.45594000000E+02  0.51100000000E-03 0.  1.
         23    2    1    2    0    0 -0.35527136788E-14  0.00000000000E+00  0.35527136788E-14  0.91188000000E+02  0.91188000000E+02 0.  0.
    9900012    2    3    3    0    0  0.12797711558E+02  0.20007963719E+02 -0.28136812032E+02  0.54367078982E+02  0.39999988155E+02 0.  0.
         12    1    3    3    0    0 -0.12797711558E+02 -0.20007963719E+02  0.28136812032E+02  0.36820921018E+02  0.00000000000E+00 0. -1.
         11    1    4    4    0    0  0.38938229747E+01  0.53097363707E+01  0.76703912455E+01  0.10108909922E+02  0.51100000000E-03 0. -1.
        -11    1    4    4    0    0  0.47589489209E+01 -0.43898962490E+01 -0.85549203985E+01  0.10728720669E+02  0.51100000000E-03 0.  1.
        -12    1    4    4    0    0  0.41449396620E+01  0.19088123597E+02 -0.27252282879E+02  0.33529448391E+02  0.00000000000E+00 0.  1.
</event>
<event>
 8    1  0.1244838E-006  0.9118800E+02  0.7816164E-02  0.1184000E+00
        -11   -1    0    0    0    0  0.00000000000E+00  0.00000000000E+00  0.45593999997E+02  0.45594000000E+02  0.51100000000E-03 0.  1.
         11   -1    0    0    0    0 -0.00000000000E+00 -0.00000000000E+00 -0.45593999997E+02  0.45594000000E+02  0.51100000000E-03 0. -1.
         23    2    1    2    0    0  0.00000000000E+00 -0.35527136788E-14  0.17763568394E-14  0.91188000000E+02  0.91188000000E+02 0.  0.
    9900012    2    3    3    0    0 -0.32021989149E+02 -0.15218062252E+02 -0.99388074186E+01  0.54367121403E+02  0.40000084861E+02 0.  0.
        -12    1    3    3    0    0  0.32021989149E+02  0.15218062252E+02  0.99388074186E+01  0.36820878597E+02  0.00000000000E+00 0.  1.
         11    1    4    4    0    0  0.18143690710E+00  0.39687574747E+01 -0.56036308446E+01  0.68691072308E+01  0.51100000000E-03 0. -1.
        -11    1    4    4    0    0  0.33558393159E+00  0.50110535481E+01 -0.47970161419E+01  0.69451161519E+01  0.51100000000E-03 0.  1.
         12    1    4    4    0    0 -0.32539009988E+02 -0.24197873275E+02  0.46183956787E+00  0.40552898020E+02  0.00000000000E+00 0. -1.
</event>
<event>
 8    1  0.1244838E-006  0.9118800E+02  0.7816164E-02  0.1184000E+00
        -11   -1    0    0    0    0  0.00000000000E+00  0.00000000000E+00  0.45593999997E+02  0.45594000000E+02  0.51100000000E-03 0.  1.
         11   -1    0    0    0    0 -0.00000000000E+00 -0.00000000000E+00 -0.45593999997E+02  0.45594000000E+02  0.51100000000E-03 0. -1.
         23    2    1    2    0    0  0.00000000000E+00  0.71054273576E-14  0.35527136788E-14  0.91188000000E+02  0.91188000000E+02 0.  0.
    9900012    2    3    3    0    0  0.27015475374E+01  0.33108617681E+02  0.15883977314E+02  0.54367086660E+02  0.40000005660E+02 0.  0.
         12    1    3    3    0    0 -0.27015475374E+01 -0.33108617681E+02 -0.15883977314E+02  0.36820913340E+02  0.00000000000E+00 0. -1.
         11    1    4    4    0    0  0.13473789353E+01  0.16091050404E+01 -0.52002175798E+01  0.56077546455E+01  0.51100000000E-03 0. -1.
        -11    1    4    4    0    0  0.63287627584E+01  0.64561783860E+00 -0.49686209941E+01  0.80720044159E+01  0.51100000000E-03 0.  1.
        -12    1    4    4    0    0 -0.49745941564E+01  0.30853894802E+02  0.26052815888E+02  0.40687327599E+02  0.00000000000E+00 0.  1.
</event>
<event>
 8    1  0.1244838E-006  0.9118800E+02  0.7816164E-02  0.1184000E+00
        -11   -1    0    0    0    0  0.00000000000E+00  0.00000000000E+00  0.45593999997E+02  0.45594000000E+02  0.51100000000E-03 0.  1.
         11   -1    0    0    0    0 -0.00000000000E+00 -0.00000000000E+00 -0.45593999997E+02  0.45594000000E+02  0.51100000000E-03 0. -1.
         23    2    1    2    0    0 -0.35527136788E-14  0.35527136788E-14 -0.17763568394E-14  0.91188000000E+02  0.91188000000E+02 0.  0.
    9900012    2    3    3    0    0 -0.26686465077E+02  0.22687952119E+02 -0.11352240259E+02  0.54367028413E+02  0.39999872873E+02 0.  0.
         12    1    3    3    0    0  0.26686465077E+02 -0.22687952119E+02  0.11352240259E+02  0.36820971587E+02  0.00000000000E+00 0. -1.
         11    1    4    4    0    0 -0.41754645790E+01 -0.10742390632E+02  0.12049636641E+00  0.11525969832E+02  0.51100000000E-03 0. -1.
        -11    1    4    4    0    0 -0.88692992627E+01  0.17536304417E+02 -0.94272448949E+01  0.21795857143E+02  0.51100000000E-03 0.  1.
         12    1    4    4    0    0 -0.13641701236E+02  0.15894038334E+02 -0.20454917307E+01  0.21045201438E+02  0.00000000000E+00 0. -1.
</event>
<event>
 8    1  0.1244838E-006  0.9118800E+02  0.7816164E-02  0.1184000E+00
        -11   -1    0    0    0    0  0.00000000000E+00  0.00000000000E+00  0.45593999997E+02  0.45594000000E+02  0.51100000000E-03 0.  1.
         11   -1    0    0    0    0 -0.00000000000E+00 -0.00000000000E+00 -0.45593999997E+02  0.45594000000E+02  0.51100000000E-03 0. -1.
         23    2    1    2    0    0  0.71054273576E-14  0.00000000000E+00  0.88817841970E-15  0.91188000000E+02  0.91188000000E+02 0.  0.
    9900012    2    3    3    0    0  0.34790592583E+02 -0.11303063956E+02  0.41995953643E+01  0.54367065896E+02  0.39999958323E+02 0.  0.
        -12    1    3    3    0    0 -0.34790592583E+02  0.11303063956E+02 -0.41995953643E+01  0.36820934104E+02  0.00000000000E+00 0.  1.
         11    1    4    4    0    0  0.38703749851E+02 -0.75885846044E+01 -0.30368862484E+01  0.39557420886E+02  0.51100000000E-03 0. -1.
        -11    1    4    4    0    0  0.32379120179E+01 -0.46914691464E+01  0.33624894824E+01  0.66181789616E+01  0.51100000000E-03 0.  1.
         12    1    4    4    0    0 -0.71510692857E+01  0.97698979503E+00  0.38739921302E+01  0.81914660479E+01  0.00000000000E+00 0. -1.
</event>
<event>
 8    1  0.1244838E-006  0.9118800E+02  0.7816164E-02  0.1184000E+00
        -11   -1    0    0    0    0  0.00000000000E+00  0.00000000000E+00  0.45593999997E+02  0.45594000000E+02  0.51100000000E-03 0. -1.
         11   -1    0    0    0    0 -0.00000000000E+00 -0.00000000000E+00 -0.45593999997E+02  0.45594000000E+02  0.51100000000E-03 0.  1.
         23    2    1    2    0    0  0.00000000000E+00  0.35527136788E-14  0.00000000000E+00  0.91188000000E+02  0.91188000000E+02 0.  0.
    9900012    2    3    3    0    0 -0.87036808759E+01  0.26582028936E+02  0.23946235377E+02  0.54367075082E+02  0.39999979264E+02 0.  0.
        -12    1    3    3    0    0  0.87036808759E+01 -0.26582028936E+02 -0.23946235377E+02  0.36820924918E+02  0.00000000000E+00 0.  1.
         11    1    4    4    0    0 -0.47978479874E+01  0.25366353347E+01 -0.18183762799E+00  0.54301868582E+01  0.51100000000E-03 0. -1.
        -11    1    4    4    0    0  0.33858291632E+01  0.30100236457E+02  0.99496231362E+01  0.31882331701E+02  0.51100000000E-03 0.  1.
        -12    1    4    4    0    0 -0.72916620517E+01 -0.60548428562E+01  0.14178449869E+02  0.17054556522E+02  0.00000000000E+00 0.  1.
</event>
<event>
 8    1  0.1244838E-006  0.9118800E+02  0.7816164E-02  0.1184000E+00
        -11   -1    0    0    0    0  0.00000000000E+00  0.00000000000E+00  0.45593999997E+02  0.45594000000E+02  0.51100000000E-03 0.  1.
         11   -1    0    0    0    0 -0.00000000000E+00 -0.00000000000E+00 -0.45593999997E+02  0.45594000000E+02  0.51100000000E-03 0. -1.
         23    2    1    2    0    0 -0.35527136788E-14  0.00000000000E+00  0.00000000000E+00  0.91188000000E+02  0.91188000000E+02 0.  0.
    9900012    2    3    3    0    0 -0.28856254532E+02 -0.22789777237E+02 -0.19294844304E+01  0.54367078199E+02  0.39999986370E+02 0.  0.
        -12    1    3    3    0    0  0.28856254532E+02  0.22789777237E+02  0.19294844304E+01  0.36820921801E+02  0.00000000000E+00 0.  1.
         11    1    4    4    0    0 -0.18461948886E+01 -0.11973808381E+02 -0.79281288251E+01  0.14478803460E+02  0.51100000000E-03 0. -1.
        -11    1    4    4    0    0 -0.15442584110E+02 -0.18430568201E+02 -0.15884844469E+01  0.24097355276E+02  0.51100000000E-03 0.  1.
         12    1    4    4    0    0 -0.11567475533E+02  0.76145993452E+01  0.75871288416E+01  0.15790919462E+02  0.00000000000E+00 0. -1.
</event>
<event>
 8    1  0.1244838E-006  0.9118800E+02  0.7816164E-02  0.1184000E+00
        -11   -1    0    0    0    0  0.00000000000E+00  0.00000000000E+00  0.45593999997E+02  0.45594000000E+02  0.51100000000E-03 0.  1.
         11   -1    0    0    0    0 -0.00000000000E+00 -0.00000000000E+00 -0.45593999997E+02  0.45594000000E+02  0.51100000000E-03 0. -1.
         23    2    1    2    0    0 -0.71054273576E-14  0.66613381478E-15  0.00000000000E+00  0.91188000000E+02  0.91188000000E+02 0.  0.
    9900012    2    3    3    0    0 -0.33679659931E+02 -0.49819633287E+00  0.14873110730E+02  0.54367121202E+02  0.40000084405E+02 0.  0.
         12    1    3    3    0    0  0.33679659931E+02  0.49819633287E+00 -0.14873110730E+02  0.36820878798E+02  0.00000000000E+00 0. -1.
         11    1    4    4    0    0  0.13506524154E+01 -0.80655283090E+01  0.79487098627E+01  0.11404341173E+02  0.51100000000E-03 0. -1.
        -11    1    4    4    0    0 -0.12525075903E+02  0.20260808295E+01  0.13839931826E+02  0.18775682228E+02  0.51100000000E-03 0.  1.
         12    1    4    4    0    0 -0.22505236443E+02  0.55412511466E+01 -0.69155309585E+01  0.24187097802E+02  0.00000000000E+00 0. -1.
</event>
<event>
 8    1  0.1244838E-006  0.9118800E+02  0.7816164E-02  0.1184000E+00
        -11   -1    0    0    0    0  0.00000000000E+00  0.00000000000E+00  0.45593999997E+02  0.45594000000E+02  0.51100000000E-03 0.  1.
         11   -1    0    0    0    0 -0.00000000000E+00 -0.00000000000E+00 -0.45593999997E+02  0.45594000000E+02  0.51100000000E-03 0. -1.
         23    2    1    2    0    0  0.35527136788E-14  0.35527136788E-14  0.00000000000E+00  0.91188000000E+02  0.91188000000E+02 0.  0.
    9900012    2    3    3    0    0  0.28263225443E+02  0.23157381047E+02 -0.45505284532E+01  0.54367061411E+02  0.39999948098E+02 0.  0.
         12    1    3    3    0    0 -0.28263225443E+02 -0.23157381047E+02  0.45505284532E+01  0.36820938589E+02  0.00000000000E+00 0. -1.
         11    1    4    4    0    0 -0.44209099290E+01 -0.35544201577E+00 -0.16885080737E+01  0.47457184285E+01  0.51100000000E-03 0. -1.
        -11    1    4    4    0    0  0.10853040116E+02  0.25312538939E+02 -0.88129640727E-01  0.27541257676E+02  0.51100000000E-03 0.  1.
        -12    1    4    4    0    0  0.21831095256E+02 -0.17997158756E+01 -0.27738907387E+01  0.22080085306E+02  0.00000000000E+00 0.  1.
</event>
<event>
 8    1  0.1244838E-006  0.9118800E+02  0.7816164E-02  0.1184000E+00
        -11   -1    0    0    0    0  0.00000000000E+00  0.00000000000E+00  0.45593999997E+02  0.45594000000E+02  0.51100000000E-03 0.  1.
         11   -1    0    0    0    0 -0.00000000000E+00 -0.00000000000E+00 -0.45593999997E+02  0.45594000000E+02  0.51100000000E-03 0. -1.
         23    2    1    2    0    0  0.00000000000E+00  0.00000000000E+00  0.00000000000E+00  0.91188000000E+02  0.91188000000E+02 0.  0.
    9900012    2    3    3    0    0  0.25835747810E+02 -0.17445428683E+02 -0.19594674536E+02  0.54367080444E+02  0.39999991487E+02 0.  0.
        -12    1    3    3    0    0 -0.25835747810E+02  0.17445428683E+02  0.19594674536E+02  0.36820919556E+02  0.00000000000E+00 0.  1.
         11    1    4    4    0    0  0.89774572685E+01 -0.20618141757E+02 -0.33556438217E+01  0.22736817153E+02  0.51100000000E-03 0.  1.
        -11    1    4    4    0    0  0.14749163508E+02  0.11383787586E+02 -0.10414272687E+02  0.21344449392E+02  0.51100000000E-03 0. -1.
         12    1    4    4    0    0  0.21091270337E+01 -0.82110745118E+01 -0.58247580268E+01  0.10285813898E+02  0.00000000000E+00 0. -1.
</event>
<event>
 8    1  0.1244838E-006  0.9118800E+02  0.7816164E-02  0.1184000E+00
        -11   -1    0    0    0    0  0.00000000000E+00  0.00000000000E+00  0.45593999997E+02  0.45594000000E+02  0.51100000000E-03 0.  1.
         11   -1    0    0    0    0 -0.00000000000E+00 -0.00000000000E+00 -0.45593999997E+02  0.45594000000E+02  0.51100000000E-03 0. -1.
         23    2    1    2    0    0  0.00000000000E+00  0.00000000000E+00 -0.35527136788E-14  0.91188000000E+02  0.91188000000E+02 0.  0.
    9900012    2    3    3    0    0  0.18122276341E+02  0.15191405488E+02  0.28223854449E+02  0.54367059485E+02  0.39999943707E+02 0.  0.
         12    1    3    3    0    0 -0.18122276341E+02 -0.15191405488E+02 -0.28223854449E+02  0.36820940515E+02  0.00000000000E+00 0. -1.
         11    1    4    4    0    0  0.11737084879E+02  0.97595842343E+01  0.17220128271E+02  0.23011767942E+02  0.51100000000E-03 0. -1.
        -11    1    4    4    0    0  0.15415220223E+02  0.73906126069E+01  0.14319058706E+00  0.17095925627E+02  0.51100000000E-03 0.  1.
         12    1    4    4    0    0 -0.90300287614E+01 -0.19587913534E+01  0.10860535591E+02  0.14259365916E+02  0.00000000000E+00 0. -1.
</event>
<event>
 8    1  0.1244838E-006  0.9118800E+02  0.7816164E-02  0.1184000E+00
        -11   -1    0    0    0    0  0.00000000000E+00  0.00000000000E+00  0.45593999997E+02  0.45594000000E+02  0.51100000000E-03 0. -1.
         11   -1    0    0    0    0 -0.00000000000E+00 -0.00000000000E+00 -0.45593999997E+02  0.45594000000E+02  0.51100000000E-03 0.  1.
         23    2    1    2    0    0 -0.35527136788E-14  0.17763568394E-14 -0.35527136788E-14  0.91188000000E+02  0.91188000000E+02 0.  0.
    9900012    2    3    3    0    0 -0.29204659600E+02  0.11825599399E+02  0.19053314631E+02  0.54367004061E+02  0.39999817357E+02 0.  0.
        -12    1    3    3    0    0  0.29204659600E+02 -0.11825599399E+02 -0.19053314631E+02  0.36820995939E+02  0.00000000000E+00 0.  1.
         11    1    4    4    0    0 -0.44912376844E+01  0.13149644485E+02  0.17121093536E+02  0.22050310885E+02  0.51100000000E-03 0. -1.
        -11    1    4    4    0    0 -0.42509993409E+01 -0.85146089799E+01 -0.31786392883E+01  0.10033608995E+02  0.51100000000E-03 0.  1.
        -12    1    4    4    0    0 -0.20462422575E+02  0.71905638942E+01  0.51108603838E+01  0.22283084181E+02  0.00000000000E+00 0.  1.
</event>
<event>
 8    1  0.1244838E-006  0.9118800E+02  0.7816164E-02  0.1184000E+00
        -11   -1    0    0    0    0  0.00000000000E+00  0.00000000000E+00  0.45593999997E+02  0.45594000000E+02  0.51100000000E-03 0. -1.
         11   -1    0    0    0    0 -0.00000000000E+00 -0.00000000000E+00 -0.45593999997E+02  0.45594000000E+02  0.51100000000E-03 0.  1.
         23    2    1    2    0    0  0.17763568394E-14  0.71054273576E-14  0.00000000000E+00  0.91188000000E+02  0.91188000000E+02 0.  0.
    9900012    2    3    3    0    0  0.12370135170E+02 -0.32830679344E+02  0.11176303718E+02  0.54367034299E+02  0.39999886292E+02 0.  0.
        -12    1    3    3    0    0 -0.12370135170E+02  0.32830679344E+02 -0.11176303718E+02  0.36820965701E+02  0.00000000000E+00 0.  1.
         11    1    4    4    0    0  0.62590372604E+01 -0.19538800284E+02 -0.15069681136E+01  0.20572098024E+02  0.51100000000E-03 0. -1.
        -11    1    4    4    0    0  0.14650805194E+02 -0.96472498890E+01  0.16188756626E+02  0.23870302985E+02  0.51100000000E-03 0.  1.
        -12    1    4    4    0    0 -0.85397072845E+01 -0.36446291718E+01 -0.35054847942E+01  0.99246332903E+01  0.00000000000E+00 0.  1.
</event>
<event>
 8    1  0.1244838E-006  0.9118800E+02  0.7816164E-02  0.1184000E+00
        -11   -1    0    0    0    0  0.00000000000E+00  0.00000000000E+00  0.45593999997E+02  0.45594000000E+02  0.51100000000E-03 0. -1.
         11   -1    0    0    0    0 -0.00000000000E+00 -0.00000000000E+00 -0.45593999997E+02  0.45594000000E+02  0.51100000000E-03 0.  1.
         23    2    1    2    0    0  0.88817841970E-15 -0.35527136788E-14  0.00000000000E+00  0.91188000000E+02  0.91188000000E+02 0.  0.
    9900012    2    3    3    0    0 -0.73290348115E+01 -0.30817957450E+02 -0.18770148402E+02  0.54367085784E+02  0.40000003663E+02 0.  0.
         12    1    3    3    0    0  0.73290348115E+01  0.30817957450E+02  0.18770148402E+02  0.36820914216E+02  0.00000000000E+00 0. -1.
         11    1    4    4    0    0 -0.16346881305E+01 -0.29395015993E+02 -0.11517357551E+02  0.31613109555E+02  0.51100000000E-03 0. -1.
        -11    1    4    4    0    0 -0.49474276909E+01  0.66214362252E+01 -0.11072600404E+02  0.13817486690E+02  0.51100000000E-03 0.  1.
        -12    1    4    4    0    0 -0.74691899009E+00 -0.80443776823E+01  0.38198095536E+01  0.89364895401E+01  0.00000000000E+00 0.  1.
</event>
<event>
 8    1  0.1244838E-006  0.9118800E+02  0.7816164E-02  0.1184000E+00
        -11   -1    0    0    0    0  0.00000000000E+00  0.00000000000E+00  0.45593999997E+02  0.45594000000E+02  0.51100000000E-03 0. -1.
         11   -1    0    0    0    0 -0.00000000000E+00 -0.00000000000E+00 -0.45593999997E+02  0.45594000000E+02  0.51100000000E-03 0.  1.
         23    2    1    2    0    0 -0.35527136788E-14 -0.15543122345E-14  0.00000000000E+00  0.91188000000E+02  0.91188000000E+02 0.  0.
    9900012    2    3    3    0    0  0.21678212195E+02 -0.43173297584E+00  0.29759835539E+02  0.54367094408E+02  0.40000023322E+02 0.  0.
        -12    1    3    3    0    0 -0.21678212195E+02  0.43173297584E+00 -0.29759835539E+02  0.36820905592E+02  0.00000000000E+00 0.  1.
         11    1    4    4    0    0  0.56651000741E+01  0.45043173501E+01  0.16097117405E+01  0.74144052889E+01  0.51100000000E-03 0. -1.
        -11    1    4    4    0    0  0.13648914559E+02  0.12688849604E+02  0.20170104011E+02  0.27461479730E+02  0.51100000000E-03 0.  1.
        -12    1    4    4    0    0  0.23641975621E+01 -0.17624899930E+02  0.79800197871E+01  0.19491209389E+02  0.00000000000E+00 0.  1.
</event>
<event>
 8    1  0.1244838E-006  0.9118800E+02  0.7816164E-02  0.1184000E+00
        -11   -1    0    0    0    0  0.00000000000E+00  0.00000000000E+00  0.45593999997E+02  0.45594000000E+02  0.51100000000E-03 0.  1.
         11   -1    0    0    0    0 -0.00000000000E+00 -0.00000000000E+00 -0.45593999997E+02  0.45594000000E+02  0.51100000000E-03 0. -1.
         23    2    1    2    0    0 -0.35527136788E-14  0.00000000000E+00  0.00000000000E+00  0.91188000000E+02  0.91188000000E+02 0.  0.
    9900012    2    3    3    0    0  0.17679680364E+02  0.36150638558E+01  0.32095790805E+02  0.54367087846E+02  0.40000008363E+02 0.  0.
         12    1    3    3    0    0 -0.17679680364E+02 -0.36150638558E+01 -0.32095790805E+02  0.36820912154E+02  0.00000000000E+00 0. -1.
         11    1    4    4    0    0  0.16919688082E+02  0.16255845200E+01 -0.26955903023E+01  0.17210013863E+02  0.51100000000E-03 0. -1.
        -11    1    4    4    0    0  0.40770529318E+01  0.37902671858E+01  0.31953722528E+02  0.32434994521E+02  0.51100000000E-03 0.  1.
        -12    1    4    4    0    0 -0.33170606497E+01 -0.18007878501E+01  0.28376585794E+01  0.47220794623E+01  0.00000000000E+00 0.  1.
</event>
<event>
 8    1  0.1244838E-006  0.9118800E+02  0.7816164E-02  0.1184000E+00
        -11   -1    0    0    0    0  0.00000000000E+00  0.00000000000E+00  0.45593999997E+02  0.45594000000E+02  0.51100000000E-03 0.  1.
         11   -1    0    0    0    0 -0.00000000000E+00 -0.00000000000E+00 -0.45593999997E+02  0.45594000000E+02  0.51100000000E-03 0. -1.
         23    2    1    2    0    0 -0.35527136788E-14  0.00000000000E+00 -0.44408920985E-15  0.91188000000E+02  0.91188000000E+02 0.  0.
    9900012    2    3    3    0    0  0.28053947566E+02  0.23611986025E+02  0.33510821424E+01  0.54367087333E+02  0.40000007193E+02 0.  0.
        -12    1    3    3    0    0 -0.28053947566E+02 -0.23611986025E+02 -0.33510821424E+01  0.36820912667E+02  0.00000000000E+00 0.  1.
         11    1    4    4    0    0 -0.20272249995E+01  0.61568140102E+01 -0.93722295537E+01  0.11395380074E+02  0.51100000000E-03 0. -1.
        -11    1    4    4    0    0  0.56128011705E+00  0.76668353864E+01  0.87039051719E+01  0.11612638189E+02  0.51100000000E-03 0.  1.
        -12    1    4    4    0    0  0.29519892449E+02  0.97883366285E+01  0.40194065242E+01  0.31359069070E+02  0.00000000000E+00 0.  1.
</event>
<event>
 8    1  0.1244838E-006  0.9118800E+02  0.7816164E-02  0.1184000E+00
        -11   -1    0    0    0    0  0.00000000000E+00  0.00000000000E+00  0.45593999997E+02  0.45594000000E+02  0.51100000000E-03 0.  1.
         11   -1    0    0    0    0 -0.00000000000E+00 -0.00000000000E+00 -0.45593999997E+02  0.45594000000E+02  0.51100000000E-03 0. -1.
         23    2    1    2    0    0  0.00000000000E+00  0.35527136788E-14 -0.71054273576E-14  0.91188000000E+02  0.91188000000E+02 0.  0.
    9900012    2    3    3    0    0 -0.10038247689E+02 -0.20932822783E+02  0.28580249655E+02  0.54367079905E+02  0.39999990259E+02 0.  0.
         12    1    3    3    0    0  0.10038247689E+02  0.20932822783E+02 -0.28580249655E+02  0.36820920095E+02  0.00000000000E+00 0. -1.
         11    1    4    4    0    0  0.29762405064E+01  0.71564676792E+01  0.65649556717E+01  0.10157346131E+02  0.51100000000E-03 0. -1.
        -11    1    4    4    0    0 -0.38192980644E+01 -0.72100305789E+01  0.19645710464E+02  0.21272647192E+02  0.51100000000E-03 0.  1.
         12    1    4    4    0    0 -0.91951901306E+01 -0.20879259883E+02  0.23695835188E+01  0.22937086582E+02  0.00000000000E+00 0. -1.
</event>
<event>
 8    1  0.1244838E-006  0.9118800E+02  0.7816164E-02  0.1184000E+00
        -11   -1    0    0    0    0  0.00000000000E+00  0.00000000000E+00  0.45593999997E+02  0.45594000000E+02  0.51100000000E-03 0.  1.
         11   -1    0    0    0    0 -0.00000000000E+00 -0.00000000000E+00 -0.45593999997E+02  0.45594000000E+02  0.51100000000E-03 0. -1.
         23    2    1    2    0    0  0.00000000000E+00 -0.17763568394E-14  0.00000000000E+00  0.91188000000E+02  0.91188000000E+02 0.  0.
    9900012    2    3    3    0    0 -0.82549355009E+01  0.10895393128E+02  0.34189496459E+02  0.54367146946E+02  0.40000143092E+02 0.  0.
         12    1    3    3    0    0  0.82549355009E+01 -0.10895393128E+02 -0.34189496459E+02  0.36820853054E+02  0.00000000000E+00 0. -1.
         11    1    4    4    0    0 -0.26285682705E+01  0.46613800555E+01  0.13471105958E+02  0.14495120943E+02  0.51100000000E-03 0.  1.
        -11    1    4    4    0    0  0.67428579566E+00  0.10769272929E+02 -0.57932210501E+01  0.12247175639E+02  0.51100000000E-03 0. -1.
         12    1    4    4    0    0 -0.63006530260E+01 -0.45352598566E+01  0.26511611551E+02  0.27624850363E+02  0.00000000000E+00 0. -1.
</event>
<event>
 8    1  0.1244838E-006  0.9118800E+02  0.7816164E-02  0.1184000E+00
        -11   -1    0    0    0    0  0.00000000000E+00  0.00000000000E+00  0.45593999997E+02  0.45594000000E+02  0.51100000000E-03 0.  1.
         11   -1    0    0    0    0 -0.00000000000E+00 -0.00000000000E+00 -0.45593999997E+02  0.45594000000E+02  0.51100000000E-03 0. -1.
         23    2    1    2    0    0  0.00000000000E+00  0.71054273576E-14  0.66613381478E-15  0.91188000000E+02  0.91188000000E+02 0.  0.
    9900012    2    3    3    0    0 -0.47960493959E+01 -0.36481020191E+02  0.13845166593E+01  0.54367030290E+02  0.39999877153E+02 0.  0.
        -12    1    3    3    0    0  0.47960493959E+01  0.36481020191E+02 -0.13845166593E+01  0.36820969710E+02  0.00000000000E+00 0.  1.
         11    1    4    4    0    0 -0.25249675919E+01 -0.13645352290E+01 -0.14942365596E+02  0.15215508785E+02  0.51100000000E-03 0. -1.
        -11    1    4    4    0    0  0.35314659648E+00 -0.27521384578E+02  0.12011919425E+02  0.30030609886E+02  0.51100000000E-03 0.  1.
         12    1    4    4    0    0 -0.26242284005E+01 -0.75951003837E+01  0.43149628303E+01  0.91209116191E+01  0.00000000000E+00 0. -1.
</event>
<event>
 8    1  0.1244838E-006  0.9118800E+02  0.7816164E-02  0.1184000E+00
        -11   -1    0    0    0    0  0.00000000000E+00  0.00000000000E+00  0.45593999997E+02  0.45594000000E+02  0.51100000000E-03 0.  1.
         11   -1    0    0    0    0 -0.00000000000E+00 -0.00000000000E+00 -0.45593999997E+02  0.45594000000E+02  0.51100000000E-03 0. -1.
         23    2    1    2    0    0  0.88817841970E-15  0.00000000000E+00  0.88817841970E-15  0.91188000000E+02  0.91188000000E+02 0.  0.
    9900012    2    3    3    0    0 -0.60608150685E+01 -0.35979313366E+02 -0.49534012429E+01  0.54367073159E+02  0.39999974881E+02 0.  0.
         12    1    3    3    0    0  0.60608150685E+01  0.35979313366E+02  0.49534012429E+01  0.36820926841E+02  0.00000000000E+00 0. -1.
         11    1    4    4    0    0 -0.20904641177E+01  0.35268453000E+01 -0.95362372294E+01  0.10380197433E+02  0.51100000000E-03 0. -1.
        -11    1    4    4    0    0 -0.10383662701E+02 -0.33021644038E+02  0.40357239541E+01  0.34850200777E+02  0.51100000000E-03 0.  1.
         12    1    4    4    0    0  0.64133117498E+01 -0.64845146272E+01  0.54711203236E+00  0.91366749492E+01  0.00000000000E+00 0. -1.
</event>
<event>
 8    1  0.1244838E-006  0.9118800E+02  0.7816164E-02  0.1184000E+00
        -11   -1    0    0    0    0  0.00000000000E+00  0.00000000000E+00  0.45593999997E+02  0.45594000000E+02  0.51100000000E-03 0. -1.
         11   -1    0    0    0    0 -0.00000000000E+00 -0.00000000000E+00 -0.45593999997E+02  0.45594000000E+02  0.51100000000E-03 0.  1.
         23    2    1    2    0    0  0.00000000000E+00  0.00000000000E+00  0.35527136788E-14  0.91188000000E+02  0.91188000000E+02 0.  0.
    9900012    2    3    3    0    0 -0.19006717668E+02 -0.20987596492E+02  0.23538047372E+02  0.54367160831E+02  0.40000174747E+02 0.  0.
        -12    1    3    3    0    0  0.19006717668E+02  0.20987596492E+02 -0.23538047372E+02  0.36820839169E+02  0.00000000000E+00 0.  1.
         11    1    4    4    0    0 -0.12674735541E+02 -0.21071287886E+02  0.26863381654E+01  0.24735895116E+02  0.51100000000E-03 0. -1.
        -11    1    4    4    0    0  0.63685832102E+01 -0.87714366000E+00  0.13431222144E+02  0.14890465461E+02  0.51100000000E-03 0.  1.
        -12    1    4    4    0    0 -0.12700565337E+02  0.96083505434E+00  0.74204870626E+01  0.14740800254E+02  0.00000000000E+00 0.  1.
</event>
<event>
 8    1  0.1244838E-006  0.9118800E+02  0.7816164E-02  0.1184000E+00
        -11   -1    0    0    0    0  0.00000000000E+00  0.00000000000E+00  0.45593999997E+02  0.45594000000E+02  0.51100000000E-03 0. -1.
         11   -1    0    0    0    0 -0.00000000000E+00 -0.00000000000E+00 -0.45593999997E+02  0.45594000000E+02  0.51100000000E-03 0.  1.
         23    2    1    2    0    0  0.00000000000E+00  0.00000000000E+00 -0.88817841970E-15  0.91188000000E+02  0.91188000000E+02 0.  0.
    9900012    2    3    3    0    0 -0.34732373092E+02 -0.98822376732E+01  0.71953705601E+01  0.54367221633E+02  0.40000313356E+02 0.  0.
         12    1    3    3    0    0  0.34732373092E+02  0.98822376732E+01 -0.71953705601E+01  0.36820778367E+02  0.00000000000E+00 0. -1.
         11    1    4    4    0    0 -0.91358224228E+01 -0.17560465098E+02  0.56662617212E+01  0.20589796209E+02  0.51100000000E-03 0. -1.
        -11    1    4    4    0    0 -0.57105293727E+01  0.80169088998E+01  0.81881205737E+01  0.12803370369E+02  0.51100000000E-03 0.  1.
         12    1    4    4    0    0 -0.19886021296E+02 -0.33868147522E+00 -0.66590117348E+01  0.20974055055E+02  0.00000000000E+00 0. -1.
</event>
<event>
 8    1  0.1244838E-006  0.9118800E+02  0.7816164E-02  0.1184000E+00
        -11   -1    0    0    0    0  0.00000000000E+00  0.00000000000E+00  0.45593999997E+02  0.45594000000E+02  0.51100000000E-03 0.  1.
         11   -1    0    0    0    0 -0.00000000000E+00 -0.00000000000E+00 -0.45593999997E+02  0.45594000000E+02  0.51100000000E-03 0. -1.
         23    2    1    2    0    0 -0.71054273576E-14  0.00000000000E+00  0.00000000000E+00  0.91188000000E+02  0.91188000000E+02 0.  0.
    9900012    2    3    3    0    0 -0.17826975879E+02 -0.26495379841E+02 -0.18329722001E+02  0.54367015079E+02  0.39999842476E+02 0.  0.
        -12    1    3    3    0    0  0.17826975879E+02  0.26495379841E+02  0.18329722001E+02  0.36820984921E+02  0.00000000000E+00 0.  1.
         11    1    4    4    0    0  0.78514903767E+01 -0.63542369453E+01 -0.90070721551E+01  0.13533276668E+02  0.51100000000E-03 0. -1.
        -11    1    4    4    0    0 -0.16045361277E+01 -0.73704874135E+01  0.59382923876E+01  0.96001009182E+01  0.51100000000E-03 0.  1.
        -12    1    4    4    0    0 -0.24073930128E+02 -0.12770655482E+02 -0.15260942233E+02  0.31233637494E+02  0.00000000000E+00 0.  1.
</event>
<event>
 8    1  0.1244838E-006  0.9118800E+02  0.7816164E-02  0.1184000E+00
        -11   -1    0    0    0    0  0.00000000000E+00  0.00000000000E+00  0.45593999997E+02  0.45594000000E+02  0.51100000000E-03 0.  1.
         11   -1    0    0    0    0 -0.00000000000E+00 -0.00000000000E+00 -0.45593999997E+02  0.45594000000E+02  0.51100000000E-03 0. -1.
         23    2    1    2    0    0  0.00000000000E+00  0.00000000000E+00  0.00000000000E+00  0.91188000000E+02  0.91188000000E+02 0.  0.
    9900012    2    3    3    0    0 -0.13216001155E+02 -0.29699809108E+02 -0.17292720813E+02  0.54367088269E+02  0.40000009327E+02 0.  0.
        -12    1    3    3    0    0  0.13216001155E+02  0.29699809108E+02  0.17292720813E+02  0.36820911731E+02  0.00000000000E+00 0.  1.
         11    1    4    4    0    0  0.55776958011E+01 -0.16712767973E+02  0.10220624066E+01  0.17648566956E+02  0.51100000000E-03 0. -1.
        -11    1    4    4    0    0 -0.10484507848E+02 -0.18552398677E+02 -0.92871454438E+01  0.23245805476E+02  0.51100000000E-03 0.  1.
        -12    1    4    4    0    0 -0.83091891082E+01  0.55653575421E+01 -0.90276377756E+01  0.13472715837E+02  0.00000000000E+00 0.  1.
</event>
<event>
 8    1  0.1244838E-006  0.9118800E+02  0.7816164E-02  0.1184000E+00
        -11   -1    0    0    0    0  0.00000000000E+00  0.00000000000E+00  0.45593999997E+02  0.45594000000E+02  0.51100000000E-03 0. -1.
         11   -1    0    0    0    0 -0.00000000000E+00 -0.00000000000E+00 -0.45593999997E+02  0.45594000000E+02  0.51100000000E-03 0.  1.
         23    2    1    2    0    0  0.26645352591E-14  0.00000000000E+00  0.00000000000E+00  0.91188000000E+02  0.91188000000E+02 0.  0.
    9900012    2    3    3    0    0  0.51766989309E+01  0.13402823218E+02  0.33902006743E+02  0.54367082803E+02  0.39999996867E+02 0.  0.
        -12    1    3    3    0    0 -0.51766989309E+01 -0.13402823218E+02 -0.33902006743E+02  0.36820917197E+02  0.00000000000E+00 0.  1.
         11    1    4    4    0    0  0.15991829318E+02  0.53694659428E+01  0.22240740847E+02  0.27914518143E+02  0.51100000000E-03 0. -1.
        -11    1    4    4    0    0  0.31021560052E+01  0.81094413697E+01  0.65173349410E+00  0.87069608944E+01  0.51100000000E-03 0.  1.
         12    1    4    4    0    0 -0.13917286393E+02 -0.76084094699E-01  0.11009532401E+02  0.17745603766E+02  0.00000000000E+00 0. -1.
</event>
<event>
 8    1  0.1244838E-006  0.9118800E+02  0.7816164E-02  0.1184000E+00
        -11   -1    0    0    0    0  0.00000000000E+00  0.00000000000E+00  0.45593999997E+02  0.45594000000E+02  0.51100000000E-03 0.  1.
         11   -1    0    0    0    0 -0.00000000000E+00 -0.00000000000E+00 -0.45593999997E+02  0.45594000000E+02  0.51100000000E-03 0. -1.
         23    2    1    2    0    0  0.00000000000E+00  0.00000000000E+00  0.00000000000E+00  0.91188000000E+02  0.91188000000E+02 0.  0.
    9900012    2    3    3    0    0 -0.16899127842E+02 -0.27790339198E+02 -0.17259676572E+02  0.54367083255E+02  0.39999997897E+02 0.  0.
        -12    1    3    3    0    0  0.16899127842E+02  0.27790339198E+02  0.17259676572E+02  0.36820916745E+02  0.00000000000E+00 0.  1.
         11    1    4    4    0    0 -0.11647612236E+02 -0.20763362533E+02  0.76563442292E+00  0.23819535907E+02  0.51100000000E-03 0. -1.
        -11    1    4    4    0    0  0.53635196289E+01  0.18548244806E+01  0.21604086666E+01  0.60724856962E+01  0.51100000000E-03 0.  1.
         12    1    4    4    0    0 -0.10615035234E+02 -0.88818011456E+01 -0.20185719662E+02  0.24475061652E+02  0.00000000000E+00 0. -1.
</event>
<event>
 8    1  0.1244838E-006  0.9118800E+02  0.7816164E-02  0.1184000E+00
        -11   -1    0    0    0    0  0.00000000000E+00  0.00000000000E+00  0.45593999997E+02  0.45594000000E+02  0.51100000000E-03 0. -1.
         11   -1    0    0    0    0 -0.00000000000E+00 -0.00000000000E+00 -0.45593999997E+02  0.45594000000E+02  0.51100000000E-03 0.  1.
         23    2    1    2    0    0 -0.27755575616E-16  0.00000000000E+00  0.00000000000E+00  0.91188000000E+02  0.91188000000E+02 0.  0.
    9900012    2    3    3    0    0  0.24404059726E+00 -0.36502503094E+02 -0.48256762702E+01  0.54367089645E+02  0.40000012463E+02 0.  0.
         12    1    3    3    0    0 -0.24404059726E+00  0.36502503094E+02  0.48256762702E+01  0.36820910355E+02  0.00000000000E+00 0. -1.
         11    1    4    4    0    0 -0.49152749586E+01 -0.23997589413E+02  0.49994588627E+01  0.25000776282E+02  0.51100000000E-03 0. -1.
        -11    1    4    4    0    0 -0.61115405451E+01 -0.14581812152E+02 -0.32092237868E+01  0.16133173620E+02  0.51100000000E-03 0.  1.
        -12    1    4    4    0    0  0.11270856101E+02  0.20768984713E+01 -0.66159113461E+01  0.13233139743E+02  0.00000000000E+00 0.  1.
</event>
<event>
 8    1  0.1244838E-006  0.9118800E+02  0.7816164E-02  0.1184000E+00
        -11   -1    0    0    0    0  0.00000000000E+00  0.00000000000E+00  0.45593999997E+02  0.45594000000E+02  0.51100000000E-03 0. -1.
         11   -1    0    0    0    0 -0.00000000000E+00 -0.00000000000E+00 -0.45593999997E+02  0.45594000000E+02  0.51100000000E-03 0.  1.
         23    2    1    2    0    0  0.00000000000E+00  0.17763568394E-14 -0.35527136788E-14  0.91188000000E+02  0.91188000000E+02 0.  0.
    9900012    2    3    3    0    0 -0.27945135542E+02  0.10111288898E+02  0.21739540919E+02  0.54367130876E+02  0.40000106459E+02 0.  0.
        -12    1    3    3    0    0  0.27945135542E+02 -0.10111288898E+02 -0.21739540919E+02  0.36820869124E+02  0.00000000000E+00 0.  1.
         11    1    4    4    0    0 -0.18217834975E+02  0.16422459412E+02  0.17993750398E+02  0.30419759006E+02  0.51100000000E-03 0. -1.
        -11    1    4    4    0    0 -0.40683073529E+01  0.72945511676E+01  0.38835614623E+01  0.92110613583E+01  0.51100000000E-03 0.  1.
        -12    1    4    4    0    0 -0.56589932145E+01 -0.13605721682E+02 -0.13777094155E+00  0.14736310513E+02  0.00000000000E+00 0.  1.
</event>
<event>
 8    1  0.1244838E-006  0.9118800E+02  0.7816164E-02  0.1184000E+00
        -11   -1    0    0    0    0  0.00000000000E+00  0.00000000000E+00  0.45593999997E+02  0.45594000000E+02  0.51100000000E-03 0. -1.
         11   -1    0    0    0    0 -0.00000000000E+00 -0.00000000000E+00 -0.45593999997E+02  0.45594000000E+02  0.51100000000E-03 0.  1.
         23    2    1    2    0    0 -0.17763568394E-14  0.00000000000E+00 -0.35527136788E-14  0.91188000000E+02  0.91188000000E+02 0.  0.
    9900012    2    3    3    0    0  0.10747063876E+02  0.33313160126E+02  0.11424238708E+02  0.54367092222E+02  0.40000018338E+02 0.  0.
         12    1    3    3    0    0 -0.10747063876E+02 -0.33313160126E+02 -0.11424238708E+02  0.36820907778E+02  0.00000000000E+00 0. -1.
         11    1    4    4    0    0  0.93322824815E+01  0.86513737749E+01 -0.70411809985E+01  0.14543589468E+02  0.51100000000E-03 0.  1.
        -11    1    4    4    0    0 -0.95369094487E+01  0.87481452794E+01 -0.22555016860E+00  0.12943475607E+02  0.51100000000E-03 0. -1.
         12    1    4    4    0    0  0.10951690843E+02  0.15913641072E+02  0.18690969875E+02  0.26880027146E+02  0.00000000000E+00 0. -1.
</event>
<event>
 8    1  0.1244838E-006  0.9118800E+02  0.7816164E-02  0.1184000E+00
        -11   -1    0    0    0    0  0.00000000000E+00  0.00000000000E+00  0.45593999997E+02  0.45594000000E+02  0.51100000000E-03 0.  1.
         11   -1    0    0    0    0 -0.00000000000E+00 -0.00000000000E+00 -0.45593999997E+02  0.45594000000E+02  0.51100000000E-03 0. -1.
         23    2    1    2    0    0  0.00000000000E+00  0.00000000000E+00  0.00000000000E+00  0.91188000000E+02  0.91188000000E+02 0.  0.
    9900012    2    3    3    0    0 -0.43707401913E+01 -0.25756881876E+02  0.25947228141E+02  0.54367095856E+02  0.40000026622E+02 0.  0.
         12    1    3    3    0    0  0.43707401913E+01  0.25756881876E+02 -0.25947228141E+02  0.36820904144E+02  0.00000000000E+00 0. -1.
         11    1    4    4    0    0  0.10581782814E+02 -0.11665823207E+02  0.63555901727E+01  0.16984083293E+02  0.51100000000E-03 0. -1.
        -11    1    4    4    0    0 -0.79069527030E+01 -0.17878643193E+02  0.21602769129E+02  0.29134951824E+02  0.51100000000E-03 0.  1.
        -12    1    4    4    0    0 -0.70455703019E+01  0.37875845236E+01 -0.20111311607E+01  0.82480607386E+01  0.00000000000E+00 0.  1.
</event>
<event>
 8    1  0.1244838E-006  0.9118800E+02  0.7816164E-02  0.1184000E+00
        -11   -1    0    0    0    0  0.00000000000E+00  0.00000000000E+00  0.45593999997E+02  0.45594000000E+02  0.51100000000E-03 0. -1.
         11   -1    0    0    0    0 -0.00000000000E+00 -0.00000000000E+00 -0.45593999997E+02  0.45594000000E+02  0.51100000000E-03 0.  1.
         23    2    1    2    0    0 -0.35527136788E-14  0.00000000000E+00  0.35527136788E-14  0.91188000000E+02  0.91188000000E+02 0.  0.
    9900012    2    3    3    0    0  0.29986530629E+02  0.17764790274E+02  0.11874335488E+02  0.54367086976E+02  0.40000006379E+02 0.  0.
        -12    1    3    3    0    0 -0.29986530629E+02 -0.17764790274E+02 -0.11874335488E+02  0.36820913024E+02  0.00000000000E+00 0.  1.
         11    1    4    4    0    0  0.16054981917E+02  0.18471990095E+02  0.20001202344E+02  0.31607356072E+02  0.51100000000E-03 0. -1.
        -11    1    4    4    0    0 -0.59975713832E-01  0.54213806119E+01 -0.45347313274E+01  0.70681506279E+01  0.51100000000E-03 0.  1.
        -12    1    4    4    0    0  0.13991524427E+02 -0.61285804333E+01 -0.35921355284E+01  0.15691580276E+02  0.00000000000E+00 0.  1.
</event>
<event>
 8    1  0.1244838E-006  0.9118800E+02  0.7816164E-02  0.1184000E+00
        -11   -1    0    0    0    0  0.00000000000E+00  0.00000000000E+00  0.45593999997E+02  0.45594000000E+02  0.51100000000E-03 0.  1.
         11   -1    0    0    0    0 -0.00000000000E+00 -0.00000000000E+00 -0.45593999997E+02  0.45594000000E+02  0.51100000000E-03 0. -1.
         23    2    1    2    0    0  0.00000000000E+00  0.35527136788E-14  0.00000000000E+00  0.91188000000E+02  0.91188000000E+02 0.  0.
    9900012    2    3    3    0    0 -0.23991132935E+02  0.27931465281E+02 -0.19709829496E+00  0.54367081217E+02  0.39999993250E+02 0.  0.
         12    1    3    3    0    0  0.23991132935E+02 -0.27931465281E+02  0.19709829496E+00  0.36820918783E+02  0.00000000000E+00 0. -1.
         11    1    4    4    0    0  0.76359519663E+01  0.89365656115E+01  0.12676380910E+01  0.11822727010E+02  0.51100000000E-03 0. -1.
        -11    1    4    4    0    0  0.89051593394E+00  0.75853681262E+01  0.20406024380E+01  0.79053707573E+01  0.51100000000E-03 0.  1.
        -12    1    4    4    0    0 -0.32517600836E+02  0.11409531544E+02 -0.35053388240E+01  0.34638983450E+02  0.00000000000E+00 0.  1.
</event>
<event>
 8    1  0.1244838E-006  0.9118800E+02  0.7816164E-02  0.1184000E+00
        -11   -1    0    0    0    0  0.00000000000E+00  0.00000000000E+00  0.45593999997E+02  0.45594000000E+02  0.51100000000E-03 0. -1.
         11   -1    0    0    0    0 -0.00000000000E+00 -0.00000000000E+00 -0.45593999997E+02  0.45594000000E+02  0.51100000000E-03 0.  1.
         23    2    1    2    0    0  0.00000000000E+00 -0.88817841970E-15  0.35527136788E-14  0.91188000000E+02  0.91188000000E+02 0.  0.
    9900012    2    3    3    0    0  0.25143732162E+02  0.71359543309E+01 -0.25935508526E+02  0.54367085920E+02  0.40000003971E+02 0.  0.
         12    1    3    3    0    0 -0.25143732162E+02 -0.71359543309E+01  0.25935508526E+02  0.36820914080E+02  0.00000000000E+00 0. -1.
         11    1    4    4    0    0 -0.44214917958E+01  0.34595989229E+01  0.45947197825E+01  0.72546443434E+01  0.51100000000E-03 0. -1.
        -11    1    4    4    0    0  0.30630582426E+02  0.77852283047E+01 -0.26247101652E+02  0.41082267524E+02  0.51100000000E-03 0.  1.
        -12    1    4    4    0    0 -0.10653584686E+01 -0.41088728968E+01 -0.42831266558E+01  0.60301740520E+01  0.00000000000E+00 0.  1.
</event>
<event>
 8    1  0.1244838E-006  0.9118800E+02  0.7816164E-02  0.1184000E+00
        -11   -1    0    0    0    0  0.00000000000E+00  0.00000000000E+00  0.45593999997E+02  0.45594000000E+02  0.51100000000E-03 0. -1.
         11   -1    0    0    0    0 -0.00000000000E+00 -0.00000000000E+00 -0.45593999997E+02  0.45594000000E+02  0.51100000000E-03 0.  1.
         23    2    1    2    0    0 -0.17763568394E-14  0.00000000000E+00  0.00000000000E+00  0.91188000000E+02  0.91188000000E+02 0.  0.
    9900012    2    3    3    0    0  0.15793841988E+02 -0.47977676312E+01  0.32913760077E+02  0.54367087173E+02  0.40000006829E+02 0.  0.
        -12    1    3    3    0    0 -0.15793841988E+02  0.47977676312E+01 -0.32913760077E+02  0.36820912827E+02  0.00000000000E+00 0.  1.
         11    1    4    4    0    0  0.79557783617E+01  0.26395618643E+01  0.14598622839E+02  0.16833938494E+02  0.51100000000E-03 0. -1.
        -11    1    4    4    0    0  0.62547300487E+01 -0.81704584959E+01 -0.68154003402E+01  0.12342111735E+02  0.51100000000E-03 0.  1.
        -12    1    4    4    0    0  0.15833335779E+01  0.73312900044E+00  0.25130537578E+02  0.25191036944E+02  0.00000000000E+00 0.  1.
</event>
<event>
 8    1  0.1244838E-006  0.9118800E+02  0.7816164E-02  0.1184000E+00
        -11   -1    0    0    0    0  0.00000000000E+00  0.00000000000E+00  0.45593999997E+02  0.45594000000E+02  0.51100000000E-03 0.  1.
         11   -1    0    0    0    0 -0.00000000000E+00 -0.00000000000E+00 -0.45593999997E+02  0.45594000000E+02  0.51100000000E-03 0. -1.
         23    2    1    2    0    0 -0.88817841970E-15 -0.35527136788E-14  0.00000000000E+00  0.91188000000E+02  0.91188000000E+02 0.  0.
    9900012    2    3    3    0    0 -0.68649649419E+01 -0.26412605437E+02  0.24718952486E+02  0.54367080924E+02  0.39999992582E+02 0.  0.
         12    1    3    3    0    0  0.68649649419E+01  0.26412605437E+02 -0.24718952486E+02  0.36820919076E+02  0.00000000000E+00 0. -1.
         11    1    4    4    0    0  0.81011910239E+01 -0.44461860091E+01 -0.66236443285E+01  0.11369719895E+02  0.51100000000E-03 0. -1.
        -11    1    4    4    0    0 -0.22155677173E+01 -0.14069952227E+02  0.17734918891E+02  0.22746420473E+02  0.51100000000E-03 0.  1.
        -12    1    4    4    0    0 -0.12750588248E+02 -0.78964672001E+01  0.13607677924E+02  0.20250940556E+02  0.00000000000E+00 0.  1.
</event>
<event>
 8    1  0.1244838E-006  0.9118800E+02  0.7816164E-02  0.1184000E+00
        -11   -1    0    0    0    0  0.00000000000E+00  0.00000000000E+00  0.45593999997E+02  0.45594000000E+02  0.51100000000E-03 0.  1.
         11   -1    0    0    0    0 -0.00000000000E+00 -0.00000000000E+00 -0.45593999997E+02  0.45594000000E+02  0.51100000000E-03 0. -1.
         23    2    1    2    0    0  0.00000000000E+00 -0.35527136788E-14  0.00000000000E+00  0.91188000000E+02  0.91188000000E+02 0.  0.
    9900012    2    3    3    0    0 -0.26621515812E+02  0.23412474722E+02 -0.99463805198E+01  0.54367087977E+02  0.40000008662E+02 0.  0.
         12    1    3    3    0    0  0.26621515812E+02 -0.23412474722E+02  0.99463805198E+01  0.36820912023E+02  0.00000000000E+00 0. -1.
         11    1    4    4    0    0 -0.95760351249E+01  0.41192845260E+01  0.14300913517E+02  0.17697035949E+02  0.51100000000E-03 0. -1.
        -11    1    4    4    0    0 -0.11933727853E+02  0.12670545962E+02 -0.97988500241E+01  0.19974334970E+02  0.51100000000E-03 0.  1.
         12    1    4    4    0    0 -0.51117528337E+01  0.66226442340E+01 -0.14448444012E+02  0.16695717057E+02  0.00000000000E+00 0. -1.
</event>
<event>
 8    1  0.1244838E-006  0.9118800E+02  0.7816164E-02  0.1184000E+00
        -11   -1    0    0    0    0  0.00000000000E+00  0.00000000000E+00  0.45593999997E+02  0.45594000000E+02  0.51100000000E-03 0. -1.
         11   -1    0    0    0    0 -0.00000000000E+00 -0.00000000000E+00 -0.45593999997E+02  0.45594000000E+02  0.51100000000E-03 0.  1.
         23    2    1    2    0    0 -0.34000580129E-15 -0.35527136788E-14  0.00000000000E+00  0.91188000000E+02  0.91188000000E+02 0.  0.
    9900012    2    3    3    0    0  0.47585354931E-01 -0.22904914920E+02 -0.28829463836E+02  0.54367144810E+02  0.40000138223E+02 0.  0.
         12    1    3    3    0    0 -0.47585354931E-01  0.22904914920E+02  0.28829463836E+02  0.36820855190E+02  0.00000000000E+00 0. -1.
         11    1    4    4    0    0 -0.30241661247E+01 -0.22337950598E+02 -0.70310994792E+01  0.23612835023E+02  0.51100000000E-03 0. -1.
        -11    1    4    4    0    0 -0.49949646587E+01 -0.63530071295E+01 -0.18672895182E+02  0.20346679981E+02  0.51100000000E-03 0.  1.
         12    1    4    4    0    0  0.80667161384E+01  0.57860428072E+01 -0.31254691748E+01  0.10407629806E+02  0.00000000000E+00 0. -1.
</event>
<event>
 8    1  0.1244838E-006  0.9118800E+02  0.7816164E-02  0.1184000E+00
        -11   -1    0    0    0    0  0.00000000000E+00  0.00000000000E+00  0.45593999997E+02  0.45594000000E+02  0.51100000000E-03 0. -1.
         11   -1    0    0    0    0 -0.00000000000E+00 -0.00000000000E+00 -0.45593999997E+02  0.45594000000E+02  0.51100000000E-03 0.  1.
         23    2    1    2    0    0  0.44408920985E-15  0.00000000000E+00  0.35527136788E-14  0.91188000000E+02  0.91188000000E+02 0.  0.
    9900012    2    3    3    0    0 -0.21368291662E+01 -0.23723140197E+02  0.28078856224E+02  0.54367141964E+02  0.40000131735E+02 0.  0.
        -12    1    3    3    0    0  0.21368291662E+01  0.23723140197E+02 -0.28078856224E+02  0.36820858036E+02  0.00000000000E+00 0.  1.
         11    1    4    4    0    0  0.23499570504E+01 -0.25829995435E+02  0.32937220971E+02  0.41923400242E+02  0.51100000000E-03 0. -1.
        -11    1    4    4    0    0 -0.78389827126E+01  0.14451931528E+01 -0.27672131251E+01  0.84377545567E+01  0.51100000000E-03 0.  1.
         12    1    4    4    0    0  0.33521964960E+01  0.66166208513E+00 -0.20911516223E+01  0.40059871655E+01  0.00000000000E+00 0. -1.
</event>
<event>
 8    1  0.1244838E-006  0.9118800E+02  0.7816164E-02  0.1184000E+00
        -11   -1    0    0    0    0  0.00000000000E+00  0.00000000000E+00  0.45593999997E+02  0.45594000000E+02  0.51100000000E-03 0.  1.
         11   -1    0    0    0    0 -0.00000000000E+00 -0.00000000000E+00 -0.45593999997E+02  0.45594000000E+02  0.51100000000E-03 0. -1.
         23    2    1    2    0    0  0.00000000000E+00  0.71054273576E-14 -0.88817841970E-15  0.91188000000E+02  0.91188000000E+02 0.  0.
    9900012    2    3    3    0    0  0.24310834910E+02 -0.26899553181E+02 -0.64168599135E+01  0.54367099054E+02  0.40000033913E+02 0.  0.
         12    1    3    3    0    0 -0.24310834910E+02  0.26899553181E+02  0.64168599135E+01  0.36820900946E+02  0.00000000000E+00 0. -1.
         11    1    4    4    0    0 -0.90428262232E+01 -0.37626965477E+01 -0.92386629313E+00  0.98378920813E+01  0.51100000000E-03 0. -1.
        -11    1    4    4    0    0  0.50407006781E+01  0.21936731785E+01  0.19189821280E+01  0.58226590154E+01  0.51100000000E-03 0.  1.
        -12    1    4    4    0    0  0.28312960455E+02 -0.25330529812E+02 -0.74119757483E+01  0.38706547957E+02  0.00000000000E+00 0.  1.
</event>
<event>
 8    1  0.1244838E-006  0.9118800E+02  0.7816164E-02  0.1184000E+00
        -11   -1    0    0    0    0  0.00000000000E+00  0.00000000000E+00  0.45593999997E+02  0.45594000000E+02  0.51100000000E-03 0. -1.
         11   -1    0    0    0    0 -0.00000000000E+00 -0.00000000000E+00 -0.45593999997E+02  0.45594000000E+02  0.51100000000E-03 0.  1.
         23    2    1    2    0    0  0.00000000000E+00  0.13877787808E-15  0.00000000000E+00  0.91188000000E+02  0.91188000000E+02 0.  0.
    9900012    2    3    3    0    0 -0.12458156023E+02 -0.92947351434E-01  0.34649206571E+02  0.54367057499E+02  0.39999939180E+02 0.  0.
        -12    1    3    3    0    0  0.12458156023E+02  0.92947351434E-01 -0.34649206571E+02  0.36820942501E+02  0.00000000000E+00 0.  1.
         11    1    4    4    0    0 -0.10555283206E+02 -0.82688134312E+00 -0.33583096061E+00  0.10592946663E+02  0.51100000000E-03 0. -1.
        -11    1    4    4    0    0  0.32291692659E+01  0.13809373160E+01 -0.34909988598E+01  0.49519284444E+01  0.51100000000E-03 0.  1.
         12    1    4    4    0    0 -0.51320420827E+01 -0.64700332436E+00  0.38476036391E+02  0.38822182391E+02  0.00000000000E+00 0. -1.
</event>
<event>
 8    1  0.1244838E-006  0.9118800E+02  0.7816164E-02  0.1184000E+00
        -11   -1    0    0    0    0  0.00000000000E+00  0.00000000000E+00  0.45593999997E+02  0.45594000000E+02  0.51100000000E-03 0.  1.
         11   -1    0    0    0    0 -0.00000000000E+00 -0.00000000000E+00 -0.45593999997E+02  0.45594000000E+02  0.51100000000E-03 0. -1.
         23    2    1    2    0    0  0.00000000000E+00  0.00000000000E+00  0.00000000000E+00  0.91188000000E+02  0.91188000000E+02 0.  0.
    9900012    2    3    3    0    0 -0.14397480435E+02  0.18939042062E+02 -0.28103431912E+02  0.54367114047E+02  0.40000068093E+02 0.  0.
        -12    1    3    3    0    0  0.14397480435E+02 -0.18939042062E+02  0.28103431912E+02  0.36820885953E+02  0.00000000000E+00 0.  1.
         11    1    4    4    0    0  0.11033011101E+01  0.95644004593E+01 -0.24589989578E+01  0.99368861129E+01  0.51100000000E-03 0. -1.
        -11    1    4    4    0    0 -0.12608273541E+02  0.35545616684E+01  0.43009053040E+01  0.13787721241E+02  0.51100000000E-03 0.  1.
        -12    1    4    4    0    0 -0.28925080048E+01  0.58200799340E+01 -0.29945338259E+02  0.30642506693E+02  0.00000000000E+00 0.  1.
</event>
<event>
 8    1  0.1244838E-006  0.9118800E+02  0.7816164E-02  0.1184000E+00
        -11   -1    0    0    0    0  0.00000000000E+00  0.00000000000E+00  0.45593999997E+02  0.45594000000E+02  0.51100000000E-03 0.  1.
         11   -1    0    0    0    0 -0.00000000000E+00 -0.00000000000E+00 -0.45593999997E+02  0.45594000000E+02  0.51100000000E-03 0. -1.
         23    2    1    2    0    0  0.00000000000E+00  0.00000000000E+00  0.00000000000E+00  0.91188000000E+02  0.91188000000E+02 0.  0.
    9900012    2    3    3    0    0  0.15720777353E+02  0.61287440440E+01  0.32727299410E+02  0.54367075639E+02  0.39999980534E+02 0.  0.
        -12    1    3    3    0    0 -0.15720777353E+02 -0.61287440440E+01 -0.32727299410E+02  0.36820924361E+02  0.00000000000E+00 0.  1.
         11    1    4    4    0    0  0.34494522117E+01 -0.45446468159E+01  0.30186552357E+02  0.30721010379E+02  0.51100000000E-03 0.  1.
        -11    1    4    4    0    0  0.51106800676E+01 -0.40601746206E+01  0.31621414475E+01  0.72528068703E+01  0.51100000000E-03 0. -1.
        -12    1    4    4    0    0  0.71606450734E+01  0.14733565481E+02 -0.62139439474E+00  0.16393258390E+02  0.00000000000E+00 0.  1.
</event>
<event>
 8    1  0.1244838E-006  0.9118800E+02  0.7816164E-02  0.1184000E+00
        -11   -1    0    0    0    0  0.00000000000E+00  0.00000000000E+00  0.45593999997E+02  0.45594000000E+02  0.51100000000E-03 0.  1.
         11   -1    0    0    0    0 -0.00000000000E+00 -0.00000000000E+00 -0.45593999997E+02  0.45594000000E+02  0.51100000000E-03 0. -1.
         23    2    1    2    0    0 -0.41633363423E-15  0.00000000000E+00  0.00000000000E+00  0.91188000000E+02  0.91188000000E+02 0.  0.
    9900012    2    3    3    0    0 -0.22393039838E+00 -0.32492780743E+02 -0.17319095565E+02  0.54367054651E+02  0.39999932687E+02 0.  0.
        -12    1    3    3    0    0  0.22393039838E+00  0.32492780743E+02  0.17319095565E+02  0.36820945349E+02  0.00000000000E+00 0.  1.
         11    1    4    4    0    0  0.20549435195E+00  0.32894450621E+01  0.93812407325E+00  0.34267701678E+01  0.51100000000E-03 0. -1.
        -11    1    4    4    0    0  0.13080788142E+02 -0.81366007966E+01 -0.12031479948E+02  0.19546554708E+02  0.51100000000E-03 0.  1.
         12    1    4    4    0    0 -0.13510212892E+02 -0.27645625008E+02 -0.62257396901E+01  0.31393729775E+02  0.00000000000E+00 0. -1.
</event>
<event>
 8    1  0.1244838E-006  0.9118800E+02  0.7816164E-02  0.1184000E+00
        -11   -1    0    0    0    0  0.00000000000E+00  0.00000000000E+00  0.45593999997E+02  0.45594000000E+02  0.51100000000E-03 0. -1.
         11   -1    0    0    0    0 -0.00000000000E+00 -0.00000000000E+00 -0.45593999997E+02  0.45594000000E+02  0.51100000000E-03 0.  1.
         23    2    1    2    0    0  0.88817841970E-15  0.00000000000E+00  0.00000000000E+00  0.91188000000E+02  0.91188000000E+02 0.  0.
    9900012    2    3    3    0    0  0.78721562704E+01 -0.14188311173E+02  0.33053003947E+02  0.54367080834E+02  0.39999992378E+02 0.  0.
        -12    1    3    3    0    0 -0.78721562704E+01  0.14188311173E+02 -0.33053003947E+02  0.36820919166E+02  0.00000000000E+00 0.  1.
         11    1    4    4    0    0  0.17162017490E+02 -0.13521980036E+02  0.19319998601E+02  0.29165752770E+02  0.51100000000E-03 0. -1.
        -11    1    4    4    0    0  0.58682226213E+01  0.68248816984E+00  0.40895158831E+01  0.71851212414E+01  0.51100000000E-03 0.  1.
        -12    1    4    4    0    0 -0.15158083841E+02 -0.13488193073E+01  0.96434894624E+01  0.18016206823E+02  0.00000000000E+00 0.  1.
</event>
<event>
 8    1  0.1244838E-006  0.9118800E+02  0.7816164E-02  0.1184000E+00
        -11   -1    0    0    0    0  0.00000000000E+00  0.00000000000E+00  0.45593999997E+02  0.45594000000E+02  0.51100000000E-03 0.  1.
         11   -1    0    0    0    0 -0.00000000000E+00 -0.00000000000E+00 -0.45593999997E+02  0.45594000000E+02  0.51100000000E-03 0. -1.
         23    2    1    2    0    0  0.00000000000E+00  0.00000000000E+00  0.00000000000E+00  0.91188000000E+02  0.91188000000E+02 0.  0.
    9900012    2    3    3    0    0  0.13039065906E+02  0.26149695363E+02 -0.22404370192E+02  0.54367087314E+02  0.40000007150E+02 0.  0.
        -12    1    3    3    0    0 -0.13039065906E+02 -0.26149695363E+02  0.22404370192E+02  0.36820912686E+02  0.00000000000E+00 0.  1.
         11    1    4    4    0    0  0.55326275438E+01  0.33478334056E+02 -0.10956201403E+02  0.35657357841E+02  0.51100000000E-03 0. -1.
        -11    1    4    4    0    0  0.62459614138E+01  0.83815657971E+00 -0.33384348349E+01  0.71315978464E+01  0.51100000000E-03 0.  1.
         12    1    4    4    0    0  0.12604769489E+01 -0.81667952727E+01 -0.81097339540E+01  0.11578131627E+02  0.00000000000E+00 0. -1.
</event>
<event>
 8    1  0.1244838E-006  0.9118800E+02  0.7816164E-02  0.1184000E+00
        -11   -1    0    0    0    0  0.00000000000E+00  0.00000000000E+00  0.45593999997E+02  0.45594000000E+02  0.51100000000E-03 0.  1.
         11   -1    0    0    0    0 -0.00000000000E+00 -0.00000000000E+00 -0.45593999997E+02  0.45594000000E+02  0.51100000000E-03 0. -1.
         23    2    1    2    0    0  0.00000000000E+00  0.00000000000E+00  0.00000000000E+00  0.91188000000E+02  0.91188000000E+02 0.  0.
    9900012    2    3    3    0    0  0.19750546830E+02  0.15222090403E+02  0.27092101656E+02  0.54367107718E+02  0.40000053664E+02 0.  0.
         12    1    3    3    0    0 -0.19750546830E+02 -0.15222090403E+02 -0.27092101656E+02  0.36820892282E+02  0.00000000000E+00 0. -1.
         11    1    4    4    0    0  0.16569867921E+02  0.18256125223E+00  0.60496228368E+01  0.17640628907E+02  0.51100000000E-03 0. -1.
        -11    1    4    4    0    0 -0.43624364552E+01  0.75882476499E+01  0.24142127866E+02  0.25679849929E+02  0.51100000000E-03 0.  1.
        -12    1    4    4    0    0  0.75431153649E+01  0.74512815010E+01 -0.30996490472E+01  0.11046628881E+02  0.00000000000E+00 0.  1.
</event>
<event>
 8    1  0.1244838E-006  0.9118800E+02  0.7816164E-02  0.1184000E+00
        -11   -1    0    0    0    0  0.00000000000E+00  0.00000000000E+00  0.45593999997E+02  0.45594000000E+02  0.51100000000E-03 0.  1.
         11   -1    0    0    0    0 -0.00000000000E+00 -0.00000000000E+00 -0.45593999997E+02  0.45594000000E+02  0.51100000000E-03 0. -1.
         23    2    1    2    0    0  0.00000000000E+00  0.00000000000E+00  0.00000000000E+00  0.91188000000E+02  0.91188000000E+02 0.  0.
    9900012    2    3    3    0    0  0.26801098245E+02 -0.11236427144E+02  0.22610344629E+02  0.54367029802E+02  0.39999876039E+02 0.  0.
        -12    1    3    3    0    0 -0.26801098245E+02  0.11236427144E+02 -0.22610344629E+02  0.36820970198E+02  0.00000000000E+00 0.  1.
         11    1    4    4    0    0  0.70277886585E+01 -0.74491114201E+01  0.17976379869E+01  0.10397623621E+02  0.51100000000E-03 0. -1.
        -11    1    4    4    0    0  0.23158300872E+02  0.71999611910E+01  0.21558087000E+02  0.32448381405E+02  0.51100000000E-03 0.  1.
        -12    1    4    4    0    0 -0.33849912852E+01 -0.10987276915E+02 -0.74538035798E+00  0.11521024776E+02  0.00000000000E+00 0.  1.
</event>
<event>
 8    1  0.1244838E-006  0.9118800E+02  0.7816164E-02  0.1184000E+00
        -11   -1    0    0    0    0  0.00000000000E+00  0.00000000000E+00  0.45593999997E+02  0.45594000000E+02  0.51100000000E-03 0. -1.
         11   -1    0    0    0    0 -0.00000000000E+00 -0.00000000000E+00 -0.45593999997E+02  0.45594000000E+02  0.51100000000E-03 0.  1.
         23    2    1    2    0    0  0.00000000000E+00  0.00000000000E+00  0.35527136788E-14  0.91188000000E+02  0.91188000000E+02 0.  0.
    9900012    2    3    3    0    0 -0.31290483507E+02  0.63422431416E+01  0.18342883303E+02  0.54367085100E+02  0.40000002103E+02 0.  0.
        -12    1    3    3    0    0  0.31290483507E+02 -0.63422431416E+01 -0.18342883303E+02  0.36820914900E+02  0.00000000000E+00 0.  1.
         11    1    4    4    0    0 -0.59642439025E+01 -0.11355988752E+02 -0.32879959204E+01  0.13241661652E+02  0.51100000000E-03 0. -1.
        -11    1    4    4    0    0 -0.10248853541E+02  0.58799197298E+01 -0.53542437587E+00  0.11827896451E+02  0.51100000000E-03 0.  1.
         12    1    4    4    0    0 -0.15077386064E+02  0.11818312164E+02  0.22166303599E+02  0.29297526997E+02  0.00000000000E+00 0. -1.
</event>
<event>
 8    1  0.1244838E-006  0.9118800E+02  0.7816164E-02  0.1184000E+00
        -11   -1    0    0    0    0  0.00000000000E+00  0.00000000000E+00  0.45593999997E+02  0.45594000000E+02  0.51100000000E-03 0. -1.
         11   -1    0    0    0    0 -0.00000000000E+00 -0.00000000000E+00 -0.45593999997E+02  0.45594000000E+02  0.51100000000E-03 0.  1.
         23    2    1    2    0    0 -0.35527136788E-14  0.00000000000E+00  0.00000000000E+00  0.91188000000E+02  0.91188000000E+02 0.  0.
    9900012    2    3    3    0    0 -0.28152985077E+02 -0.21951910141E+02 -0.90168067695E+01  0.54367085672E+02  0.40000003407E+02 0.  0.
        -12    1    3    3    0    0  0.28152985077E+02  0.21951910141E+02  0.90168067695E+01  0.36820914328E+02  0.00000000000E+00 0.  1.
         11    1    4    4    0    0  0.63107972708E+00 -0.20615834123E+02  0.14199352683E+01  0.20674310016E+02  0.51100000000E-03 0. -1.
        -11    1    4    4    0    0 -0.76977322442E+01  0.33780649737E+01 -0.85712519073E+01  0.12005530567E+02  0.51100000000E-03 0.  1.
         12    1    4    4    0    0 -0.21086332560E+02 -0.47141409914E+01 -0.18654901305E+01  0.21687245089E+02  0.00000000000E+00 0. -1.
</event>
<event>
 8    1  0.1244838E-006  0.9118800E+02  0.7816164E-02  0.1184000E+00
        -11   -1    0    0    0    0  0.00000000000E+00  0.00000000000E+00  0.45593999997E+02  0.45594000000E+02  0.51100000000E-03 0.  1.
         11   -1    0    0    0    0 -0.00000000000E+00 -0.00000000000E+00 -0.45593999997E+02  0.45594000000E+02  0.51100000000E-03 0. -1.
         23    2    1    2    0    0  0.35527136788E-14  0.00000000000E+00  0.00000000000E+00  0.91188000000E+02  0.91188000000E+02 0.  0.
    9900012    2    3    3    0    0 -0.31674523100E+02 -0.14277689625E+02  0.12192242109E+02  0.54367101012E+02  0.40000038377E+02 0.  0.
        -12    1    3    3    0    0  0.31674523100E+02  0.14277689625E+02 -0.12192242109E+02  0.36820898988E+02  0.00000000000E+00 0.  1.
         11    1    4    4    0    0 -0.76797309459E+01 -0.15708708011E+02  0.89526029102E+01  0.19644105322E+02  0.51100000000E-03 0. -1.
        -11    1    4    4    0    0  0.11349660648E+01 -0.73924836075E+01  0.30806755246E+01  0.80887281945E+01  0.51100000000E-03 0.  1.
         12    1    4    4    0    0 -0.25129758219E+02  0.88235019934E+01  0.15896367375E+00  0.26634267495E+02  0.00000000000E+00 0. -1.
</event>
<event>
 8    1  0.1244838E-006  0.9118800E+02  0.7816164E-02  0.1184000E+00
        -11   -1    0    0    0    0  0.00000000000E+00  0.00000000000E+00  0.45593999997E+02  0.45594000000E+02  0.51100000000E-03 0.  1.
         11   -1    0    0    0    0 -0.00000000000E+00 -0.00000000000E+00 -0.45593999997E+02  0.45594000000E+02  0.51100000000E-03 0. -1.
         23    2    1    2    0    0 -0.17763568394E-14  0.00000000000E+00 -0.71054273576E-14  0.91188000000E+02  0.91188000000E+02 0.  0.
    9900012    2    3    3    0    0  0.98621129299E+01  0.11356869309E+01 -0.35457429276E+02  0.54367077318E+02  0.39999984362E+02 0.  0.
        -12    1    3    3    0    0 -0.98621129299E+01 -0.11356869309E+01  0.35457429276E+02  0.36820922682E+02  0.00000000000E+00 0.  1.
         11    1    4    4    0    0 -0.20843596117E+01  0.67282340429E+01 -0.25443809927E+02  0.26400779386E+02  0.51100000000E-03 0. -1.
        -11    1    4    4    0    0  0.48075282319E+01 -0.14076544076E+02 -0.42515061390E+01  0.15470511483E+02  0.51100000000E-03 0.  1.
        -12    1    4    4    0    0  0.71389443097E+01  0.84839969639E+01 -0.57621132106E+01  0.12495786450E+02  0.00000000000E+00 0.  1.
</event>
<event>
 8    1  0.1244838E-006  0.9118800E+02  0.7816164E-02  0.1184000E+00
        -11   -1    0    0    0    0  0.00000000000E+00  0.00000000000E+00  0.45593999997E+02  0.45594000000E+02  0.51100000000E-03 0.  1.
         11   -1    0    0    0    0 -0.00000000000E+00 -0.00000000000E+00 -0.45593999997E+02  0.45594000000E+02  0.51100000000E-03 0. -1.
         23    2    1    2    0    0  0.00000000000E+00 -0.17763568394E-14  0.35527136788E-14  0.91188000000E+02  0.91188000000E+02 0.  0.
    9900012    2    3    3    0    0  0.21444691167E+02  0.53465171822E+01 -0.29450360969E+02  0.54367030616E+02  0.39999877895E+02 0.  0.
        -12    1    3    3    0    0 -0.21444691167E+02 -0.53465171822E+01  0.29450360969E+02  0.36820969384E+02  0.00000000000E+00 0.  1.
         11    1    4    4    0    0  0.13045708648E+02 -0.72602925951E+00 -0.41798032174E+01  0.13718177278E+02  0.51100000000E-03 0. -1.
        -11    1    4    4    0    0  0.40128036592E+01  0.61982824527E+01  0.57255959143E+01  0.93436474359E+01  0.51100000000E-03 0.  1.
         12    1    4    4    0    0  0.43861788590E+01 -0.12573601100E+00 -0.30996153665E+02  0.31305205902E+02  0.00000000000E+00 0. -1.
</event>
<event>
 8    1  0.1244838E-006  0.9118800E+02  0.7816164E-02  0.1184000E+00
        -11   -1    0    0    0    0  0.00000000000E+00  0.00000000000E+00  0.45593999997E+02  0.45594000000E+02  0.51100000000E-03 0.  1.
         11   -1    0    0    0    0 -0.00000000000E+00 -0.00000000000E+00 -0.45593999997E+02  0.45594000000E+02  0.51100000000E-03 0. -1.
         23    2    1    2    0    0  0.00000000000E+00  0.00000000000E+00  0.00000000000E+00  0.91188000000E+02  0.91188000000E+02 0.  0.
    9900012    2    3    3    0    0  0.21844921451E+02 -0.27388703297E+02  0.11333074840E+02  0.54367078680E+02  0.39999987468E+02 0.  0.
         12    1    3    3    0    0 -0.21844921451E+02  0.27388703297E+02 -0.11333074840E+02  0.36820921320E+02  0.00000000000E+00 0. -1.
         11    1    4    4    0    0  0.10961645821E+02  0.63829713743E+01  0.12584118260E+02  0.17867849208E+02  0.51100000000E-03 0. -1.
        -11    1    4    4    0    0  0.96355580366E+01 -0.16643851719E+02 -0.18111791092E+01  0.19316887657E+02  0.51100000000E-03 0.  1.
        -12    1    4    4    0    0  0.12477175934E+01 -0.17127822952E+02  0.56013568891E+00  0.17182341815E+02  0.00000000000E+00 0.  1.
</event>
<event>
 8    1  0.1244838E-006  0.9118800E+02  0.7816164E-02  0.1184000E+00
        -11   -1    0    0    0    0  0.00000000000E+00  0.00000000000E+00  0.45593999997E+02  0.45594000000E+02  0.51100000000E-03 0. -1.
         11   -1    0    0    0    0 -0.00000000000E+00 -0.00000000000E+00 -0.45593999997E+02  0.45594000000E+02  0.51100000000E-03 0.  1.
         23    2    1    2    0    0 -0.35527136788E-14 -0.35527136788E-14 -0.26645352591E-14  0.91188000000E+02  0.91188000000E+02 0.  0.
    9900012    2    3    3    0    0  0.28412658595E+02  0.23198281026E+02  0.32156097173E+01  0.54367088050E+02  0.40000008827E+02 0.  0.
         12    1    3    3    0    0 -0.28412658595E+02 -0.23198281026E+02 -0.32156097173E+01  0.36820911950E+02  0.00000000000E+00 0. -1.
         11    1    4    4    0    0  0.12497606663E+02  0.96189249448E+01 -0.48716962188E+01  0.16505978120E+02  0.51100000000E-03 0. -1.
        -11    1    4    4    0    0  0.85426285428E+00  0.74069868476E+01 -0.10675981959E+02  0.13021897336E+02  0.51100000000E-03 0.  1.
         12    1    4    4    0    0  0.15060789078E+02  0.61723692337E+01  0.18763287895E+02  0.24839212593E+02  0.00000000000E+00 0. -1.
</event>
<event>
 8    1  0.1244838E-006  0.9118800E+02  0.7816164E-02  0.1184000E+00
        -11   -1    0    0    0    0  0.00000000000E+00  0.00000000000E+00  0.45593999997E+02  0.45594000000E+02  0.51100000000E-03 0.  1.
         11   -1    0    0    0    0 -0.00000000000E+00 -0.00000000000E+00 -0.45593999997E+02  0.45594000000E+02  0.51100000000E-03 0. -1.
         23    2    1    2    0    0  0.17763568394E-14 -0.17763568394E-14 -0.35527136788E-14  0.91188000000E+02  0.91188000000E+02 0.  0.
    9900012    2    3    3    0    0  0.15238193808E+02 -0.12024005897E+02  0.31288990907E+02  0.54367079040E+02  0.39999988288E+02 0.  0.
         12    1    3    3    0    0 -0.15238193808E+02  0.12024005897E+02 -0.31288990907E+02  0.36820920960E+02  0.00000000000E+00 0. -1.
         11    1    4    4    0    0  0.11637088498E+02 -0.38410245475E+01  0.66023322405E+00  0.12272375746E+02  0.51100000000E-03 0. -1.
        -11    1    4    4    0    0 -0.96317592179E+01  0.43567563478E+01  0.12719460270E+02  0.16538947407E+02  0.51100000000E-03 0.  1.
        -12    1    4    4    0    0  0.13232864528E+02 -0.12539737697E+02  0.17909297414E+02  0.25555755888E+02  0.00000000000E+00 0.  1.
</event>
<event>
 8    1  0.1244838E-006  0.9118800E+02  0.7816164E-02  0.1184000E+00
        -11   -1    0    0    0    0  0.00000000000E+00  0.00000000000E+00  0.45593999997E+02  0.45594000000E+02  0.51100000000E-03 0.  1.
         11   -1    0    0    0    0 -0.00000000000E+00 -0.00000000000E+00 -0.45593999997E+02  0.45594000000E+02  0.51100000000E-03 0. -1.
         23    2    1    2    0    0 -0.35527136788E-14  0.88817841970E-15 -0.35527136788E-14  0.91188000000E+02  0.91188000000E+02 0.  0.
    9900012    2    3    3    0    0 -0.24360102263E+02  0.73264801552E+01 -0.26621238734E+02  0.54367051540E+02  0.39999925596E+02 0.  0.
         12    1    3    3    0    0  0.24360102263E+02 -0.73264801552E+01  0.26621238734E+02  0.36820948460E+02  0.00000000000E+00 0. -1.
         11    1    4    4    0    0 -0.28600686128E+01 -0.16681973396E+01 -0.22815662880E+02  0.23054660000E+02  0.51100000000E-03 0. -1.
        -11    1    4    4    0    0 -0.85757479313E+00  0.10137243286E+02  0.53531690158E+00  0.10187526707E+02  0.51100000000E-03 0.  1.
        -12    1    4    4    0    0 -0.20642458857E+02 -0.11425657911E+01 -0.43408927563E+01  0.21124864832E+02  0.00000000000E+00 0.  1.
</event>
<event>
 8    1  0.1244838E-006  0.9118800E+02  0.7816164E-02  0.1184000E+00
        -11   -1    0    0    0    0  0.00000000000E+00  0.00000000000E+00  0.45593999997E+02  0.45594000000E+02  0.51100000000E-03 0. -1.
         11   -1    0    0    0    0 -0.00000000000E+00 -0.00000000000E+00 -0.45593999997E+02  0.45594000000E+02  0.51100000000E-03 0.  1.
         23    2    1    2    0    0 -0.35527136788E-14  0.17763568394E-14 -0.35527136788E-14  0.91188000000E+02  0.91188000000E+02 0.  0.
    9900012    2    3    3    0    0 -0.16397887753E+02 -0.11250402286E+02  0.30988974190E+02  0.54367098386E+02  0.40000032390E+02 0.  0.
        -12    1    3    3    0    0  0.16397887753E+02  0.11250402286E+02 -0.30988974190E+02  0.36820901614E+02  0.00000000000E+00 0.  1.
         11    1    4    4    0    0  0.69168231970E+01 -0.73359069788E+01  0.19019613693E+02  0.21526813039E+02  0.51100000000E-03 0. -1.
        -11    1    4    4    0    0 -0.71766519917E+00 -0.22682273503E+01 -0.43225235453E+01  0.49339749403E+01  0.51100000000E-03 0.  1.
         12    1    4    4    0    0 -0.22597045751E+02 -0.16462679567E+01  0.16291884042E+02  0.27906310407E+02  0.00000000000E+00 0. -1.
</event>
<event>
 8    1  0.1244838E-006  0.9118800E+02  0.7816164E-02  0.1184000E+00
        -11   -1    0    0    0    0  0.00000000000E+00  0.00000000000E+00  0.45593999997E+02  0.45594000000E+02  0.51100000000E-03 0.  1.
         11   -1    0    0    0    0 -0.00000000000E+00 -0.00000000000E+00 -0.45593999997E+02  0.45594000000E+02  0.51100000000E-03 0. -1.
         23    2    1    2    0    0 -0.35527136788E-14 -0.88817841970E-15 -0.35527136788E-14  0.91188000000E+02  0.91188000000E+02 0.  0.
    9900012    2    3    3    0    0 -0.29854391049E+02 -0.31891001333E+01 -0.21314923916E+02  0.54367068370E+02  0.39999963963E+02 0.  0.
         12    1    3    3    0    0  0.29854391049E+02  0.31891001333E+01  0.21314923916E+02  0.36820931630E+02  0.00000000000E+00 0. -1.
         11    1    4    4    0    0 -0.64632445604E+01 -0.49716699024E+01 -0.97246593842E+01  0.12690942923E+02  0.51100000000E-03 0. -1.
        -11    1    4    4    0    0  0.54193644861E+00  0.12041957966E+02  0.21337143996E+01  0.12241535205E+02  0.51100000000E-03 0.  1.
         12    1    4    4    0    0 -0.23933082937E+02 -0.10259388197E+02 -0.13723978931E+02  0.29434590243E+02  0.00000000000E+00 0. -1.
</event>
<event>
 8    1  0.1244838E-006  0.9118800E+02  0.7816164E-02  0.1184000E+00
        -11   -1    0    0    0    0  0.00000000000E+00  0.00000000000E+00  0.45593999997E+02  0.45594000000E+02  0.51100000000E-03 0.  1.
         11   -1    0    0    0    0 -0.00000000000E+00 -0.00000000000E+00 -0.45593999997E+02  0.45594000000E+02  0.51100000000E-03 0. -1.
         23    2    1    2    0    0 -0.35527136788E-14  0.00000000000E+00  0.17763568394E-14  0.91188000000E+02  0.91188000000E+02 0.  0.
    9900012    2    3    3    0    0  0.11883514368E+02  0.31891205972E+02 -0.14053928612E+02  0.54367084184E+02  0.40000000014E+02 0.  0.
        -12    1    3    3    0    0 -0.11883514368E+02 -0.31891205972E+02  0.14053928612E+02  0.36820915816E+02  0.00000000000E+00 0.  1.
         11    1    4    4    0    0 -0.67723790269E+01  0.25868983345E+02 -0.74073931002E+01  0.27747772700E+02  0.51100000000E-03 0. -1.
        -11    1    4    4    0    0 -0.25687432030E+01  0.35868171014E+01 -0.12004588222E+01  0.45721767471E+01  0.51100000000E-03 0.  1.
        -12    1    4    4    0    0  0.21224636598E+02  0.24354055258E+01 -0.54460766900E+01  0.22047134737E+02  0.00000000000E+00 0.  1.
</event>
<event>
 8    1  0.1244838E-006  0.9118800E+02  0.7816164E-02  0.1184000E+00
        -11   -1    0    0    0    0  0.00000000000E+00  0.00000000000E+00  0.45593999997E+02  0.45594000000E+02  0.51100000000E-03 0.  1.
         11   -1    0    0    0    0 -0.00000000000E+00 -0.00000000000E+00 -0.45593999997E+02  0.45594000000E+02  0.51100000000E-03 0. -1.
         23    2    1    2    0    0 -0.26645352591E-14 -0.71054273576E-14  0.00000000000E+00  0.91188000000E+02  0.91188000000E+02 0.  0.
    9900012    2    3    3    0    0 -0.71571523536E+01 -0.33358645948E+02 -0.13847588395E+02  0.54367084834E+02  0.40000001497E+02 0.  0.
        -12    1    3    3    0    0  0.71571523536E+01  0.33358645948E+02  0.13847588395E+02  0.36820915166E+02  0.00000000000E+00 0.  1.
         11    1    4    4    0    0  0.10748701196E+02 -0.29025760109E+01  0.25056249272E+01  0.11412172512E+02  0.51100000000E-03 0. -1.
        -11    1    4    4    0    0 -0.52944480628E+01 -0.13484031261E+02  0.24103097953E+01  0.14685362540E+02  0.51100000000E-03 0.  1.
         12    1    4    4    0    0 -0.12611405487E+02 -0.16972038675E+02 -0.18763523117E+02  0.28269549783E+02  0.00000000000E+00 0. -1.
</event>
<event>
 8    1  0.1244838E-006  0.9118800E+02  0.7816164E-02  0.1184000E+00
        -11   -1    0    0    0    0  0.00000000000E+00  0.00000000000E+00  0.45593999997E+02  0.45594000000E+02  0.51100000000E-03 0.  1.
         11   -1    0    0    0    0 -0.00000000000E+00 -0.00000000000E+00 -0.45593999997E+02  0.45594000000E+02  0.51100000000E-03 0. -1.
         23    2    1    2    0    0  0.00000000000E+00 -0.35527136788E-14 -0.88817841970E-15  0.91188000000E+02  0.91188000000E+02 0.  0.
    9900012    2    3    3    0    0  0.27695216704E+02  0.24096212446E+02  0.28506593426E+01  0.54367099125E+02  0.40000034076E+02 0.  0.
        -12    1    3    3    0    0 -0.27695216704E+02 -0.24096212446E+02 -0.28506593426E+01  0.36820900875E+02  0.00000000000E+00 0.  1.
         11    1    4    4    0    0  0.22023188838E+01  0.45216979370E+01  0.63256195447E+01  0.80814246012E+01  0.51100000000E-03 0. -1.
        -11    1    4    4    0    0  0.31292943679E+02  0.18216141271E+02 -0.98861610913E+01  0.37534148562E+02  0.51100000000E-03 0.  1.
         12    1    4    4    0    0 -0.58000458591E+01  0.13583732383E+01  0.64112008892E+01  0.87515259620E+01  0.00000000000E+00 0. -1.
</event>
<event>
 8    1  0.1244838E-006  0.9118800E+02  0.7816164E-02  0.1184000E+00
        -11   -1    0    0    0    0  0.00000000000E+00  0.00000000000E+00  0.45593999997E+02  0.45594000000E+02  0.51100000000E-03 0.  1.
         11   -1    0    0    0    0 -0.00000000000E+00 -0.00000000000E+00 -0.45593999997E+02  0.45594000000E+02  0.51100000000E-03 0. -1.
         23    2    1    2    0    0  0.35527136788E-14 -0.35527136788E-14  0.17763568394E-14  0.91188000000E+02  0.91188000000E+02 0.  0.
    9900012    2    3    3    0    0 -0.30469228763E+02  0.19539278912E+02 -0.67544521837E+01  0.54367082763E+02  0.39999996776E+02 0.  0.
        -12    1    3    3    0    0  0.30469228763E+02 -0.19539278912E+02  0.67544521837E+01  0.36820917237E+02  0.00000000000E+00 0.  1.
         11    1    4    4    0    0 -0.15291530735E+01  0.58959357413E+01  0.25902659676E+01  0.66189006211E+01  0.51100000000E-03 0. -1.
        -11    1    4    4    0    0 -0.25100649902E+02 -0.56655767438E+01  0.49998103586E+00  0.25736964985E+02  0.51100000000E-03 0.  1.
        -12    1    4    4    0    0 -0.38394257876E+01  0.19308919915E+02 -0.98446991872E+01  0.22011217157E+02  0.00000000000E+00 0.  1.
</event>
<event>
 8    1  0.1244838E-006  0.9118800E+02  0.7816164E-02  0.1184000E+00
        -11   -1    0    0    0    0  0.00000000000E+00  0.00000000000E+00  0.45593999997E+02  0.45594000000E+02  0.51100000000E-03 0.  1.
         11   -1    0    0    0    0 -0.00000000000E+00 -0.00000000000E+00 -0.45593999997E+02  0.45594000000E+02  0.51100000000E-03 0. -1.
         23    2    1    2    0    0  0.00000000000E+00  0.00000000000E+00  0.00000000000E+00  0.91188000000E+02  0.91188000000E+02 0.  0.
    9900012    2    3    3    0    0  0.26444046658E+02 -0.15619463553E+02 -0.20310705065E+02  0.54367082227E+02  0.39999995554E+02 0.  0.
        -12    1    3    3    0    0 -0.26444046658E+02  0.15619463553E+02  0.20310705065E+02  0.36820917773E+02  0.00000000000E+00 0.  1.
         11    1    4    4    0    0  0.20628563456E+02 -0.13870355916E+02 -0.10647844700E+02  0.27042577549E+02  0.51100000000E-03 0. -1.
        -11    1    4    4    0    0  0.12736572687E+02 -0.35956359049E+00 -0.14086185473E+02  0.18993951437E+02  0.51100000000E-03 0.  1.
        -12    1    4    4    0    0 -0.69210894838E+01 -0.13895440470E+01  0.44233251069E+01  0.83305532410E+01  0.00000000000E+00 0.  1.
</event>
<event>
 8    1  0.1244838E-006  0.9118800E+02  0.7816164E-02  0.1184000E+00
        -11   -1    0    0    0    0  0.00000000000E+00  0.00000000000E+00  0.45593999997E+02  0.45594000000E+02  0.51100000000E-03 0. -1.
         11   -1    0    0    0    0 -0.00000000000E+00 -0.00000000000E+00 -0.45593999997E+02  0.45594000000E+02  0.51100000000E-03 0.  1.
         23    2    1    2    0    0 -0.17763568394E-14  0.00000000000E+00  0.11657341759E-14  0.91188000000E+02  0.91188000000E+02 0.  0.
    9900012    2    3    3    0    0 -0.11409169751E+02 -0.35006708534E+02 -0.37590609370E+00  0.54367080645E+02  0.39999991945E+02 0.  0.
         12    1    3    3    0    0  0.11409169751E+02  0.35006708534E+02  0.37590609370E+00  0.36820919355E+02  0.00000000000E+00 0. -1.
         11    1    4    4    0    0 -0.10537627731E+01 -0.96228877298E+01  0.30338100011E+01  0.10144672869E+02  0.51100000000E-03 0. -1.
        -11    1    4    4    0    0  0.22079210106E+01 -0.16497602897E+02 -0.16927460621E+02  0.23739939762E+02  0.51100000000E-03 0.  1.
        -12    1    4    4    0    0 -0.12563327988E+02 -0.88862179070E+01  0.13517744527E+02  0.20482468013E+02  0.00000000000E+00 0.  1.
</event>
<event>
 8    1  0.1244838E-006  0.9118800E+02  0.7816164E-02  0.1184000E+00
        -11   -1    0    0    0    0  0.00000000000E+00  0.00000000000E+00  0.45593999997E+02  0.45594000000E+02  0.51100000000E-03 0.  1.
         11   -1    0    0    0    0 -0.00000000000E+00 -0.00000000000E+00 -0.45593999997E+02  0.45594000000E+02  0.51100000000E-03 0. -1.
         23    2    1    2    0    0 -0.71054273576E-14 -0.17763568394E-14  0.00000000000E+00  0.91188000000E+02  0.91188000000E+02 0.  0.
    9900012    2    3    3    0    0  0.32515622060E+02  0.12424166912E+02  0.12006826930E+02  0.54366953107E+02  0.39999701196E+02 0.  0.
        -12    1    3    3    0    0 -0.32515622060E+02 -0.12424166912E+02 -0.12006826930E+02  0.36821046893E+02  0.00000000000E+00 0.  1.
         11    1    4    4    0    0 -0.36515238354E+01  0.53097675452E+00  0.13535005680E+02  0.14028967947E+02  0.51100000000E-03 0. -1.
        -11    1    4    4    0    0  0.10546548067E+02 -0.22347287989E+01 -0.24898040993E+01  0.11064484337E+02  0.51100000000E-03 0.  1.
         12    1    4    4    0    0  0.25620597828E+02  0.14127918956E+02  0.96162534934E+00  0.29273500823E+02  0.00000000000E+00 0. -1.
</event>
<event>
 8    1  0.1244838E-006  0.9118800E+02  0.7816164E-02  0.1184000E+00
        -11   -1    0    0    0    0  0.00000000000E+00  0.00000000000E+00  0.45593999997E+02  0.45594000000E+02  0.51100000000E-03 0. -1.
         11   -1    0    0    0    0 -0.00000000000E+00 -0.00000000000E+00 -0.45593999997E+02  0.45594000000E+02  0.51100000000E-03 0.  1.
         23    2    1    2    0    0  0.00000000000E+00  0.17763568394E-14  0.00000000000E+00  0.91188000000E+02  0.91188000000E+02 0.  0.
    9900012    2    3    3    0    0 -0.86567070111E+01 -0.12409171011E+02  0.33568590760E+02  0.54367131093E+02  0.40000106953E+02 0.  0.
        -12    1    3    3    0    0  0.86567070111E+01  0.12409171011E+02 -0.33568590760E+02  0.36820868907E+02  0.00000000000E+00 0.  1.
         11    1    4    4    0    0 -0.64530937335E+01  0.31305818759E+01 -0.20951766235E+01  0.74721300149E+01  0.51100000000E-03 0. -1.
        -11    1    4    4    0    0  0.13525669626E+01 -0.46937254896E+01 -0.35599171405E+01  0.60442953823E+01  0.51100000000E-03 0.  1.
         12    1    4    4    0    0 -0.35561802402E+01 -0.10846027397E+02  0.39223684524E+02  0.40850705696E+02  0.00000000000E+00 0. -1.
</event>
<event>
 8    1  0.1244838E-006  0.9118800E+02  0.7816164E-02  0.1184000E+00
        -11   -1    0    0    0    0  0.00000000000E+00  0.00000000000E+00  0.45593999997E+02  0.45594000000E+02  0.51100000000E-03 0.  1.
         11   -1    0    0    0    0 -0.00000000000E+00 -0.00000000000E+00 -0.45593999997E+02  0.45594000000E+02  0.51100000000E-03 0. -1.
         23    2    1    2    0    0 -0.35527136788E-14  0.00000000000E+00  0.35527136788E-14  0.91188000000E+02  0.91188000000E+02 0.  0.
    9900012    2    3    3    0    0  0.16052703893E+02 -0.20685873071E+02 -0.25887929053E+02  0.54367088582E+02  0.40000010040E+02 0.  0.
        -12    1    3    3    0    0 -0.16052703893E+02  0.20685873071E+02  0.25887929053E+02  0.36820911418E+02  0.00000000000E+00 0.  1.
         11    1    4    4    0    0  0.16377810359E+02 -0.24541960687E+02 -0.27878771094E+02  0.40592688806E+02  0.51100000000E-03 0. -1.
        -11    1    4    4    0    0 -0.56400863325E+01  0.27745531353E+01  0.45672186841E+01  0.77696979161E+01  0.51100000000E-03 0.  1.
        -12    1    4    4    0    0  0.53149798665E+01  0.10815344814E+01 -0.25763766435E+01  0.60047018597E+01  0.00000000000E+00 0.  1.
</event>
<event>
 8    1  0.1244838E-006  0.9118800E+02  0.7816164E-02  0.1184000E+00
        -11   -1    0    0    0    0  0.00000000000E+00  0.00000000000E+00  0.45593999997E+02  0.45594000000E+02  0.51100000000E-03 0.  1.
         11   -1    0    0    0    0 -0.00000000000E+00 -0.00000000000E+00 -0.45593999997E+02  0.45594000000E+02  0.51100000000E-03 0. -1.
         23    2    1    2    0    0  0.00000000000E+00 -0.35527136788E-14  0.00000000000E+00  0.91188000000E+02  0.91188000000E+02 0.  0.
    9900012    2    3    3    0    0 -0.29535441253E+02  0.21090960824E+02 -0.62134831461E+01  0.54367105235E+02  0.40000048005E+02 0.  0.
         12    1    3    3    0    0  0.29535441253E+02 -0.21090960824E+02  0.62134831461E+01  0.36820894765E+02  0.00000000000E+00 0. -1.
         11    1    4    4    0    0 -0.11565417856E+02  0.73778770967E+01 -0.61419444084E+00  0.13732049946E+02  0.51100000000E-03 0. -1.
        -11    1    4    4    0    0 -0.26496209684E+02  0.16361962730E+02 -0.59306896057E+01  0.31700726040E+02  0.51100000000E-03 0.  1.
         12    1    4    4    0    0  0.85261862876E+01 -0.26488790026E+01  0.33140090041E+00  0.89343292495E+01  0.00000000000E+00 0. -1.
</event>
<event>
 8    1  0.1244838E-006  0.9118800E+02  0.7816164E-02  0.1184000E+00
        -11   -1    0    0    0    0  0.00000000000E+00  0.00000000000E+00  0.45593999997E+02  0.45594000000E+02  0.51100000000E-03 0.  1.
         11   -1    0    0    0    0 -0.00000000000E+00 -0.00000000000E+00 -0.45593999997E+02  0.45594000000E+02  0.51100000000E-03 0. -1.
         23    2    1    2    0    0  0.71054273576E-14 -0.17763568394E-14 -0.88817841970E-15  0.91188000000E+02  0.91188000000E+02 0.  0.
    9900012    2    3    3    0    0 -0.32588141515E+02  0.15885647006E+02  0.64373893682E+01  0.54367072118E+02  0.39999972508E+02 0.  0.
         12    1    3    3    0    0  0.32588141515E+02 -0.15885647006E+02 -0.64373893682E+01  0.36820927882E+02  0.00000000000E+00 0. -1.
         11    1    4    4    0    0 -0.12186925369E+02  0.19402587769E+02 -0.33189197929E+01  0.23151604500E+02  0.51100000000E-03 0. -1.
        -11    1    4    4    0    0 -0.41096871737E+01  0.24587302144E+01  0.12737792901E+02  0.13608315516E+02  0.51100000000E-03 0.  1.
         12    1    4    4    0    0 -0.16291528972E+02 -0.59756709770E+01 -0.29814837394E+01  0.17607152103E+02  0.00000000000E+00 0. -1.
</event>
<event>
 8    1  0.1244838E-006  0.9118800E+02  0.7816164E-02  0.1184000E+00
        -11   -1    0    0    0    0  0.00000000000E+00  0.00000000000E+00  0.45593999997E+02  0.45594000000E+02  0.51100000000E-03 0. -1.
         11   -1    0    0    0    0 -0.00000000000E+00 -0.00000000000E+00 -0.45593999997E+02  0.45594000000E+02  0.51100000000E-03 0.  1.
         23    2    1    2    0    0  0.00000000000E+00 -0.88817841970E-15  0.00000000000E+00  0.91188000000E+02  0.91188000000E+02 0.  0.
    9900012    2    3    3    0    0  0.13222900401E+01  0.41156307393E+01  0.36566305147E+02  0.54367061128E+02  0.39999947453E+02 0.  0.
        -12    1    3    3    0    0 -0.13222900401E+01 -0.41156307393E+01 -0.36566305147E+02  0.36820938872E+02  0.00000000000E+00 0.  1.
         11    1    4    4    0    0  0.12579408321E+01  0.13159961544E+02  0.38452069782E+02  0.40661144521E+02  0.51100000000E-03 0. -1.
        -11    1    4    4    0    0 -0.22905361409E+01 -0.57477321956E+01  0.33891744146E+01  0.70547490869E+01  0.51100000000E-03 0.  1.
         12    1    4    4    0    0  0.23548853488E+01 -0.32965986095E+01 -0.52749390499E+01  0.66511675199E+01  0.00000000000E+00 0. -1.
</event>
<event>
 8    1  0.1244838E-006  0.9118800E+02  0.7816164E-02  0.1184000E+00
        -11   -1    0    0    0    0  0.00000000000E+00  0.00000000000E+00  0.45593999997E+02  0.45594000000E+02  0.51100000000E-03 0.  1.
         11   -1    0    0    0    0 -0.00000000000E+00 -0.00000000000E+00 -0.45593999997E+02  0.45594000000E+02  0.51100000000E-03 0. -1.
         23    2    1    2    0    0  0.00000000000E+00  0.35527136788E-14  0.00000000000E+00  0.91188000000E+02  0.91188000000E+02 0.  0.
    9900012    2    3    3    0    0  0.28131410740E+02  0.22089599528E+02 -0.87432676925E+01  0.54367198712E+02  0.40000261103E+02 0.  0.
        -12    1    3    3    0    0 -0.28131410740E+02 -0.22089599528E+02  0.87432676925E+01  0.36820801288E+02  0.00000000000E+00 0.  1.
         11    1    4    4    0    0  0.61970645586E+01  0.13429277720E+02 -0.34457113834E+01  0.15186244974E+02  0.51100000000E-03 0. -1.
        -11    1    4    4    0    0  0.27449852018E+02 -0.76481067600E+00 -0.64263214303E+01  0.28202427530E+02  0.51100000000E-03 0.  1.
         12    1    4    4    0    0 -0.55155058369E+01  0.94251324847E+01  0.11287651212E+01  0.10978526208E+02  0.00000000000E+00 0. -1.
</event>
<event>
 8    1  0.1244838E-006  0.9118800E+02  0.7816164E-02  0.1184000E+00
        -11   -1    0    0    0    0  0.00000000000E+00  0.00000000000E+00  0.45593999997E+02  0.45594000000E+02  0.51100000000E-03 0.  1.
         11   -1    0    0    0    0 -0.00000000000E+00 -0.00000000000E+00 -0.45593999997E+02  0.45594000000E+02  0.51100000000E-03 0. -1.
         23    2    1    2    0    0  0.00000000000E+00  0.00000000000E+00 -0.35527136788E-14  0.91188000000E+02  0.91188000000E+02 0.  0.
    9900012    2    3    3    0    0 -0.23463961107E+02  0.17061993966E+02 -0.22673964553E+02  0.54367112212E+02  0.40000063909E+02 0.  0.
        -12    1    3    3    0    0  0.23463961107E+02 -0.17061993966E+02  0.22673964553E+02  0.36820887788E+02  0.00000000000E+00 0.  1.
         11    1    4    4    0    0 -0.91676626664E+01  0.78188622971E+01 -0.43048201192E+01  0.12795003826E+02  0.51100000000E-03 0. -1.
        -11    1    4    4    0    0  0.83608795734E+01  0.63947124702E+01 -0.15242130144E+02  0.18523476629E+02  0.51100000000E-03 0.  1.
        -12    1    4    4    0    0 -0.22657178014E+02  0.28484191988E+01 -0.31270142894E+01  0.23048631757E+02  0.00000000000E+00 0.  1.
</event>
<event>
 8    1  0.1244838E-006  0.9118800E+02  0.7816164E-02  0.1184000E+00
        -11   -1    0    0    0    0  0.00000000000E+00  0.00000000000E+00  0.45593999997E+02  0.45594000000E+02  0.51100000000E-03 0. -1.
         11   -1    0    0    0    0 -0.00000000000E+00 -0.00000000000E+00 -0.45593999997E+02  0.45594000000E+02  0.51100000000E-03 0.  1.
         23    2    1    2    0    0  0.00000000000E+00  0.17763568394E-14  0.00000000000E+00  0.91188000000E+02  0.91188000000E+02 0.  0.
    9900012    2    3    3    0    0 -0.25166269971E+02  0.95011482266E+01  0.25142931237E+02  0.54367082669E+02  0.39999996561E+02 0.  0.
        -12    1    3    3    0    0  0.25166269971E+02 -0.95011482266E+01 -0.25142931237E+02  0.36820917331E+02  0.00000000000E+00 0.  1.
         11    1    4    4    0    0 -0.81281569712E+01 -0.75235723447E+01 -0.59248448464E+01  0.12560846440E+02  0.51100000000E-03 0.  1.
        -11    1    4    4    0    0 -0.10798650236E+01  0.85638610982E+01  0.46517769814E+01  0.98053482714E+01  0.51100000000E-03 0. -1.
         12    1    4    4    0    0 -0.15958247977E+02  0.84608594732E+01  0.26415999102E+02  0.32000887958E+02  0.00000000000E+00 0. -1.
</event>
<event>
 8    1  0.1244838E-006  0.9118800E+02  0.7816164E-02  0.1184000E+00
        -11   -1    0    0    0    0  0.00000000000E+00  0.00000000000E+00  0.45593999997E+02  0.45594000000E+02  0.51100000000E-03 0.  1.
         11   -1    0    0    0    0 -0.00000000000E+00 -0.00000000000E+00 -0.45593999997E+02  0.45594000000E+02  0.51100000000E-03 0. -1.
         23    2    1    2    0    0  0.00000000000E+00 -0.35527136788E-14  0.00000000000E+00  0.91188000000E+02  0.91188000000E+02 0.  0.
    9900012    2    3    3    0    0 -0.34189359840E+02 -0.85113494654E+01  0.10697056190E+02  0.54367049345E+02  0.39999920592E+02 0.  0.
         12    1    3    3    0    0  0.34189359840E+02  0.85113494654E+01 -0.10697056190E+02  0.36820950655E+02  0.00000000000E+00 0. -1.
         11    1    4    4    0    0  0.13501501433E+01  0.32708348890E+01  0.37623374471E+01  0.51649249373E+01  0.51100000000E-03 0. -1.
        -11    1    4    4    0    0 -0.27664148291E+02 -0.20660302859E+02  0.11638330573E+02  0.36436299945E+02  0.51100000000E-03 0.  1.
         12    1    4    4    0    0 -0.78753616927E+01  0.88781185047E+01 -0.47036118297E+01  0.12765824463E+02  0.00000000000E+00 0. -1.
</event>
<event>
 8    1  0.1244838E-006  0.9118800E+02  0.7816164E-02  0.1184000E+00
        -11   -1    0    0    0    0  0.00000000000E+00  0.00000000000E+00  0.45593999997E+02  0.45594000000E+02  0.51100000000E-03 0. -1.
         11   -1    0    0    0    0 -0.00000000000E+00 -0.00000000000E+00 -0.45593999997E+02  0.45594000000E+02  0.51100000000E-03 0.  1.
         23    2    1    2    0    0  0.00000000000E+00  0.17763568394E-14  0.22204460493E-15  0.91188000000E+02  0.91188000000E+02 0.  0.
    9900012    2    3    3    0    0  0.36485235512E+02  0.49176435823E+01  0.65121281653E+00  0.54367086012E+02  0.40000004182E+02 0.  0.
         12    1    3    3    0    0 -0.36485235512E+02 -0.49176435823E+01 -0.65121281653E+00  0.36820913988E+02  0.00000000000E+00 0. -1.
         11    1    4    4    0    0  0.33945080141E+02 -0.91463841310E+01  0.55736890608E+01  0.35594814488E+02  0.51100000000E-03 0. -1.
        -11    1    4    4    0    0  0.44478173996E+01  0.12883448878E+02 -0.73348737989E+01  0.15477942645E+02  0.51100000000E-03 0.  1.
         12    1    4    4    0    0 -0.19076620285E+01  0.11805788355E+01  0.24123975546E+01  0.32943288791E+01  0.00000000000E+00 0. -1.
</event>
<event>
 8    1  0.1244838E-006  0.9118800E+02  0.7816164E-02  0.1184000E+00
        -11   -1    0    0    0    0  0.00000000000E+00  0.00000000000E+00  0.45593999997E+02  0.45594000000E+02  0.51100000000E-03 0. -1.
         11   -1    0    0    0    0 -0.00000000000E+00 -0.00000000000E+00 -0.45593999997E+02  0.45594000000E+02  0.51100000000E-03 0.  1.
         23    2    1    2    0    0  0.44408920985E-15  0.00000000000E+00  0.00000000000E+00  0.91188000000E+02  0.91188000000E+02 0.  0.
    9900012    2    3    3    0    0 -0.37466757887E+01 -0.33148438063E+02 -0.15586005153E+02  0.54367080917E+02  0.39999992566E+02 0.  0.
         12    1    3    3    0    0  0.37466757887E+01  0.33148438063E+02  0.15586005153E+02  0.36820919083E+02  0.00000000000E+00 0. -1.
         11    1    4    4    0    0 -0.21506877502E+01 -0.25207429868E+02  0.22346568995E+01  0.25397513068E+02  0.51100000000E-03 0. -1.
        -11    1    4    4    0    0 -0.83817405976E+01 -0.11440335243E+02 -0.15456320941E+02  0.20976956481E+02  0.51100000000E-03 0.  1.
         12    1    4    4    0    0  0.67857525591E+01  0.34993270470E+01 -0.23643411115E+01  0.79926113672E+01  0.00000000000E+00 0. -1.
</event>
<event>
 8    1  0.1244838E-006  0.9118800E+02  0.7816164E-02  0.1184000E+00
        -11   -1    0    0    0    0  0.00000000000E+00  0.00000000000E+00  0.45593999997E+02  0.45594000000E+02  0.51100000000E-03 0. -1.
         11   -1    0    0    0    0 -0.00000000000E+00 -0.00000000000E+00 -0.45593999997E+02  0.45594000000E+02  0.51100000000E-03 0.  1.
         23    2    1    2    0    0  0.88817841970E-15 -0.35527136788E-14  0.71054273576E-14  0.91188000000E+02  0.91188000000E+02 0.  0.
    9900012    2    3    3    0    0  0.62507856718E+01 -0.17430844003E+02  0.31825688604E+02  0.54367067105E+02  0.39999961078E+02 0.  0.
        -12    1    3    3    0    0 -0.62507856718E+01  0.17430844003E+02 -0.31825688604E+02  0.36820932895E+02  0.00000000000E+00 0.  1.
         11    1    4    4    0    0  0.11099620010E+01  0.25761200706E+01 -0.45666797269E+01  0.53593818907E+01  0.51100000000E-03 0. -1.
        -11    1    4    4    0    0  0.83043051058E+01 -0.16259324341E+01  0.40194576758E+00  0.84715228992E+01  0.51100000000E-03 0.  1.
         12    1    4    4    0    0 -0.31634814350E+01 -0.18381031640E+02  0.35990422563E+02  0.40536162315E+02  0.00000000000E+00 0. -1.
</event>
<event>
 8    1  0.1244838E-006  0.9118800E+02  0.7816164E-02  0.1184000E+00
        -11   -1    0    0    0    0  0.00000000000E+00  0.00000000000E+00  0.45593999997E+02  0.45594000000E+02  0.51100000000E-03 0. -1.
         11   -1    0    0    0    0 -0.00000000000E+00 -0.00000000000E+00 -0.45593999997E+02  0.45594000000E+02  0.51100000000E-03 0.  1.
         23    2    1    2    0    0  0.35527136788E-14  0.00000000000E+00  0.00000000000E+00  0.91188000000E+02  0.91188000000E+02 0.  0.
    9900012    2    3    3    0    0  0.17707684409E+02  0.32003344326E+02 -0.42427260446E+01  0.54367124678E+02  0.40000092329E+02 0.  0.
        -12    1    3    3    0    0 -0.17707684409E+02 -0.32003344326E+02  0.42427260446E+01  0.36820875322E+02  0.00000000000E+00 0.  1.
         11    1    4    4    0    0 -0.10605547044E+02  0.17455160711E+02  0.11466510026E+01  0.20456663275E+02  0.51100000000E-03 0. -1.
        -11    1    4    4    0    0  0.98641670231E+00  0.38911875742E+01 -0.16562671900E+01  0.43425315099E+01  0.51100000000E-03 0.  1.
         12    1    4    4    0    0  0.27326814750E+02  0.10656996041E+02 -0.37331098573E+01  0.29567929894E+02  0.00000000000E+00 0. -1.
</event>
<event>
 8    1  0.1244838E-006  0.9118800E+02  0.7816164E-02  0.1184000E+00
        -11   -1    0    0    0    0  0.00000000000E+00  0.00000000000E+00  0.45593999997E+02  0.45594000000E+02  0.51100000000E-03 0. -1.
         11   -1    0    0    0    0 -0.00000000000E+00 -0.00000000000E+00 -0.45593999997E+02  0.45594000000E+02  0.51100000000E-03 0.  1.
         23    2    1    2    0    0 -0.17763568394E-14  0.35527136788E-14  0.00000000000E+00  0.91188000000E+02  0.91188000000E+02 0.  0.
    9900012    2    3    3    0    0  0.12862519300E+02 -0.29841605228E+02  0.17315183363E+02  0.54367063290E+02  0.39999952381E+02 0.  0.
        -12    1    3    3    0    0 -0.12862519300E+02  0.29841605228E+02 -0.17315183363E+02  0.36820936710E+02  0.00000000000E+00 0.  1.
         11    1    4    4    0    0 -0.62848835710E+01 -0.97359459825E+01  0.14189136225E+02  0.18319934299E+02  0.51100000000E-03 0. -1.
        -11    1    4    4    0    0  0.22472894344E+02 -0.15123082990E+02  0.80871930624E+01  0.28269087555E+02  0.51100000000E-03 0.  1.
         12    1    4    4    0    0 -0.33254914730E+01 -0.49825762558E+01 -0.49611459239E+01  0.77780414347E+01  0.00000000000E+00 0. -1.
</event>
<event>
 8    1  0.1244838E-006  0.9118800E+02  0.7816164E-02  0.1184000E+00
        -11   -1    0    0    0    0  0.00000000000E+00  0.00000000000E+00  0.45593999997E+02  0.45594000000E+02  0.51100000000E-03 0. -1.
         11   -1    0    0    0    0 -0.00000000000E+00 -0.00000000000E+00 -0.45593999997E+02  0.45594000000E+02  0.51100000000E-03 0.  1.
         23    2    1    2    0    0 -0.35527136788E-14  0.17763568394E-14  0.35527136788E-14  0.91188000000E+02  0.91188000000E+02 0.  0.
    9900012    2    3    3    0    0  0.20477927486E+02 -0.62864421195E+01 -0.29948515272E+02  0.54367103275E+02  0.40000043536E+02 0.  0.
         12    1    3    3    0    0 -0.20477927486E+02  0.62864421195E+01  0.29948515272E+02  0.36820896725E+02  0.00000000000E+00 0. -1.
         11    1    4    4    0    0  0.24260964905E+02 -0.43297138401E+01 -0.11309149833E+01  0.24670221098E+02  0.51100000000E-03 0. -1.
        -11    1    4    4    0    0  0.24522833135E-01 -0.28193452990E+01 -0.17480298075E+02  0.17706217279E+02  0.51100000000E-03 0.  1.
         12    1    4    4    0    0 -0.38075602526E+01  0.86261701965E+00 -0.11337302213E+02  0.11990664897E+02  0.00000000000E+00 0. -1.
</event>
<event>
 8    1  0.1244838E-006  0.9118800E+02  0.7816164E-02  0.1184000E+00
        -11   -1    0    0    0    0  0.00000000000E+00  0.00000000000E+00  0.45593999997E+02  0.45594000000E+02  0.51100000000E-03 0. -1.
         11   -1    0    0    0    0 -0.00000000000E+00 -0.00000000000E+00 -0.45593999997E+02  0.45594000000E+02  0.51100000000E-03 0.  1.
         23    2    1    2    0    0  0.44408920985E-15 -0.71054273576E-14  0.35527136788E-14  0.91188000000E+02  0.91188000000E+02 0.  0.
    9900012    2    3    3    0    0  0.22538446925E+01 -0.32838517049E+02  0.16502478196E+02  0.54367084687E+02  0.40000001162E+02 0.  0.
        -12    1    3    3    0    0 -0.22538446925E+01  0.32838517049E+02 -0.16502478196E+02  0.36820915313E+02  0.00000000000E+00 0.  1.
         11    1    4    4    0    0 -0.58474608760E+01  0.80788156745E+00 -0.10407775736E+01  0.59940545161E+01  0.51100000000E-03 0. -1.
        -11    1    4    4    0    0  0.14820761628E+02 -0.22723357462E+02  0.61607249648E+00  0.27136423772E+02  0.51100000000E-03 0.  1.
         12    1    4    4    0    0 -0.67194560595E+01 -0.10923041154E+02  0.16927183273E+02  0.21236606399E+02  0.00000000000E+00 0. -1.
</event>
<event>
 8    1  0.1244838E-006  0.9118800E+02  0.7816164E-02  0.1184000E+00
        -11   -1    0    0    0    0  0.00000000000E+00  0.00000000000E+00  0.45593999997E+02  0.45594000000E+02  0.51100000000E-03 0.  1.
         11   -1    0    0    0    0 -0.00000000000E+00 -0.00000000000E+00 -0.45593999997E+02  0.45594000000E+02  0.51100000000E-03 0. -1.
         23    2    1    2    0    0  0.00000000000E+00  0.71054273576E-14  0.55511151231E-15  0.91188000000E+02  0.91188000000E+02 0.  0.
    9900012    2    3    3    0    0  0.20880669465E+01 -0.36748803234E+02  0.97229137232E+00  0.54367083211E+02  0.39999997796E+02 0.  0.
        -12    1    3    3    0    0 -0.20880669465E+01  0.36748803234E+02 -0.97229137232E+00  0.36820916789E+02  0.00000000000E+00 0.  1.
         11    1    4    4    0    0  0.12555844086E+02 -0.15688040939E+02 -0.62196946667E+01  0.21034458662E+02  0.51100000000E-03 0. -1.
        -11    1    4    4    0    0  0.43905167701E+01 -0.12973971035E+02 -0.23707687433E+01  0.13900399513E+02  0.51100000000E-03 0.  1.
        -12    1    4    4    0    0 -0.14858293910E+02 -0.80867912595E+01  0.95627547823E+01  0.19432225035E+02  0.00000000000E+00 0.  1.
</event>
<event>
 8    1  0.1244838E-006  0.9118800E+02  0.7816164E-02  0.1184000E+00
        -11   -1    0    0    0    0  0.00000000000E+00  0.00000000000E+00  0.45593999997E+02  0.45594000000E+02  0.51100000000E-03 0.  1.
         11   -1    0    0    0    0 -0.00000000000E+00 -0.00000000000E+00 -0.45593999997E+02  0.45594000000E+02  0.51100000000E-03 0. -1.
         23    2    1    2    0    0 -0.71054273576E-14 -0.88817841970E-15 -0.88817841970E-15  0.91188000000E+02  0.91188000000E+02 0.  0.
    9900012    2    3    3    0    0 -0.36589720481E+02  0.22471610585E+01 -0.34528774574E+01  0.54367085557E+02  0.40000003144E+02 0.  0.
        -12    1    3    3    0    0  0.36589720481E+02 -0.22471610585E+01  0.34528774574E+01  0.36820914443E+02  0.00000000000E+00 0.  1.
         11    1    4    4    0    0 -0.52468084408E+01 -0.85391358309E+01 -0.35460844191E+01  0.10631112572E+02  0.51100000000E-03 0. -1.
        -11    1    4    4    0    0 -0.18873913993E+02  0.59401478030E+01  0.14154140697E+02  0.24327960960E+02  0.51100000000E-03 0.  1.
         12    1    4    4    0    0 -0.12468998046E+02  0.48461490863E+01 -0.14060933735E+02  0.19408012025E+02  0.00000000000E+00 0. -1.
</event>
<event>
 8    1  0.1244838E-006  0.9118800E+02  0.7816164E-02  0.1184000E+00
        -11   -1    0    0    0    0  0.00000000000E+00  0.00000000000E+00  0.45593999997E+02  0.45594000000E+02  0.51100000000E-03 0.  1.
         11   -1    0    0    0    0 -0.00000000000E+00 -0.00000000000E+00 -0.45593999997E+02  0.45594000000E+02  0.51100000000E-03 0. -1.
         23    2    1    2    0    0  0.22204460493E-15  0.00000000000E+00  0.35527136788E-14  0.91188000000E+02  0.91188000000E+02 0.  0.
    9900012    2    3    3    0    0 -0.10137061863E+01 -0.24500634681E+02 -0.27467625311E+02  0.54367093707E+02  0.40000021724E+02 0.  0.
        -12    1    3    3    0    0  0.10137061863E+01  0.24500634681E+02  0.27467625311E+02  0.36820906293E+02  0.00000000000E+00 0.  1.
         11    1    4    4    0    0 -0.75130469249E+01  0.30766892060E+01 -0.25569181321E+01  0.85117401959E+01  0.51100000000E-03 0. -1.
        -11    1    4    4    0    0  0.30109026468E+01  0.28515086537E+00 -0.16164159424E+02  0.16444661624E+02  0.51100000000E-03 0.  1.
        -12    1    4    4    0    0  0.34884380918E+01 -0.27862474753E+02 -0.87465477547E+01  0.29410691887E+02  0.00000000000E+00 0.  1.
</event>
<event>
 8    1  0.1244838E-006  0.9118800E+02  0.7816164E-02  0.1184000E+00
        -11   -1    0    0    0    0  0.00000000000E+00  0.00000000000E+00  0.45593999997E+02  0.45594000000E+02  0.51100000000E-03 0.  1.
         11   -1    0    0    0    0 -0.00000000000E+00 -0.00000000000E+00 -0.45593999997E+02  0.45594000000E+02  0.51100000000E-03 0. -1.
         23    2    1    2    0    0 -0.35527136788E-14 -0.17763568394E-14  0.00000000000E+00  0.91188000000E+02  0.91188000000E+02 0.  0.
    9900012    2    3    3    0    0 -0.28203350350E+02 -0.11853165507E+02  0.20490290368E+02  0.54367102362E+02  0.40000041455E+02 0.  0.
        -12    1    3    3    0    0  0.28203350350E+02  0.11853165507E+02 -0.20490290368E+02  0.36820897638E+02  0.00000000000E+00 0.  1.
         11    1    4    4    0    0 -0.91355545498E+01  0.16913074685E+01  0.94444240333E+01  0.13248246052E+02  0.51100000000E-03 0. -1.
        -11    1    4    4    0    0 -0.10893701459E+02  0.96129761468E+01  0.73583185446E+01  0.16285788097E+02  0.51100000000E-03 0.  1.
         12    1    4    4    0    0 -0.81740943412E+01 -0.23157449122E+02  0.36875477899E+01  0.24833068213E+02  0.00000000000E+00 0. -1.
</event>
<event>
 8    1  0.1244838E-006  0.9118800E+02  0.7816164E-02  0.1184000E+00
        -11   -1    0    0    0    0  0.00000000000E+00  0.00000000000E+00  0.45593999997E+02  0.45594000000E+02  0.51100000000E-03 0.  1.
         11   -1    0    0    0    0 -0.00000000000E+00 -0.00000000000E+00 -0.45593999997E+02  0.45594000000E+02  0.51100000000E-03 0. -1.
         23    2    1    2    0    0  0.35527136788E-14  0.00000000000E+00  0.44408920985E-15  0.91188000000E+02  0.91188000000E+02 0.  0.
    9900012    2    3    3    0    0  0.28397177510E+02  0.23289586912E+02 -0.26412539366E+01  0.54367071557E+02  0.39999971229E+02 0.  0.
        -12    1    3    3    0    0 -0.28397177510E+02 -0.23289586912E+02  0.26412539366E+01  0.36820928443E+02  0.00000000000E+00 0.  1.
         11    1    4    4    0    0  0.10726216506E+02  0.15701455901E+02 -0.70546622113E+01  0.20281905658E+02  0.51100000000E-03 0. -1.
        -11    1    4    4    0    0 -0.54725175651E+01  0.55264177503E+01  0.73057647950E+01  0.10670704810E+02  0.51100000000E-03 0.  1.
         12    1    4    4    0    0  0.23143478569E+02  0.20617132606E+01 -0.28923565204E+01  0.23414461089E+02  0.00000000000E+00 0. -1.
</event>
<event>
 8    1  0.1244838E-006  0.9118800E+02  0.7816164E-02  0.1184000E+00
        -11   -1    0    0    0    0  0.00000000000E+00  0.00000000000E+00  0.45593999997E+02  0.45594000000E+02  0.51100000000E-03 0.  1.
         11   -1    0    0    0    0 -0.00000000000E+00 -0.00000000000E+00 -0.45593999997E+02  0.45594000000E+02  0.51100000000E-03 0. -1.
         23    2    1    2    0    0  0.00000000000E+00  0.88817841970E-15  0.35527136788E-14  0.91188000000E+02  0.91188000000E+02 0.  0.
    9900012    2    3    3    0    0 -0.21204423077E+02  0.62014026991E+01 -0.29456643259E+02  0.54367098523E+02  0.40000032703E+02 0.  0.
        -12    1    3    3    0    0  0.21204423077E+02 -0.62014026991E+01  0.29456643259E+02  0.36820901477E+02  0.00000000000E+00 0.  1.
         11    1    4    4    0    0 -0.38636848852E+01  0.28765261149E+01 -0.29137618965E+02  0.29533088267E+02  0.51100000000E-03 0. -1.
        -11    1    4    4    0    0 -0.62586850878E+01  0.24851749114E+01  0.83585777541E+01  0.10733734471E+02  0.51100000000E-03 0.  1.
        -12    1    4    4    0    0 -0.11082053104E+02  0.83970167285E+00 -0.86776020484E+01  0.14100275785E+02  0.00000000000E+00 0.  1.
</event>
<event>
 8    1  0.1244838E-006  0.9118800E+02  0.7816164E-02  0.1184000E+00
        -11   -1    0    0    0    0  0.00000000000E+00  0.00000000000E+00  0.45593999997E+02  0.45594000000E+02  0.51100000000E-03 0. -1.
         11   -1    0    0    0    0 -0.00000000000E+00 -0.00000000000E+00 -0.45593999997E+02  0.45594000000E+02  0.51100000000E-03 0.  1.
         23    2    1    2    0    0 -0.35527136788E-14  0.88817841970E-15  0.00000000000E+00  0.91188000000E+02  0.91188000000E+02 0.  0.
    9900012    2    3    3    0    0  0.16771994483E+02 -0.41026081920E+01  0.32521501846E+02  0.54367091874E+02  0.40000017544E+02 0.  0.
        -12    1    3    3    0    0 -0.16771994483E+02  0.41026081920E+01 -0.32521501846E+02  0.36820908126E+02  0.00000000000E+00 0.  1.
         11    1    4    4    0    0  0.35527568932E+00  0.49069805868E+01  0.19584534677E+02  0.20193035386E+02  0.51100000000E-03 0. -1.
        -11    1    4    4    0    0  0.22744518130E+01  0.83885639157E+01  0.93156534236E+00  0.87412213029E+01  0.51100000000E-03 0.  1.
        -12    1    4    4    0    0  0.14142266981E+02 -0.17398152695E+02  0.12005401827E+02  0.25432835185E+02  0.00000000000E+00 0.  1.
</event>
<event>
 8    1  0.1244838E-006  0.9118800E+02  0.7816164E-02  0.1184000E+00
        -11   -1    0    0    0    0  0.00000000000E+00  0.00000000000E+00  0.45593999997E+02  0.45594000000E+02  0.51100000000E-03 0. -1.
         11   -1    0    0    0    0 -0.00000000000E+00 -0.00000000000E+00 -0.45593999997E+02  0.45594000000E+02  0.51100000000E-03 0.  1.
         23    2    1    2    0    0  0.00000000000E+00  0.00000000000E+00  0.00000000000E+00  0.91188000000E+02  0.91188000000E+02 0.  0.
    9900012    2    3    3    0    0  0.16891907165E+01  0.30076905203E+02  0.21173115908E+02  0.54367157680E+02  0.40000167563E+02 0.  0.
        -12    1    3    3    0    0 -0.16891907165E+01 -0.30076905203E+02 -0.21173115908E+02  0.36820842320E+02  0.00000000000E+00 0.  1.
         11    1    4    4    0    0  0.24347489890E+01  0.11677771257E+02  0.21698790080E+02  0.24761579824E+02  0.51100000000E-03 0. -1.
        -11    1    4    4    0    0 -0.15839129845E+01 -0.49195205034E+01 -0.32626263928E+01  0.61118895250E+01  0.51100000000E-03 0.  1.
        -12    1    4    4    0    0  0.83835471197E+00  0.23318654449E+02  0.27369522211E+01  0.23493688331E+02  0.00000000000E+00 0.  1.
</event>
<event>
 8    1  0.1244838E-006  0.9118800E+02  0.7816164E-02  0.1184000E+00
        -11   -1    0    0    0    0  0.00000000000E+00  0.00000000000E+00  0.45593999997E+02  0.45594000000E+02  0.51100000000E-03 0. -1.
         11   -1    0    0    0    0 -0.00000000000E+00 -0.00000000000E+00 -0.45593999997E+02  0.45594000000E+02  0.51100000000E-03 0.  1.
         23    2    1    2    0    0  0.00000000000E+00  0.00000000000E+00 -0.35527136788E-14  0.91188000000E+02  0.91188000000E+02 0.  0.
    9900012    2    3    3    0    0 -0.22129800257E+02  0.18405188474E+02  0.22963072497E+02  0.54367058667E+02  0.39999941842E+02 0.  0.
        -12    1    3    3    0    0  0.22129800257E+02 -0.18405188474E+02 -0.22963072497E+02  0.36820941333E+02  0.00000000000E+00 0.  1.
         11    1    4    4    0    0  0.21660685514E+00  0.19910656293E+00  0.20567160247E+02  0.20569264519E+02  0.51100000000E-03 0. -1.
        -11    1    4    4    0    0 -0.91974341244E+01 -0.16542107120E+01  0.34354950455E+01  0.99564970758E+01  0.51100000000E-03 0.  1.
        -12    1    4    4    0    0 -0.13148972988E+02  0.19860292623E+02 -0.10395827951E+01  0.23841297072E+02  0.00000000000E+00 0.  1.
</event>
<event>
 8    1  0.1244838E-006  0.9118800E+02  0.7816164E-02  0.1184000E+00
        -11   -1    0    0    0    0  0.00000000000E+00  0.00000000000E+00  0.45593999997E+02  0.45594000000E+02  0.51100000000E-03 0.  1.
         11   -1    0    0    0    0 -0.00000000000E+00 -0.00000000000E+00 -0.45593999997E+02  0.45594000000E+02  0.51100000000E-03 0. -1.
         23    2    1    2    0    0 -0.35527136788E-14  0.00000000000E+00 -0.66613381478E-15  0.91188000000E+02  0.91188000000E+02 0.  0.
    9900012    2    3    3    0    0 -0.28787944051E+02 -0.22882527897E+02 -0.18504405893E+01  0.54367082901E+02  0.39999997090E+02 0.  0.
         12    1    3    3    0    0  0.28787944051E+02  0.22882527897E+02  0.18504405893E+01  0.36820917099E+02  0.00000000000E+00 0. -1.
         11    1    4    4    0    0 -0.45319397192E+01 -0.18151959704E+02  0.57330118160E+01  0.19567819078E+02  0.51100000000E-03 0. -1.
        -11    1    4    4    0    0 -0.24877006335E+02 -0.84247954921E+01  0.84718044380E-01  0.26264991922E+02  0.51100000000E-03 0.  1.
         12    1    4    4    0    0  0.62100200337E+00  0.36942272995E+01 -0.76681704496E+01  0.85342719006E+01  0.00000000000E+00 0. -1.
</event>
<event>
 8    1  0.1244838E-006  0.9118800E+02  0.7816164E-02  0.1184000E+00
        -11   -1    0    0    0    0  0.00000000000E+00  0.00000000000E+00  0.45593999997E+02  0.45594000000E+02  0.51100000000E-03 0.  1.
         11   -1    0    0    0    0 -0.00000000000E+00 -0.00000000000E+00 -0.45593999997E+02  0.45594000000E+02  0.51100000000E-03 0. -1.
         23    2    1    2    0    0  0.00000000000E+00  0.17763568394E-14 -0.35527136788E-14  0.91188000000E+02  0.91188000000E+02 0.  0.
    9900012    2    3    3    0    0  0.25179043943E+02 -0.11685990635E+02  0.24191614961E+02  0.54367070280E+02  0.39999968318E+02 0.  0.
         12    1    3    3    0    0 -0.25179043943E+02  0.11685990635E+02 -0.24191614961E+02  0.36820929720E+02  0.00000000000E+00 0. -1.
         11    1    4    4    0    0  0.82186472565E+01 -0.13716699510E+02 -0.53115310858E+01  0.16849521385E+02  0.51100000000E-03 0. -1.
        -11    1    4    4    0    0  0.12652887550E+01  0.66706482834E+01  0.79533033483E+01  0.10457224229E+02  0.51100000000E-03 0.  1.
         12    1    4    4    0    0  0.15695107931E+02 -0.46399394080E+01  0.21549842699E+02  0.27060324666E+02  0.00000000000E+00 0. -1.
</event>
<event>
 8    1  0.1244838E-006  0.9118800E+02  0.7816164E-02  0.1184000E+00
        -11   -1    0    0    0    0  0.00000000000E+00  0.00000000000E+00  0.45593999997E+02  0.45594000000E+02  0.51100000000E-03 0. -1.
         11   -1    0    0    0    0 -0.00000000000E+00 -0.00000000000E+00 -0.45593999997E+02  0.45594000000E+02  0.51100000000E-03 0.  1.
         23    2    1    2    0    0  0.00000000000E+00  0.00000000000E+00 -0.71054273576E-14  0.91188000000E+02  0.91188000000E+02 0.  0.
    9900012    2    3    3    0    0 -0.17495150597E+02 -0.22880781126E+02 -0.22938381634E+02  0.54367084866E+02  0.40000001569E+02 0.  0.
         12    1    3    3    0    0  0.17495150597E+02  0.22880781126E+02  0.22938381634E+02  0.36820915134E+02  0.00000000000E+00 0. -1.
         11    1    4    4    0    0 -0.23259811073E+01 -0.22731496282E+01  0.16763159442E+01  0.36588840853E+01  0.51100000000E-03 0. -1.
        -11    1    4    4    0    0 -0.18608564454E+02 -0.24396258306E+02 -0.58210948985E+01  0.31230453670E+02  0.51100000000E-03 0.  1.
         12    1    4    4    0    0  0.34393949644E+01  0.37886268088E+01 -0.18793602680E+02  0.19477747111E+02  0.00000000000E+00 0. -1.
</event>
<event>
 8    1  0.1244838E-006  0.9118800E+02  0.7816164E-02  0.1184000E+00
        -11   -1    0    0    0    0  0.00000000000E+00  0.00000000000E+00  0.45593999997E+02  0.45594000000E+02  0.51100000000E-03 0. -1.
         11   -1    0    0    0    0 -0.00000000000E+00 -0.00000000000E+00 -0.45593999997E+02  0.45594000000E+02  0.51100000000E-03 0.  1.
         23    2    1    2    0    0 -0.14210854715E-13  0.44408920985E-15 -0.44408920985E-15  0.91188000000E+02  0.91188000000E+02 0.  0.
    9900012    2    3    3    0    0 -0.36595636422E+02 -0.22465976610E+01 -0.33876997171E+01  0.54367295015E+02  0.40000480643E+02 0.  0.
        -12    1    3    3    0    0  0.36595636422E+02  0.22465976610E+01  0.33876997171E+01  0.36820704985E+02  0.00000000000E+00 0.  1.
         11    1    4    4    0    0 -0.11497693699E+02  0.10221329064E+02 -0.10910894670E+02  0.18860544822E+02  0.51100000000E-03 0. -1.
        -11    1    4    4    0    0  0.34690245311E+01 -0.30534554602E+01  0.91760474377E+00  0.47116579006E+01  0.51100000000E-03 0.  1.
        -12    1    4    4    0    0 -0.28566967254E+02 -0.94144712642E+01  0.66055902094E+01  0.30795092292E+02  0.00000000000E+00 0.  1.
</event>
<event>
 8    1  0.1244838E-006  0.9118800E+02  0.7816164E-02  0.1184000E+00
        -11   -1    0    0    0    0  0.00000000000E+00  0.00000000000E+00  0.45593999997E+02  0.45594000000E+02  0.51100000000E-03 0. -1.
         11   -1    0    0    0    0 -0.00000000000E+00 -0.00000000000E+00 -0.45593999997E+02  0.45594000000E+02  0.51100000000E-03 0.  1.
         23    2    1    2    0    0  0.00000000000E+00  0.00000000000E+00  0.00000000000E+00  0.91188000000E+02  0.91188000000E+02 0.  0.
    9900012    2    3    3    0    0 -0.69820988121E+01  0.18260044020E+02  0.31202565683E+02  0.54367095386E+02  0.40000025550E+02 0.  0.
        -12    1    3    3    0    0  0.69820988121E+01 -0.18260044020E+02 -0.31202565683E+02  0.36820904614E+02  0.00000000000E+00 0.  1.
         11    1    4    4    0    0 -0.10084979207E+02  0.28396882936E+02  0.29338121629E+02  0.42057284114E+02  0.51100000000E-03 0. -1.
        -11    1    4    4    0    0 -0.17746058152E+01 -0.24649349508E+01  0.89930583040E+00  0.31676302418E+01  0.51100000000E-03 0.  1.
         12    1    4    4    0    0  0.48774862104E+01 -0.76719039653E+01  0.96513822365E+00  0.91421810295E+01  0.00000000000E+00 0. -1.
</event>
<event>
 8    1  0.1244838E-006  0.9118800E+02  0.7816164E-02  0.1184000E+00
        -11   -1    0    0    0    0  0.00000000000E+00  0.00000000000E+00  0.45593999997E+02  0.45594000000E+02  0.51100000000E-03 0.  1.
         11   -1    0    0    0    0 -0.00000000000E+00 -0.00000000000E+00 -0.45593999997E+02  0.45594000000E+02  0.51100000000E-03 0. -1.
         23    2    1    2    0    0  0.44408920985E-15  0.35527136788E-14  0.35527136788E-14  0.91188000000E+02  0.91188000000E+02 0.  0.
    9900012    2    3    3    0    0  0.23809285916E+01 -0.25372373805E+02 -0.26577299615E+02  0.54367095227E+02  0.40000025189E+02 0.  0.
        -12    1    3    3    0    0 -0.23809285916E+01  0.25372373805E+02  0.26577299615E+02  0.36820904773E+02  0.00000000000E+00 0.  1.
         11    1    4    4    0    0 -0.11807075409E+02 -0.55617764506E+01 -0.28463239138E+01  0.13358216463E+02  0.51100000000E-03 0. -1.
        -11    1    4    4    0    0  0.97074871825E+01  0.50910395538E+00 -0.37448463885E+00  0.97280385095E+01  0.51100000000E-03 0.  1.
         12    1    4    4    0    0  0.44805168175E+01 -0.20319701310E+02 -0.23356491063E+02  0.31280840255E+02  0.00000000000E+00 0. -1.
</event>
<event>
 8    1  0.1244838E-006  0.9118800E+02  0.7816164E-02  0.1184000E+00
        -11   -1    0    0    0    0  0.00000000000E+00  0.00000000000E+00  0.45593999997E+02  0.45594000000E+02  0.51100000000E-03 0.  1.
         11   -1    0    0    0    0 -0.00000000000E+00 -0.00000000000E+00 -0.45593999997E+02  0.45594000000E+02  0.51100000000E-03 0. -1.
         23    2    1    2    0    0 -0.35527136788E-14  0.00000000000E+00  0.00000000000E+00  0.91188000000E+02  0.91188000000E+02 0.  0.
    9900012    2    3    3    0    0 -0.15937666837E+02 -0.32059529901E+02 -0.85997460173E+01  0.54367104937E+02  0.40000047325E+02 0.  0.
        -12    1    3    3    0    0  0.15937666837E+02  0.32059529901E+02  0.85997460173E+01  0.36820895063E+02  0.00000000000E+00 0.  1.
         11    1    4    4    0    0  0.47346304376E+00 -0.10337079570E+02 -0.28815241323E+01  0.10741627571E+02  0.51100000000E-03 0. -1.
        -11    1    4    4    0    0  0.32160430210E+01 -0.19356144149E+02 -0.11856028533E+02  0.22925284335E+02  0.51100000000E-03 0.  1.
        -12    1    4    4    0    0 -0.19627172901E+02 -0.23663061826E+01  0.61378066483E+01  0.20700193030E+02  0.00000000000E+00 0.  1.
</event>
<event>
 8    1  0.1244838E-006  0.9118800E+02  0.7816164E-02  0.1184000E+00
        -11   -1    0    0    0    0  0.00000000000E+00  0.00000000000E+00  0.45593999997E+02  0.45594000000E+02  0.51100000000E-03 0. -1.
         11   -1    0    0    0    0 -0.00000000000E+00 -0.00000000000E+00 -0.45593999997E+02  0.45594000000E+02  0.51100000000E-03 0.  1.
         23    2    1    2    0    0  0.00000000000E+00  0.00000000000E+00  0.00000000000E+00  0.91188000000E+02  0.91188000000E+02 0.  0.
    9900012    2    3    3    0    0 -0.21142187022E+02  0.21244463287E+02  0.21388322932E+02  0.54367086782E+02  0.40000005936E+02 0.  0.
        -12    1    3    3    0    0  0.21142187022E+02 -0.21244463287E+02 -0.21388322932E+02  0.36820913218E+02  0.00000000000E+00 0.  1.
         11    1    4    4    0    0 -0.16941445814E+02  0.12864544550E+02  0.11199470133E+02  0.24040324962E+02  0.51100000000E-03 0. -1.
        -11    1    4    4    0    0 -0.48456983180E+01  0.16563623605E+02  0.13046665880E+02  0.21634461166E+02  0.51100000000E-03 0.  1.
        -12    1    4    4    0    0  0.64495711059E+00 -0.81837048684E+01 -0.28578130805E+01  0.86923006535E+01  0.00000000000E+00 0.  1.
</event>
<event>
 8    1  0.1244838E-006  0.9118800E+02  0.7816164E-02  0.1184000E+00
        -11   -1    0    0    0    0  0.00000000000E+00  0.00000000000E+00  0.45593999997E+02  0.45594000000E+02  0.51100000000E-03 0. -1.
         11   -1    0    0    0    0 -0.00000000000E+00 -0.00000000000E+00 -0.45593999997E+02  0.45594000000E+02  0.51100000000E-03 0.  1.
         23    2    1    2    0    0  0.00000000000E+00 -0.17763568394E-14  0.00000000000E+00  0.91188000000E+02  0.91188000000E+02 0.  0.
    9900012    2    3    3    0    0 -0.30226897066E+02  0.99952845011E+01 -0.18498872953E+02  0.54367091280E+02  0.40000016190E+02 0.  0.
         12    1    3    3    0    0  0.30226897066E+02 -0.99952845011E+01  0.18498872953E+02  0.36820908720E+02  0.00000000000E+00 0. -1.
         11    1    4    4    0    0 -0.32330640449E+01  0.61186600456E+01 -0.27836891216E+01  0.74591976283E+01  0.51100000000E-03 0. -1.
        -11    1    4    4    0    0 -0.28813219612E+02 -0.58950387068E+01 -0.13523430688E+01  0.29441160606E+02  0.51100000000E-03 0.  1.
        -12    1    4    4    0    0  0.18193865914E+01  0.97716631623E+01 -0.14362840762E+02  0.17466733046E+02  0.00000000000E+00 0.  1.
</event>
<event>
 8    1  0.1244838E-006  0.9118800E+02  0.7816164E-02  0.1184000E+00
        -11   -1    0    0    0    0  0.00000000000E+00  0.00000000000E+00  0.45593999997E+02  0.45594000000E+02  0.51100000000E-03 0. -1.
         11   -1    0    0    0    0 -0.00000000000E+00 -0.00000000000E+00 -0.45593999997E+02  0.45594000000E+02  0.51100000000E-03 0.  1.
         23    2    1    2    0    0  0.71054273576E-14  0.88817841970E-15  0.00000000000E+00  0.91188000000E+02  0.91188000000E+02 0.  0.
    9900012    2    3    3    0    0  0.33448960368E+02  0.53489258411E+01  0.14433861807E+02  0.54367077632E+02  0.39999985078E+02 0.  0.
         12    1    3    3    0    0 -0.33448960368E+02 -0.53489258411E+01 -0.14433861807E+02  0.36820922368E+02  0.00000000000E+00 0. -1.
         11    1    4    4    0    0 -0.16906286269E+01 -0.96349860436E+00  0.40367799027E+01  0.44813108528E+01  0.51100000000E-03 0. -1.
        -11    1    4    4    0    0  0.60229929712E+01 -0.17400726730E+01 -0.11141429227E+02  0.12784198947E+02  0.51100000000E-03 0.  1.
         12    1    4    4    0    0  0.29116596023E+02  0.80524971185E+01  0.21538511132E+02  0.37101567832E+02  0.00000000000E+00 0. -1.
</event>
<event>
 8    1  0.1244838E-006  0.9118800E+02  0.7816164E-02  0.1184000E+00
        -11   -1    0    0    0    0  0.00000000000E+00  0.00000000000E+00  0.45593999997E+02  0.45594000000E+02  0.51100000000E-03 0. -1.
         11   -1    0    0    0    0 -0.00000000000E+00 -0.00000000000E+00 -0.45593999997E+02  0.45594000000E+02  0.51100000000E-03 0.  1.
         23    2    1    2    0    0 -0.88817841970E-15  0.26645352591E-14  0.00000000000E+00  0.91188000000E+02  0.91188000000E+02 0.  0.
    9900012    2    3    3    0    0  0.63151665764E+01  0.55576753356E+01 -0.35847012883E+02  0.54367117112E+02  0.40000075080E+02 0.  0.
         12    1    3    3    0    0 -0.63151665764E+01 -0.55576753356E+01  0.35847012883E+02  0.36820882888E+02  0.00000000000E+00 0. -1.
         11    1    4    4    0    0 -0.85796220444E+00 -0.96021318330E+01 -0.33190425922E+01  0.10195738270E+02  0.51100000000E-03 0. -1.
        -11    1    4    4    0    0 -0.72080321012E+01  0.54183315762E+01 -0.22203431349E+02  0.23964690855E+02  0.51100000000E-03 0.  1.
         12    1    4    4    0    0  0.14381160882E+02  0.97414755924E+01 -0.10324538941E+02  0.20206687987E+02  0.00000000000E+00 0. -1.
</event>
<event>
 8    1  0.1244838E-006  0.9118800E+02  0.7816164E-02  0.1184000E+00
        -11   -1    0    0    0    0  0.00000000000E+00  0.00000000000E+00  0.45593999997E+02  0.45594000000E+02  0.51100000000E-03 0. -1.
         11   -1    0    0    0    0 -0.00000000000E+00 -0.00000000000E+00 -0.45593999997E+02  0.45594000000E+02  0.51100000000E-03 0.  1.
         23    2    1    2    0    0  0.35527136788E-14  0.00000000000E+00 -0.17763568394E-14  0.91188000000E+02  0.91188000000E+02 0.  0.
    9900012    2    3    3    0    0  0.26460385626E+02  0.23739141658E+02 -0.95958883783E+01  0.54367083011E+02  0.39999997340E+02 0.  0.
         12    1    3    3    0    0 -0.26460385626E+02 -0.23739141658E+02  0.95958883783E+01  0.36820916989E+02  0.00000000000E+00 0. -1.
         11    1    4    4    0    0 -0.31986199570E+01 -0.72881141279E+01  0.45062100864E+01  0.91462400348E+01  0.51100000000E-03 0. -1.
        -11    1    4    4    0    0  0.82649319771E+01  0.97557611711E+01 -0.46544874795E+01  0.13606918482E+02  0.51100000000E-03 0.  1.
         12    1    4    4    0    0  0.21394073606E+02  0.21271494615E+02 -0.94476109852E+01  0.31613924494E+02  0.00000000000E+00 0. -1.
</event>
<event>
 8    1  0.1244838E-006  0.9118800E+02  0.7816164E-02  0.1184000E+00
        -11   -1    0    0    0    0  0.00000000000E+00  0.00000000000E+00  0.45593999997E+02  0.45594000000E+02  0.51100000000E-03 0.  1.
         11   -1    0    0    0    0 -0.00000000000E+00 -0.00000000000E+00 -0.45593999997E+02  0.45594000000E+02  0.51100000000E-03 0. -1.
         23    2    1    2    0    0  0.00000000000E+00  0.44408920985E-15  0.00000000000E+00  0.91188000000E+02  0.91188000000E+02 0.  0.
    9900012    2    3    3    0    0  0.29221315774E+02 -0.31293411806E+01  0.22183348753E+02  0.54367095154E+02  0.40000025022E+02 0.  0.
         12    1    3    3    0    0 -0.29221315774E+02  0.31293411806E+01 -0.22183348753E+02  0.36820904846E+02  0.00000000000E+00 0. -1.
         11    1    4    4    0    0  0.23755117533E+02 -0.40450748383E+01 -0.40780175356E+01  0.24439690398E+02  0.51100000000E-03 0. -1.
        -11    1    4    4    0    0  0.60147572755E+01  0.54414339838E+01  0.91878510778E+01  0.12255738108E+02  0.51100000000E-03 0.  1.
         12    1    4    4    0    0 -0.54855903450E+00 -0.45257003261E+01  0.17073515211E+02  0.17671666648E+02  0.00000000000E+00 0. -1.
</event>
<event>
 8    1  0.1244838E-006  0.9118800E+02  0.7816164E-02  0.1184000E+00
        -11   -1    0    0    0    0  0.00000000000E+00  0.00000000000E+00  0.45593999997E+02  0.45594000000E+02  0.51100000000E-03 0.  1.
         11   -1    0    0    0    0 -0.00000000000E+00 -0.00000000000E+00 -0.45593999997E+02  0.45594000000E+02  0.51100000000E-03 0. -1.
         23    2    1    2    0    0  0.00000000000E+00  0.00000000000E+00  0.71054273576E-14  0.91188000000E+02  0.91188000000E+02 0.  0.
    9900012    2    3    3    0    0  0.10092877522E+02  0.92361150351E+01 -0.34184907662E+02  0.54367083262E+02  0.39999997912E+02 0.  0.
        -12    1    3    3    0    0 -0.10092877522E+02 -0.92361150351E+01  0.34184907662E+02  0.36820916738E+02  0.00000000000E+00 0.  1.
         11    1    4    4    0    0  0.22547450533E+01 -0.10522865200E+02 -0.17574347248E+02  0.20607577459E+02  0.51100000000E-03 0. -1.
        -11    1    4    4    0    0 -0.68237507635E+01  0.49314788977E+01 -0.34328643184E+01  0.90921733535E+01  0.51100000000E-03 0.  1.
        -12    1    4    4    0    0  0.14661883232E+02  0.14827501337E+02 -0.13177696095E+02  0.24667332450E+02  0.00000000000E+00 0.  1.
</event>
<event>
 8    1  0.1244838E-006  0.9118800E+02  0.7816164E-02  0.1184000E+00
        -11   -1    0    0    0    0  0.00000000000E+00  0.00000000000E+00  0.45593999997E+02  0.45594000000E+02  0.51100000000E-03 0. -1.
         11   -1    0    0    0    0 -0.00000000000E+00 -0.00000000000E+00 -0.45593999997E+02  0.45594000000E+02  0.51100000000E-03 0.  1.
         23    2    1    2    0    0  0.17763568394E-14 -0.22204460493E-15  0.00000000000E+00  0.91188000000E+02  0.91188000000E+02 0.  0.
    9900012    2    3    3    0    0 -0.10079129188E+02  0.77240779921E+00  0.35406153544E+02  0.54367066175E+02  0.39999958958E+02 0.  0.
        -12    1    3    3    0    0  0.10079129188E+02 -0.77240779921E+00 -0.35406153544E+02  0.36820933825E+02  0.00000000000E+00 0.  1.
         11    1    4    4    0    0  0.38893457645E+01  0.33984173715E+01  0.19980892959E+01  0.55379249004E+01  0.51100000000E-03 0. -1.
        -11    1    4    4    0    0 -0.23383547007E+02 -0.21704347657E+01  0.14227792757E+02  0.27457806626E+02  0.51100000000E-03 0.  1.
        -12    1    4    4    0    0  0.94150720542E+01 -0.45557480665E+00  0.19180271491E+02  0.21371334648E+02  0.00000000000E+00 0.  1.
</event>
<event>
 8    1  0.1244838E-006  0.9118800E+02  0.7816164E-02  0.1184000E+00
        -11   -1    0    0    0    0  0.00000000000E+00  0.00000000000E+00  0.45593999997E+02  0.45594000000E+02  0.51100000000E-03 0.  1.
         11   -1    0    0    0    0 -0.00000000000E+00 -0.00000000000E+00 -0.45593999997E+02  0.45594000000E+02  0.51100000000E-03 0. -1.
         23    2    1    2    0    0  0.00000000000E+00  0.00000000000E+00 -0.66613381478E-15  0.91188000000E+02  0.91188000000E+02 0.  0.
    9900012    2    3    3    0    0  0.36287503338E+02  0.61654965031E+01 -0.98778646801E+00  0.54367191104E+02  0.40000243759E+02 0.  0.
         12    1    3    3    0    0 -0.36287503338E+02 -0.61654965031E+01  0.98778646801E+00  0.36820808896E+02  0.00000000000E+00 0. -1.
         11    1    4    4    0    0  0.27369754180E+02 -0.60182915583E+01  0.17933375036E+01  0.28080942591E+02  0.51100000000E-03 0. -1.
        -11    1    4    4    0    0  0.60541373738E+01  0.14726893857E+02 -0.95080218886E+01  0.18545524056E+02  0.51100000000E-03 0.  1.
         12    1    4    4    0    0  0.28636117841E+01 -0.25431057952E+01  0.67268979170E+01  0.77407244571E+01  0.00000000000E+00 0. -1.
</event>
<event>
 8    1  0.1244838E-006  0.9118800E+02  0.7816164E-02  0.1184000E+00
        -11   -1    0    0    0    0  0.00000000000E+00  0.00000000000E+00  0.45593999997E+02  0.45594000000E+02  0.51100000000E-03 0.  1.
         11   -1    0    0    0    0 -0.00000000000E+00 -0.00000000000E+00 -0.45593999997E+02  0.45594000000E+02  0.51100000000E-03 0. -1.
         23    2    1    2    0    0  0.00000000000E+00 -0.17763568394E-14  0.00000000000E+00  0.91188000000E+02  0.91188000000E+02 0.  0.
    9900012    2    3    3    0    0  0.32512563875E+02 -0.15804809145E+02  0.69945601002E+01  0.54367045737E+02  0.39999912367E+02 0.  0.
         12    1    3    3    0    0 -0.32512563875E+02  0.15804809145E+02 -0.69945601002E+01  0.36820954263E+02  0.00000000000E+00 0. -1.
         11    1    4    4    0    0  0.16001472789E+02 -0.35042417877E+01 -0.62100629915E+00  0.16392452257E+02  0.51100000000E-03 0. -1.
        -11    1    4    4    0    0  0.18998363010E+02  0.36473186185E+01  0.98013795871E+01  0.21686580464E+02  0.51100000000E-03 0.  1.
        -12    1    4    4    0    0 -0.24872719239E+01 -0.15947885975E+02 -0.21858131878E+01  0.16288013016E+02  0.00000000000E+00 0.  1.
</event>
<event>
 8    1  0.1244838E-006  0.9118800E+02  0.7816164E-02  0.1184000E+00
        -11   -1    0    0    0    0  0.00000000000E+00  0.00000000000E+00  0.45593999997E+02  0.45594000000E+02  0.51100000000E-03 0.  1.
         11   -1    0    0    0    0 -0.00000000000E+00 -0.00000000000E+00 -0.45593999997E+02  0.45594000000E+02  0.51100000000E-03 0. -1.
         23    2    1    2    0    0  0.00000000000E+00 -0.77715611724E-15  0.00000000000E+00  0.91188000000E+02  0.91188000000E+02 0.  0.
    9900012    2    3    3    0    0 -0.32876631408E+02  0.53522174784E+00  0.16571662860E+02  0.54367090655E+02  0.40000014767E+02 0.  0.
         12    1    3    3    0    0  0.32876631408E+02 -0.53522174784E+00 -0.16571662860E+02  0.36820909345E+02  0.00000000000E+00 0. -1.
         11    1    4    4    0    0  0.26608570722E+01 -0.41369510591E+01 -0.16562086627E+01  0.51901398651E+01  0.51100000000E-03 0. -1.
        -11    1    4    4    0    0 -0.11984575933E+02 -0.11001800179E+02  0.15667310764E+01  0.16343938142E+02  0.51100000000E-03 0.  1.
        -12    1    4    4    0    0 -0.23552912547E+02  0.15673972986E+02  0.16661140446E+02  0.32833012648E+02  0.00000000000E+00 0.  1.
</event>
<event>
 8    1  0.1244838E-006  0.9118800E+02  0.7816164E-02  0.1184000E+00
        -11   -1    0    0    0    0  0.00000000000E+00  0.00000000000E+00  0.45593999997E+02  0.45594000000E+02  0.51100000000E-03 0.  1.
         11   -1    0    0    0    0 -0.00000000000E+00 -0.00000000000E+00 -0.45593999997E+02  0.45594000000E+02  0.51100000000E-03 0. -1.
         23    2    1    2    0    0  0.00000000000E+00  0.00000000000E+00  0.00000000000E+00  0.91188000000E+02  0.91188000000E+02 0.  0.
    9900012    2    3    3    0    0  0.24464170979E+02  0.17992378895E+02 -0.20822066517E+02  0.54367084558E+02  0.40000000866E+02 0.  0.
        -12    1    3    3    0    0 -0.24464170979E+02 -0.17992378895E+02  0.20822066517E+02  0.36820915442E+02  0.00000000000E+00 0.  1.
         11    1    4    4    0    0  0.75551514013E+01 -0.56829142925E+01  0.18371858812E+01  0.96307362011E+01  0.51100000000E-03 0. -1.
        -11    1    4    4    0    0 -0.55071357735E+01  0.27001041790E+01  0.68219505547E+00  0.61712638382E+01  0.51100000000E-03 0.  1.
        -12    1    4    4    0    0  0.22416155351E+02  0.20975189009E+02 -0.23341447454E+02  0.38565084518E+02  0.00000000000E+00 0.  1.
</event>
<event>
 8    1  0.1244838E-006  0.9118800E+02  0.7816164E-02  0.1184000E+00
        -11   -1    0    0    0    0  0.00000000000E+00  0.00000000000E+00  0.45593999997E+02  0.45594000000E+02  0.51100000000E-03 0.  1.
         11   -1    0    0    0    0 -0.00000000000E+00 -0.00000000000E+00 -0.45593999997E+02  0.45594000000E+02  0.51100000000E-03 0. -1.
         23    2    1    2    0    0  0.17763568394E-14  0.00000000000E+00  0.00000000000E+00  0.91188000000E+02  0.91188000000E+02 0.  0.
    9900012    2    3    3    0    0 -0.74143846190E+01  0.35381397472E+02 -0.69973779036E+01  0.54367086324E+02  0.40000004894E+02 0.  0.
         12    1    3    3    0    0  0.74143846190E+01 -0.35381397472E+02  0.69973779036E+01  0.36820913676E+02  0.00000000000E+00 0. -1.
         11    1    4    4    0    0  0.88283752303E+01  0.97151012594E+01  0.61475934467E+01  0.14495389168E+02  0.51100000000E-03 0. -1.
        -11    1    4    4    0    0 -0.18810463677E+02  0.11691563938E+02 -0.28610049633E+01  0.22331850813E+02  0.51100000000E-03 0.  1.
        -12    1    4    4    0    0  0.25677038279E+01  0.13974732275E+02 -0.10283966387E+02  0.17539846343E+02  0.00000000000E+00 0.  1.
</event>
<event>
 8    1  0.1244838E-006  0.9118800E+02  0.7816164E-02  0.1184000E+00
        -11   -1    0    0    0    0  0.00000000000E+00  0.00000000000E+00  0.45593999997E+02  0.45594000000E+02  0.51100000000E-03 0. -1.
         11   -1    0    0    0    0 -0.00000000000E+00 -0.00000000000E+00 -0.45593999997E+02  0.45594000000E+02  0.51100000000E-03 0.  1.
         23    2    1    2    0    0 -0.35527136788E-14 -0.86042284408E-15  0.00000000000E+00  0.91188000000E+02  0.91188000000E+02 0.  0.
    9900012    2    3    3    0    0 -0.29612481258E+02  0.13316667728E+00 -0.21882996678E+02  0.54367050485E+02  0.39999923190E+02 0.  0.
         12    1    3    3    0    0  0.29612481258E+02 -0.13316667728E+00  0.21882996678E+02  0.36820949515E+02  0.00000000000E+00 0. -1.
         11    1    4    4    0    0 -0.73964952226E+01  0.61401409681E+01 -0.22200050917E+02  0.24191976639E+02  0.51100000000E-03 0. -1.
        -11    1    4    4    0    0 -0.10666536558E+02 -0.80921356586E+01 -0.81764268612E+01  0.15687944994E+02  0.51100000000E-03 0.  1.
        -12    1    4    4    0    0 -0.11549449477E+02  0.20851613678E+01  0.84934811007E+01  0.14487128852E+02  0.00000000000E+00 0.  1.
</event>
<event>
 8    1  0.1244838E-006  0.9118800E+02  0.7816164E-02  0.1184000E+00
        -11   -1    0    0    0    0  0.00000000000E+00  0.00000000000E+00  0.45593999997E+02  0.45594000000E+02  0.51100000000E-03 0.  1.
         11   -1    0    0    0    0 -0.00000000000E+00 -0.00000000000E+00 -0.45593999997E+02  0.45594000000E+02  0.51100000000E-03 0. -1.
         23    2    1    2    0    0  0.35527136788E-14 -0.44408920985E-15  0.35527136788E-14  0.91188000000E+02  0.91188000000E+02 0.  0.
    9900012    2    3    3    0    0  0.30418997679E+02  0.36939638702E+01 -0.20416168211E+02  0.54367072346E+02  0.39999973028E+02 0.  0.
         12    1    3    3    0    0 -0.30418997679E+02 -0.36939638702E+01  0.20416168211E+02  0.36820927654E+02  0.00000000000E+00 0. -1.
         11    1    4    4    0    0  0.12885084933E+02  0.57460123130E+01 -0.15205477727E+02  0.20742435353E+02  0.51100000000E-03 0. -1.
        -11    1    4    4    0    0  0.43922607902E+01 -0.13292432489E+02 -0.79758012345E+01  0.16111924836E+02  0.51100000000E-03 0.  1.
         12    1    4    4    0    0  0.13141651956E+02  0.11240384046E+02  0.27651107504E+01  0.17512712157E+02  0.00000000000E+00 0. -1.
</event>
<event>
 8    1  0.1244838E-006  0.9118800E+02  0.7816164E-02  0.1184000E+00
        -11   -1    0    0    0    0  0.00000000000E+00  0.00000000000E+00  0.45593999997E+02  0.45594000000E+02  0.51100000000E-03 0.  1.
         11   -1    0    0    0    0 -0.00000000000E+00 -0.00000000000E+00 -0.45593999997E+02  0.45594000000E+02  0.51100000000E-03 0. -1.
         23    2    1    2    0    0  0.88817841970E-15  0.00000000000E+00  0.00000000000E+00  0.91188000000E+02  0.91188000000E+02 0.  0.
    9900012    2    3    3    0    0 -0.61536564295E+01  0.27303291042E+01 -0.36200302364E+02  0.54367026687E+02  0.39999868938E+02 0.  0.
        -12    1    3    3    0    0  0.61536564295E+01 -0.27303291042E+01  0.36200302364E+02  0.36820973313E+02  0.00000000000E+00 0.  1.
         11    1    4    4    0    0 -0.77283229258E+01  0.10338828403E+02 -0.40938994903E+01  0.13541726673E+02  0.51100000000E-03 0. -1.
        -11    1    4    4    0    0  0.39584665481E+01 -0.84458662246E+01 -0.73945372009E+00  0.93567572247E+01  0.51100000000E-03 0.  1.
        -12    1    4    4    0    0 -0.23838000518E+01  0.83736692623E+00 -0.31366949154E+02  0.31468542789E+02  0.00000000000E+00 0.  1.
</event>
<event>
 8    1  0.1244838E-006  0.9118800E+02  0.7816164E-02  0.1184000E+00
        -11   -1    0    0    0    0  0.00000000000E+00  0.00000000000E+00  0.45593999997E+02  0.45594000000E+02  0.51100000000E-03 0.  1.
         11   -1    0    0    0    0 -0.00000000000E+00 -0.00000000000E+00 -0.45593999997E+02  0.45594000000E+02  0.51100000000E-03 0. -1.
         23    2    1    2    0    0  0.00000000000E+00  0.00000000000E+00  0.35527136788E-14  0.91188000000E+02  0.91188000000E+02 0.  0.
    9900012    2    3    3    0    0  0.31883845784E+02  0.18091918532E+02  0.34470777059E+01  0.54367089055E+02  0.40000011118E+02 0.  0.
         12    1    3    3    0    0 -0.31883845784E+02 -0.18091918532E+02 -0.34470777059E+01  0.36820910945E+02  0.00000000000E+00 0. -1.
         11    1    4    4    0    0  0.40305165676E+01  0.66180902808E+01  0.37117159369E+01  0.85919158646E+01  0.51100000000E-03 0. -1.
        -11    1    4    4    0    0  0.10345921056E+02  0.11112040116E+02 -0.16125831017E+02  0.22148542713E+02  0.51100000000E-03 0.  1.
        -12    1    4    4    0    0  0.17507408160E+02  0.36178813506E+00  0.15861192786E+02  0.23626630478E+02  0.00000000000E+00 0.  1.
</event>
<event>
 8    1  0.1244838E-006  0.9118800E+02  0.7816164E-02  0.1184000E+00
        -11   -1    0    0    0    0  0.00000000000E+00  0.00000000000E+00  0.45593999997E+02  0.45594000000E+02  0.51100000000E-03 0.  1.
         11   -1    0    0    0    0 -0.00000000000E+00 -0.00000000000E+00 -0.45593999997E+02  0.45594000000E+02  0.51100000000E-03 0. -1.
         23    2    1    2    0    0  0.17763568394E-14 -0.35527136788E-14  0.35527136788E-14  0.91188000000E+02  0.91188000000E+02 0.  0.
    9900012    2    3    3    0    0 -0.13818694879E+02 -0.22468220842E+02  0.25690511089E+02  0.54367086976E+02  0.40000006378E+02 0.  0.
         12    1    3    3    0    0  0.13818694879E+02  0.22468220842E+02 -0.25690511089E+02  0.36820913024E+02  0.00000000000E+00 0. -1.
         11    1    4    4    0    0  0.12090615577E+01  0.23435941567E+01 -0.65417909650E+00  0.27170229983E+01  0.51100000000E-03 0. -1.
        -11    1    4    4    0    0  0.40835552129E+01  0.65319161962E+01  0.50325806496E+01  0.92015336019E+01  0.51100000000E-03 0.  1.
        -12    1    4    4    0    0 -0.19111311649E+02 -0.31343731195E+02  0.21312109535E+02  0.42448530375E+02  0.00000000000E+00 0.  1.
</event>
<event>
 8    1  0.1244838E-006  0.9118800E+02  0.7816164E-02  0.1184000E+00
        -11   -1    0    0    0    0  0.00000000000E+00  0.00000000000E+00  0.45593999997E+02  0.45594000000E+02  0.51100000000E-03 0.  1.
         11   -1    0    0    0    0 -0.00000000000E+00 -0.00000000000E+00 -0.45593999997E+02  0.45594000000E+02  0.51100000000E-03 0. -1.
         23    2    1    2    0    0  0.44408920985E-15 -0.17763568394E-14  0.00000000000E+00  0.91188000000E+02  0.91188000000E+02 0.  0.
    9900012    2    3    3    0    0 -0.37981375166E+01 -0.13987936034E+02  0.33848019905E+02  0.54367127460E+02  0.40000098671E+02 0.  0.
         12    1    3    3    0    0  0.37981375166E+01  0.13987936034E+02 -0.33848019905E+02  0.36820872540E+02  0.00000000000E+00 0. -1.
         11    1    4    4    0    0  0.42672462608E+00  0.13809238064E+01  0.28070743150E+02  0.28107928876E+02  0.51100000000E-03 0. -1.
        -11    1    4    4    0    0  0.36150136325E+01 -0.16930784129E+02  0.58219345053E+01  0.18265122404E+02  0.51100000000E-03 0.  1.
         12    1    4    4    0    0 -0.78398757752E+01  0.15619242892E+01 -0.44657750200E-01  0.79940761799E+01  0.00000000000E+00 0. -1.
</event>
<event>
 8    1  0.1244838E-006  0.9118800E+02  0.7816164E-02  0.1184000E+00
        -11   -1    0    0    0    0  0.00000000000E+00  0.00000000000E+00  0.45593999997E+02  0.45594000000E+02  0.51100000000E-03 0.  1.
         11   -1    0    0    0    0 -0.00000000000E+00 -0.00000000000E+00 -0.45593999997E+02  0.45594000000E+02  0.51100000000E-03 0. -1.
         23    2    1    2    0    0 -0.35527136788E-14  0.88817841970E-15  0.00000000000E+00  0.91188000000E+02  0.91188000000E+02 0.  0.
    9900012    2    3    3    0    0  0.21734251244E+02 -0.71008128207E+01 -0.28861410036E+02  0.54367079192E+02  0.39999988634E+02 0.  0.
        -12    1    3    3    0    0 -0.21734251244E+02  0.71008128207E+01  0.28861410036E+02  0.36820920808E+02  0.00000000000E+00 0.  1.
         11    1    4    4    0    0  0.22498315613E+02 -0.36066472247E+01 -0.11467738667E+02  0.25508648338E+02  0.51100000000E-03 0. -1.
        -11    1    4    4    0    0  0.23029284429E+01  0.91323977662E+01 -0.10656406560E+02  0.14221925658E+02  0.51100000000E-03 0.  1.
        -12    1    4    4    0    0 -0.30669928122E+01 -0.12626563362E+02 -0.67372648098E+01  0.14636505196E+02  0.00000000000E+00 0.  1.
</event>
<event>
 8    1  0.1244838E-006  0.9118800E+02  0.7816164E-02  0.1184000E+00
        -11   -1    0    0    0    0  0.00000000000E+00  0.00000000000E+00  0.45593999997E+02  0.45594000000E+02  0.51100000000E-03 0.  1.
         11   -1    0    0    0    0 -0.00000000000E+00 -0.00000000000E+00 -0.45593999997E+02  0.45594000000E+02  0.51100000000E-03 0. -1.
         23    2    1    2    0    0  0.00000000000E+00  0.00000000000E+00  0.00000000000E+00  0.91188000000E+02  0.91188000000E+02 0.  0.
    9900012    2    3    3    0    0  0.20496042377E+02 -0.93326921908E+01 -0.29130610170E+02  0.54367090920E+02  0.40000015369E+02 0.  0.
        -12    1    3    3    0    0 -0.20496042377E+02  0.93326921908E+01  0.29130610170E+02  0.36820909080E+02  0.00000000000E+00 0.  1.
         11    1    4    4    0    0 -0.74191629810E+00 -0.37120290334E+01 -0.18556000863E+02  0.18938182796E+02  0.51100000000E-03 0. -1.
        -11    1    4    4    0    0  0.21850332406E+02  0.17663402010E+00 -0.16297743999E+02  0.27259579702E+02  0.51100000000E-03 0.  1.
        -12    1    4    4    0    0 -0.61237373046E+00 -0.57972971774E+01  0.57231346923E+01  0.81693284213E+01  0.00000000000E+00 0.  1.
</event>
<event>
 8    1  0.1244838E-006  0.9118800E+02  0.7816164E-02  0.1184000E+00
        -11   -1    0    0    0    0  0.00000000000E+00  0.00000000000E+00  0.45593999997E+02  0.45594000000E+02  0.51100000000E-03 0. -1.
         11   -1    0    0    0    0 -0.00000000000E+00 -0.00000000000E+00 -0.45593999997E+02  0.45594000000E+02  0.51100000000E-03 0.  1.
         23    2    1    2    0    0  0.00000000000E+00 -0.88817841970E-15 -0.17763568394E-14  0.91188000000E+02  0.91188000000E+02 0.  0.
    9900012    2    3    3    0    0 -0.33001054238E+02 -0.65909344296E+01  0.14942283759E+02  0.54367057027E+02  0.39999938105E+02 0.  0.
        -12    1    3    3    0    0  0.33001054238E+02  0.65909344296E+01 -0.14942283759E+02  0.36820942973E+02  0.00000000000E+00 0.  1.
         11    1    4    4    0    0 -0.89834791464E+01  0.52972725996E+01  0.13745648422E+02  0.17254183417E+02  0.51100000000E-03 0. -1.
        -11    1    4    4    0    0 -0.69177031896E+01  0.79991614377E+01  0.24473029545E+01  0.10854975502E+02  0.51100000000E-03 0.  1.
         12    1    4    4    0    0 -0.17099871902E+02 -0.19887368467E+02 -0.12506676177E+01  0.26257898109E+02  0.00000000000E+00 0. -1.
</event>
<event>
 8    1  0.1244838E-006  0.9118800E+02  0.7816164E-02  0.1184000E+00
        -11   -1    0    0    0    0  0.00000000000E+00  0.00000000000E+00  0.45593999997E+02  0.45594000000E+02  0.51100000000E-03 0.  1.
         11   -1    0    0    0    0 -0.00000000000E+00 -0.00000000000E+00 -0.45593999997E+02  0.45594000000E+02  0.51100000000E-03 0. -1.
         23    2    1    2    0    0 -0.35527136788E-14 -0.35527136788E-14 -0.44408920985E-15  0.91188000000E+02  0.91188000000E+02 0.  0.
    9900012    2    3    3    0    0  0.27763157505E+02  0.24109197147E+02  0.19321075799E+01  0.54367090975E+02  0.40000015496E+02 0.  0.
         12    1    3    3    0    0 -0.27763157505E+02 -0.24109197147E+02 -0.19321075799E+01  0.36820909025E+02  0.00000000000E+00 0. -1.
         11    1    4    4    0    0  0.48117104306E+01  0.23469497092E+02 -0.17777479383E+01  0.24023535106E+02  0.51100000000E-03 0. -1.
        -11    1    4    4    0    0  0.69110839156E+01  0.47718405473E+01  0.96076001488E+01  0.12760859061E+02  0.51100000000E-03 0.  1.
         12    1    4    4    0    0  0.16040363159E+02 -0.41321404921E+01 -0.58977446306E+01  0.17582696808E+02  0.00000000000E+00 0. -1.
</event>
<event>
 8    1  0.1244838E-006  0.9118800E+02  0.7816164E-02  0.1184000E+00
        -11   -1    0    0    0    0  0.00000000000E+00  0.00000000000E+00  0.45593999997E+02  0.45594000000E+02  0.51100000000E-03 0. -1.
         11   -1    0    0    0    0 -0.00000000000E+00 -0.00000000000E+00 -0.45593999997E+02  0.45594000000E+02  0.51100000000E-03 0.  1.
         23    2    1    2    0    0  0.55511151231E-15 -0.66613381478E-15  0.00000000000E+00  0.91188000000E+02  0.91188000000E+02 0.  0.
    9900012    2    3    3    0    0  0.55636405484E+00  0.17894358285E+01  0.36773195482E+02  0.54367088449E+02  0.40000009736E+02 0.  0.
        -12    1    3    3    0    0 -0.55636405484E+00 -0.17894358285E+01 -0.36773195482E+02  0.36820911551E+02  0.00000000000E+00 0.  1.
         11    1    4    4    0    0  0.38914252220E+00  0.68403026179E+01  0.28424678372E+02  0.29238733089E+02  0.51100000000E-03 0. -1.
        -11    1    4    4    0    0 -0.52539881746E+01 -0.84439124177E+01  0.13603332038E+02  0.16850955209E+02  0.51100000000E-03 0.  1.
         12    1    4    4    0    0  0.54212097072E+01  0.33930456283E+01 -0.52548149284E+01  0.82774001509E+01  0.00000000000E+00 0. -1.
</event>
<event>
 8    1  0.1244838E-006  0.9118800E+02  0.7816164E-02  0.1184000E+00
        -11   -1    0    0    0    0  0.00000000000E+00  0.00000000000E+00  0.45593999997E+02  0.45594000000E+02  0.51100000000E-03 0.  1.
         11   -1    0    0    0    0 -0.00000000000E+00 -0.00000000000E+00 -0.45593999997E+02  0.45594000000E+02  0.51100000000E-03 0. -1.
         23    2    1    2    0    0  0.71054273576E-14  0.35527136788E-14 -0.17763568394E-14  0.91188000000E+02  0.91188000000E+02 0.  0.
    9900012    2    3    3    0    0 -0.28724226763E+02  0.19697211375E+02 -0.11946440324E+02  0.54367098660E+02  0.40000033015E+02 0.  0.
        -12    1    3    3    0    0  0.28724226763E+02 -0.19697211375E+02  0.11946440324E+02  0.36820901340E+02  0.00000000000E+00 0.  1.
         11    1    4    4    0    0  0.13461015686E+01  0.19056604240E+02 -0.95544336092E+01  0.21360087932E+02  0.51100000000E-03 0. -1.
        -11    1    4    4    0    0 -0.59538608339E+01 -0.54170401768E+01 -0.83745854446E+00  0.80928437635E+01  0.51100000000E-03 0.  1.
         12    1    4    4    0    0 -0.24116467498E+02  0.60576473115E+01 -0.15545481707E+01  0.24914166965E+02  0.00000000000E+00 0. -1.
</event>
<event>
 8    1  0.1244838E-006  0.9118800E+02  0.7816164E-02  0.1184000E+00
        -11   -1    0    0    0    0  0.00000000000E+00  0.00000000000E+00  0.45593999997E+02  0.45594000000E+02  0.51100000000E-03 0. -1.
         11   -1    0    0    0    0 -0.00000000000E+00 -0.00000000000E+00 -0.45593999997E+02  0.45594000000E+02  0.51100000000E-03 0.  1.
         23    2    1    2    0    0  0.17763568394E-14  0.00000000000E+00  0.00000000000E+00  0.91188000000E+02  0.91188000000E+02 0.  0.
    9900012    2    3    3    0    0  0.14594635899E+02  0.98494733963E+01  0.32338291129E+02  0.54367073935E+02  0.39999976649E+02 0.  0.
        -12    1    3    3    0    0 -0.14594635899E+02 -0.98494733963E+01 -0.32338291129E+02  0.36820926065E+02  0.00000000000E+00 0.  1.
         11    1    4    4    0    0  0.98020943311E+01  0.21444078981E+02  0.17178957099E+02  0.29172695177E+02  0.51100000000E-03 0. -1.
        -11    1    4    4    0    0  0.42378921975E+01 -0.75565303052E+01 -0.82084656754E+00  0.87025668558E+01  0.51100000000E-03 0.  1.
         12    1    4    4    0    0  0.55464937006E+00 -0.40380752796E+01  0.15980180597E+02  0.16491811902E+02  0.00000000000E+00 0. -1.
</event>
<event>
 8    1  0.1244838E-006  0.9118800E+02  0.7816164E-02  0.1184000E+00
        -11   -1    0    0    0    0  0.00000000000E+00  0.00000000000E+00  0.45593999997E+02  0.45594000000E+02  0.51100000000E-03 0. -1.
         11   -1    0    0    0    0 -0.00000000000E+00 -0.00000000000E+00 -0.45593999997E+02  0.45594000000E+02  0.51100000000E-03 0.  1.
         23    2    1    2    0    0  0.00000000000E+00  0.00000000000E+00  0.00000000000E+00  0.91188000000E+02  0.91188000000E+02 0.  0.
    9900012    2    3    3    0    0 -0.35359384413E+02 -0.86657787424E+01 -0.55134835762E+01  0.54367078116E+02  0.39999986180E+02 0.  0.
        -12    1    3    3    0    0  0.35359384413E+02  0.86657787424E+01  0.55134835762E+01  0.36820921884E+02  0.00000000000E+00 0.  1.
         11    1    4    4    0    0 -0.21423795243E+02  0.14750577515E+01 -0.58220887027E+01  0.22249753147E+02  0.51100000000E-03 0. -1.
        -11    1    4    4    0    0  0.15924457348E+01 -0.68123863554E+00 -0.10715024654E+02  0.10854110884E+02  0.51100000000E-03 0.  1.
         12    1    4    4    0    0 -0.15528034905E+02 -0.94595978584E+01  0.11023629780E+02  0.21263214084E+02  0.00000000000E+00 0. -1.
</event>
<event>
 8    1  0.1244838E-006  0.9118800E+02  0.7816164E-02  0.1184000E+00
        -11   -1    0    0    0    0  0.00000000000E+00  0.00000000000E+00  0.45593999997E+02  0.45594000000E+02  0.51100000000E-03 0.  1.
         11   -1    0    0    0    0 -0.00000000000E+00 -0.00000000000E+00 -0.45593999997E+02  0.45594000000E+02  0.51100000000E-03 0. -1.
         23    2    1    2    0    0  0.00000000000E+00  0.00000000000E+00  0.35527136788E-14  0.91188000000E+02  0.91188000000E+02 0.  0.
    9900012    2    3    3    0    0 -0.10181493818E+02  0.21616673761E+02  0.28014921964E+02  0.54367092168E+02  0.40000018216E+02 0.  0.
        -12    1    3    3    0    0  0.10181493818E+02 -0.21616673761E+02 -0.28014921964E+02  0.36820907832E+02  0.00000000000E+00 0.  1.
         11    1    4    4    0    0 -0.16747211125E+02  0.24748645329E+02  0.22480622068E+02  0.37394423313E+02  0.51100000000E-03 0. -1.
        -11    1    4    4    0    0  0.33836062868E+01  0.46923466435E+01  0.62246835469E+01  0.84978582035E+01  0.51100000000E-03 0.  1.
         12    1    4    4    0    0  0.31821110197E+01 -0.78243182108E+01 -0.69038365026E+00  0.84748106521E+01  0.00000000000E+00 0. -1.
</event>
<event>
 8    1  0.1244838E-006  0.9118800E+02  0.7816164E-02  0.1184000E+00
        -11   -1    0    0    0    0  0.00000000000E+00  0.00000000000E+00  0.45593999997E+02  0.45594000000E+02  0.51100000000E-03 0. -1.
         11   -1    0    0    0    0 -0.00000000000E+00 -0.00000000000E+00 -0.45593999997E+02  0.45594000000E+02  0.51100000000E-03 0.  1.
         23    2    1    2    0    0  0.00000000000E+00  0.00000000000E+00  0.11102230246E-15  0.91188000000E+02  0.91188000000E+02 0.  0.
    9900012    2    3    3    0    0 -0.32594977494E+02 -0.17113081297E+02  0.69971608782E+00  0.54367085944E+02  0.40000004027E+02 0.  0.
        -12    1    3    3    0    0  0.32594977494E+02  0.17113081297E+02 -0.69971608782E+00  0.36820914056E+02  0.00000000000E+00 0.  1.
         11    1    4    4    0    0 -0.74229783372E+01  0.85291753243E+01  0.16235127441E+01  0.11422925764E+02  0.51100000000E-03 0. -1.
        -11    1    4    4    0    0 -0.19333349895E+02 -0.48326802746E+01  0.49763578740E+01  0.20540140086E+02  0.51100000000E-03 0.  1.
        -12    1    4    4    0    0 -0.58386492615E+01 -0.20809576346E+02 -0.59001545303E+01  0.22404020094E+02  0.00000000000E+00 0.  1.
</event>
<event>
 8    1  0.1244838E-006  0.9118800E+02  0.7816164E-02  0.1184000E+00
        -11   -1    0    0    0    0  0.00000000000E+00  0.00000000000E+00  0.45593999997E+02  0.45594000000E+02  0.51100000000E-03 0. -1.
         11   -1    0    0    0    0 -0.00000000000E+00 -0.00000000000E+00 -0.45593999997E+02  0.45594000000E+02  0.51100000000E-03 0.  1.
         23    2    1    2    0    0  0.71054273576E-14  0.17763568394E-14 -0.88817841970E-15  0.91188000000E+02  0.91188000000E+02 0.  0.
    9900012    2    3    3    0    0  0.33574353415E+02  0.14927350124E+02 -0.23908231317E+01  0.54367095283E+02  0.40000025316E+02 0.  0.
        -12    1    3    3    0    0 -0.33574353415E+02 -0.14927350124E+02  0.23908231317E+01  0.36820904717E+02  0.00000000000E+00 0.  1.
         11    1    4    4    0    0  0.15119697494E+02  0.15095067891E+02 -0.12735733305E+01  0.21402997833E+02  0.51100000000E-03 0. -1.
        -11    1    4    4    0    0  0.20422003560E+02 -0.52547040061E+01  0.78229388106E+01  0.22491520969E+02  0.51100000000E-03 0.  1.
        -12    1    4    4    0    0 -0.19673476395E+01  0.50869862397E+01 -0.89401886118E+01  0.10472576481E+02  0.00000000000E+00 0.  1.
</event>
<event>
 8    1  0.1244838E-006  0.9118800E+02  0.7816164E-02  0.1184000E+00
        -11   -1    0    0    0    0  0.00000000000E+00  0.00000000000E+00  0.45593999997E+02  0.45594000000E+02  0.51100000000E-03 0.  1.
         11   -1    0    0    0    0 -0.00000000000E+00 -0.00000000000E+00 -0.45593999997E+02  0.45594000000E+02  0.51100000000E-03 0. -1.
         23    2    1    2    0    0 -0.35527136788E-14  0.88817841970E-15  0.00000000000E+00  0.91188000000E+02  0.91188000000E+02 0.  0.
    9900012    2    3    3    0    0 -0.21069385155E+02  0.45972267907E+01 -0.29845030465E+02  0.54367091152E+02  0.40000015898E+02 0.  0.
        -12    1    3    3    0    0  0.21069385155E+02 -0.45972267907E+01  0.29845030465E+02  0.36820908848E+02  0.00000000000E+00 0.  1.
         11    1    4    4    0    0 -0.11493805008E+01  0.12664538201E+02 -0.10517898781E+02  0.16502660343E+02  0.51100000000E-03 0. -1.
        -11    1    4    4    0    0 -0.72075725763E+01 -0.19752485417E+01  0.55241438882E+01  0.92933780297E+01  0.51100000000E-03 0.  1.
        -12    1    4    4    0    0 -0.12712432078E+02 -0.60920628684E+01 -0.24851275572E+02  0.28571052779E+02  0.00000000000E+00 0.  1.
</event>
<event>
 8    1  0.1244838E-006  0.9118800E+02  0.7816164E-02  0.1184000E+00
        -11   -1    0    0    0    0  0.00000000000E+00  0.00000000000E+00  0.45593999997E+02  0.45594000000E+02  0.51100000000E-03 0. -1.
         11   -1    0    0    0    0 -0.00000000000E+00 -0.00000000000E+00 -0.45593999997E+02  0.45594000000E+02  0.51100000000E-03 0.  1.
         23    2    1    2    0    0  0.17763568394E-14  0.00000000000E+00  0.00000000000E+00  0.91188000000E+02  0.91188000000E+02 0.  0.
    9900012    2    3    3    0    0  0.12538508222E+02  0.91023022303E+01  0.33402308652E+02  0.54367077719E+02  0.39999985277E+02 0.  0.
        -12    1    3    3    0    0 -0.12538508222E+02 -0.91023022303E+01 -0.33402308652E+02  0.36820922281E+02  0.00000000000E+00 0.  1.
         11    1    4    4    0    0 -0.82454031610E+01 -0.61781960112E+01  0.14781246541E+02  0.18017825307E+02  0.51100000000E-03 0. -1.
        -11    1    4    4    0    0  0.20349391307E+02  0.52129920226E+01  0.10980634336E+02  0.23703319242E+02  0.51100000000E-03 0.  1.
        -12    1    4    4    0    0  0.43452007564E+00  0.10067506219E+02  0.76404277751E+01  0.12645933170E+02  0.00000000000E+00 0.  1.
</event>
<event>
 8    1  0.1244838E-006  0.9118800E+02  0.7816164E-02  0.1184000E+00
        -11   -1    0    0    0    0  0.00000000000E+00  0.00000000000E+00  0.45593999997E+02  0.45594000000E+02  0.51100000000E-03 0.  1.
         11   -1    0    0    0    0 -0.00000000000E+00 -0.00000000000E+00 -0.45593999997E+02  0.45594000000E+02  0.51100000000E-03 0. -1.
         23    2    1    2    0    0  0.17763568394E-14 -0.17763568394E-14 -0.35527136788E-14  0.91188000000E+02  0.91188000000E+02 0.  0.
    9900012    2    3    3    0    0  0.14053622392E+02 -0.14923894531E+02  0.30587026416E+02  0.54366903937E+02  0.39999589104E+02 0.  0.
         12    1    3    3    0    0 -0.14053622392E+02  0.14923894531E+02 -0.30587026416E+02  0.36821096063E+02  0.00000000000E+00 0. -1.
         11    1    4    4    0    0  0.84932965704E+00 -0.57137350346E+01  0.72053789248E+01  0.92350210949E+01  0.51100000000E-03 0. -1.
        -11    1    4    4    0    0  0.87759751190E+01 -0.15977996279E+02  0.29713816873E+02  0.34860077708E+02  0.51100000000E-03 0.  1.
         12    1    4    4    0    0  0.44283176161E+01  0.67678367827E+01 -0.63321693826E+01  0.10271805134E+02  0.00000000000E+00 0. -1.
</event>
<event>
 8    1  0.1244838E-006  0.9118800E+02  0.7816164E-02  0.1184000E+00
        -11   -1    0    0    0    0  0.00000000000E+00  0.00000000000E+00  0.45593999997E+02  0.45594000000E+02  0.51100000000E-03 0. -1.
         11   -1    0    0    0    0 -0.00000000000E+00 -0.00000000000E+00 -0.45593999997E+02  0.45594000000E+02  0.51100000000E-03 0.  1.
         23    2    1    2    0    0 -0.35527136788E-14  0.00000000000E+00 -0.13322676296E-14  0.91188000000E+02  0.91188000000E+02 0.  0.
    9900012    2    3    3    0    0 -0.21609734511E+02 -0.29750816982E+02  0.19198785197E+01  0.54367113668E+02  0.40000067229E+02 0.  0.
         12    1    3    3    0    0  0.21609734511E+02  0.29750816982E+02 -0.19198785197E+01  0.36820886332E+02  0.00000000000E+00 0. -1.
         11    1    4    4    0    0  0.12381459000E+01  0.36274258682E+01  0.41095140661E+01  0.56195488983E+01  0.51100000000E-03 0. -1.
        -11    1    4    4    0    0 -0.22158563922E+02 -0.96051096183E+01 -0.54045999156E+01  0.24748126926E+02  0.51100000000E-03 0.  1.
        -12    1    4    4    0    0 -0.68931648898E+00 -0.23773133232E+02  0.32149643692E+01  0.23999437843E+02  0.00000000000E+00 0.  1.
</event>
<event>
 8    1  0.1244838E-006  0.9118800E+02  0.7816164E-02  0.1184000E+00
        -11   -1    0    0    0    0  0.00000000000E+00  0.00000000000E+00  0.45593999997E+02  0.45594000000E+02  0.51100000000E-03 0. -1.
         11   -1    0    0    0    0 -0.00000000000E+00 -0.00000000000E+00 -0.45593999997E+02  0.45594000000E+02  0.51100000000E-03 0.  1.
         23    2    1    2    0    0  0.00000000000E+00  0.00000000000E+00  0.00000000000E+00  0.91188000000E+02  0.91188000000E+02 0.  0.
    9900012    2    3    3    0    0 -0.25327801909E+02 -0.42108612916E+01  0.26392277222E+02  0.54367065746E+02  0.39999957981E+02 0.  0.
        -12    1    3    3    0    0  0.25327801909E+02  0.42108612916E+01 -0.26392277222E+02  0.36820934254E+02  0.00000000000E+00 0.  1.
         11    1    4    4    0    0 -0.14254686803E+02 -0.51642302444E+01  0.29343877093E+02  0.33029206666E+02  0.51100000000E-03 0. -1.
        -11    1    4    4    0    0 -0.14206192995E+02  0.23291697484E+01  0.27806487843E+01  0.14661956181E+02  0.51100000000E-03 0.  1.
         12    1    4    4    0    0  0.31330778884E+01 -0.13758007956E+01 -0.57322486548E+01  0.66759028996E+01  0.00000000000E+00 0. -1.
</event>
<event>
 8    1  0.1244838E-006  0.9118800E+02  0.7816164E-02  0.1184000E+00
        -11   -1    0    0    0    0  0.00000000000E+00  0.00000000000E+00  0.45593999997E+02  0.45594000000E+02  0.51100000000E-03 0. -1.
         11   -1    0    0    0    0 -0.00000000000E+00 -0.00000000000E+00 -0.45593999997E+02  0.45594000000E+02  0.51100000000E-03 0.  1.
         23    2    1    2    0    0 -0.17763568394E-14 -0.17763568394E-14  0.00000000000E+00  0.91188000000E+02  0.91188000000E+02 0.  0.
    9900012    2    3    3    0    0 -0.13828274046E+02  0.76083860240E+01 -0.33266656675E+02  0.54367093611E+02  0.40000021505E+02 0.  0.
         12    1    3    3    0    0  0.13828274046E+02 -0.76083860240E+01  0.33266656675E+02  0.36820906389E+02  0.00000000000E+00 0. -1.
         11    1    4    4    0    0  0.70407915206E+01 -0.53820878396E+01  0.26422022047E+01  0.92477482396E+01  0.51100000000E-03 0. -1.
        -11    1    4    4    0    0 -0.10293408459E+02  0.76081460793E+01 -0.28199243289E+02  0.30968297771E+02  0.51100000000E-03 0.  1.
         12    1    4    4    0    0 -0.10575657108E+02  0.53823277844E+01 -0.77096155903E+01  0.14151047601E+02  0.00000000000E+00 0. -1.
</event>
<event>
 8    1  0.1244838E-006  0.9118800E+02  0.7816164E-02  0.1184000E+00
        -11   -1    0    0    0    0  0.00000000000E+00  0.00000000000E+00  0.45593999997E+02  0.45594000000E+02  0.51100000000E-03 0. -1.
         11   -1    0    0    0    0 -0.00000000000E+00 -0.00000000000E+00 -0.45593999997E+02  0.45594000000E+02  0.51100000000E-03 0.  1.
         23    2    1    2    0    0  0.00000000000E+00  0.00000000000E+00  0.00000000000E+00  0.91188000000E+02  0.91188000000E+02 0.  0.
    9900012    2    3    3    0    0  0.19729351001E+02 -0.20239093691E+02  0.23598972014E+02  0.54367086317E+02  0.40000004876E+02 0.  0.
        -12    1    3    3    0    0 -0.19729351001E+02  0.20239093691E+02 -0.23598972014E+02  0.36820913683E+02  0.00000000000E+00 0.  1.
         11    1    4    4    0    0  0.24129640083E+02 -0.11254317035E+02  0.33089520629E+01  0.26829989685E+02  0.51100000000E-03 0. -1.
        -11    1    4    4    0    0 -0.16148590712E+01 -0.11182824334E+02  0.21066171733E+02  0.23904956006E+02  0.51100000000E-03 0.  1.
        -12    1    4    4    0    0 -0.27854300106E+01  0.21980476779E+01 -0.77615178223E+00  0.36321406260E+01  0.00000000000E+00 0.  1.
</event>
<event>
 8    1  0.1244838E-006  0.9118800E+02  0.7816164E-02  0.1184000E+00
        -11   -1    0    0    0    0  0.00000000000E+00  0.00000000000E+00  0.45593999997E+02  0.45594000000E+02  0.51100000000E-03 0. -1.
         11   -1    0    0    0    0 -0.00000000000E+00 -0.00000000000E+00 -0.45593999997E+02  0.45594000000E+02  0.51100000000E-03 0.  1.
         23    2    1    2    0    0  0.00000000000E+00  0.35527136788E-14  0.00000000000E+00  0.91188000000E+02  0.91188000000E+02 0.  0.
    9900012    2    3    3    0    0 -0.21300080142E+02 -0.23284942391E+02 -0.18971016565E+02  0.54367062672E+02  0.39999950974E+02 0.  0.
         12    1    3    3    0    0  0.21300080142E+02  0.23284942391E+02  0.18971016565E+02  0.36820937328E+02  0.00000000000E+00 0. -1.
         11    1    4    4    0    0  0.82308554979E+01 -0.30187602452E+01 -0.70790375460E+01  0.11268214964E+02  0.51100000000E-03 0. -1.
        -11    1    4    4    0    0 -0.95472460862E+00 -0.10848127984E+02 -0.42103949893E+00  0.10898195004E+02  0.51100000000E-03 0.  1.
        -12    1    4    4    0    0 -0.28576211031E+02 -0.94180541623E+01 -0.11470939520E+02  0.32200652704E+02  0.00000000000E+00 0.  1.
</event>
<event>
 8    1  0.1244838E-006  0.9118800E+02  0.7816164E-02  0.1184000E+00
        -11   -1    0    0    0    0  0.00000000000E+00  0.00000000000E+00  0.45593999997E+02  0.45594000000E+02  0.51100000000E-03 0. -1.
         11   -1    0    0    0    0 -0.00000000000E+00 -0.00000000000E+00 -0.45593999997E+02  0.45594000000E+02  0.51100000000E-03 0.  1.
         23    2    1    2    0    0 -0.35527136788E-14 -0.35527136788E-14 -0.17763568394E-14  0.91188000000E+02  0.91188000000E+02 0.  0.
    9900012    2    3    3    0    0  0.17190595973E+02  0.28650979359E+02  0.15472099651E+02  0.54367067424E+02  0.39999961807E+02 0.  0.
         12    1    3    3    0    0 -0.17190595973E+02 -0.28650979359E+02 -0.15472099651E+02  0.36820932576E+02  0.00000000000E+00 0. -1.
         11    1    4    4    0    0 -0.34418248039E+01  0.32778976658E+01  0.44866633910E+01  0.65361242134E+01  0.51100000000E-03 0. -1.
        -11    1    4    4    0    0  0.18710390770E+02 -0.21699645789E+01  0.60476026313E+01  0.19782845268E+02  0.51100000000E-03 0.  1.
        -12    1    4    4    0    0  0.19220300070E+01  0.27543046272E+02  0.49378336290E+01  0.28048097943E+02  0.00000000000E+00 0.  1.
</event>
<event>
 8    1  0.1244838E-006  0.9118800E+02  0.7816164E-02  0.1184000E+00
        -11   -1    0    0    0    0  0.00000000000E+00  0.00000000000E+00  0.45593999997E+02  0.45594000000E+02  0.51100000000E-03 0. -1.
         11   -1    0    0    0    0 -0.00000000000E+00 -0.00000000000E+00 -0.45593999997E+02  0.45594000000E+02  0.51100000000E-03 0.  1.
         23    2    1    2    0    0  0.17763568394E-14  0.00000000000E+00  0.35527136788E-14  0.91188000000E+02  0.91188000000E+02 0.  0.
    9900012    2    3    3    0    0  0.15309942970E+02 -0.32259251226E+02  0.89847347941E+01  0.54367094217E+02  0.40000022886E+02 0.  0.
        -12    1    3    3    0    0 -0.15309942970E+02  0.32259251226E+02 -0.89847347941E+01  0.36820905783E+02  0.00000000000E+00 0.  1.
         11    1    4    4    0    0  0.19833446811E+02 -0.27770820009E+02 -0.51572385851E+01  0.34513492528E+02  0.51100000000E-03 0. -1.
        -11    1    4    4    0    0 -0.30688273967E+01 -0.32257984438E+01 -0.10216967647E+01  0.45680785601E+01  0.51100000000E-03 0.  1.
         12    1    4    4    0    0 -0.14546764450E+01 -0.12626327729E+01  0.15163670144E+02  0.15285523129E+02  0.00000000000E+00 0. -1.
</event>
<event>
 8    1  0.1244838E-006  0.9118800E+02  0.7816164E-02  0.1184000E+00
        -11   -1    0    0    0    0  0.00000000000E+00  0.00000000000E+00  0.45593999997E+02  0.45594000000E+02  0.51100000000E-03 0. -1.
         11   -1    0    0    0    0 -0.00000000000E+00 -0.00000000000E+00 -0.45593999997E+02  0.45594000000E+02  0.51100000000E-03 0.  1.
         23    2    1    2    0    0 -0.17763568394E-14  0.00000000000E+00  0.71054273576E-14  0.91188000000E+02  0.91188000000E+02 0.  0.
    9900012    2    3    3    0    0  0.80330160936E+01  0.16215129482E+02 -0.32067420738E+02  0.54367092291E+02  0.40000018496E+02 0.  0.
         12    1    3    3    0    0 -0.80330160936E+01 -0.16215129482E+02  0.32067420738E+02  0.36820907709E+02  0.00000000000E+00 0. -1.
         11    1    4    4    0    0 -0.23184260520E+01 -0.92459371825E+01 -0.11952637584E+01  0.96068261905E+01  0.51100000000E-03 0. -1.
        -11    1    4    4    0    0 -0.26454680608E+01  0.97424671354E+01 -0.36280122675E+01  0.10727378078E+02  0.51100000000E-03 0.  1.
         12    1    4    4    0    0  0.12996910206E+02  0.15718599529E+02 -0.27244144713E+02  0.34032888023E+02  0.00000000000E+00 0. -1.
</event>
<event>
 8    1  0.1244838E-006  0.9118800E+02  0.7816164E-02  0.1184000E+00
        -11   -1    0    0    0    0  0.00000000000E+00  0.00000000000E+00  0.45593999997E+02  0.45594000000E+02  0.51100000000E-03 0.  1.
         11   -1    0    0    0    0 -0.00000000000E+00 -0.00000000000E+00 -0.45593999997E+02  0.45594000000E+02  0.51100000000E-03 0. -1.
         23    2    1    2    0    0 -0.35527136788E-14  0.35527136788E-14  0.17763568394E-14  0.91188000000E+02  0.91188000000E+02 0.  0.
    9900012    2    3    3    0    0 -0.30810687704E+02  0.17398684907E+02  0.10186623971E+02  0.54367081744E+02  0.39999994451E+02 0.  0.
         12    1    3    3    0    0  0.30810687704E+02 -0.17398684907E+02 -0.10186623971E+02  0.36820918256E+02  0.00000000000E+00 0. -1.
         11    1    4    4    0    0 -0.77545512019E+01  0.93029244700E+01 -0.41218352109E+01  0.12793240161E+02  0.51100000000E-03 0. -1.
        -11    1    4    4    0    0 -0.24182700319E+01 -0.88277203904E+01  0.11557692428E+02  0.14743029938E+02  0.51100000000E-03 0.  1.
        -12    1    4    4    0    0 -0.20637866470E+02  0.16923480828E+02  0.27507667540E+01  0.26830811645E+02  0.00000000000E+00 0.  1.
</event>
<event>
 8    1  0.1244838E-006  0.9118800E+02  0.7816164E-02  0.1184000E+00
        -11   -1    0    0    0    0  0.00000000000E+00  0.00000000000E+00  0.45593999997E+02  0.45594000000E+02  0.51100000000E-03 0. -1.
         11   -1    0    0    0    0 -0.00000000000E+00 -0.00000000000E+00 -0.45593999997E+02  0.45594000000E+02  0.51100000000E-03 0.  1.
         23    2    1    2    0    0  0.11102230246E-15  0.00000000000E+00  0.00000000000E+00  0.91188000000E+02  0.91188000000E+02 0.  0.
    9900012    2    3    3    0    0 -0.68517709416E+00  0.33422580035E+02 -0.15435086447E+02  0.54367079079E+02  0.39999988377E+02 0.  0.
         12    1    3    3    0    0  0.68517709416E+00 -0.33422580035E+02  0.15435086447E+02  0.36820920921E+02  0.00000000000E+00 0. -1.
         11    1    4    4    0    0 -0.19361678214E+01  0.34374933062E+01  0.33926038818E+01  0.52033515567E+01  0.51100000000E-03 0. -1.
        -11    1    4    4    0    0 -0.52739601174E+01  0.26145528722E+02 -0.27049014743E+02  0.37987531195E+02  0.51100000000E-03 0.  1.
        -12    1    4    4    0    0  0.65249508446E+01  0.38395580063E+01  0.82213244150E+01  0.11176196327E+02  0.00000000000E+00 0.  1.
</event>
<event>
 8    1  0.1244838E-006  0.9118800E+02  0.7816164E-02  0.1184000E+00
        -11   -1    0    0    0    0  0.00000000000E+00  0.00000000000E+00  0.45593999997E+02  0.45594000000E+02  0.51100000000E-03 0.  1.
         11   -1    0    0    0    0 -0.00000000000E+00 -0.00000000000E+00 -0.45593999997E+02  0.45594000000E+02  0.51100000000E-03 0. -1.
         23    2    1    2    0    0 -0.88817841970E-15  0.00000000000E+00  0.71054273576E-14  0.91188000000E+02  0.91188000000E+02 0.  0.
    9900012    2    3    3    0    0 -0.41655849757E+01  0.69031876258E+00 -0.36578014735E+02  0.54367084746E+02  0.40000001296E+02 0.  0.
        -12    1    3    3    0    0  0.41655849757E+01 -0.69031876258E+00  0.36578014735E+02  0.36820915254E+02  0.00000000000E+00 0.  1.
         11    1    4    4    0    0 -0.59880990462E+01  0.11980893434E+02 -0.33960360978E+02  0.36506235846E+02  0.51100000000E-03 0. -1.
        -11    1    4    4    0    0 -0.43506282132E+01 -0.97650306261E+01  0.65278715036E+00  0.10710271719E+02  0.51100000000E-03 0.  1.
         12    1    4    4    0    0  0.61731422837E+01 -0.15255440453E+01 -0.32704409071E+01  0.71505771806E+01  0.00000000000E+00 0. -1.
</event>
<event>
 8    1  0.1244838E-006  0.9118800E+02  0.7816164E-02  0.1184000E+00
        -11   -1    0    0    0    0  0.00000000000E+00  0.00000000000E+00  0.45593999997E+02  0.45594000000E+02  0.51100000000E-03 0.  1.
         11   -1    0    0    0    0 -0.00000000000E+00 -0.00000000000E+00 -0.45593999997E+02  0.45594000000E+02  0.51100000000E-03 0. -1.
         23    2    1    2    0    0  0.00000000000E+00 -0.22204460493E-15  0.00000000000E+00  0.91188000000E+02  0.91188000000E+02 0.  0.
    9900012    2    3    3    0    0 -0.19334212450E+02 -0.48334406073E+00  0.31332660701E+02  0.54367068193E+02  0.39999963559E+02 0.  0.
         12    1    3    3    0    0  0.19334212450E+02  0.48334406073E+00 -0.31332660701E+02  0.36820931807E+02  0.00000000000E+00 0. -1.
         11    1    4    4    0    0  0.65883611904E+01 -0.40168046405E+01  0.10334098910E+02  0.12897085843E+02  0.51100000000E-03 0. -1.
        -11    1    4    4    0    0 -0.26077548633E+02  0.10933907827E+02  0.17750281666E+02  0.33386544933E+02  0.51100000000E-03 0.  1.
         12    1    4    4    0    0  0.15497499232E+00 -0.74004472474E+01  0.32482801256E+01  0.80834374176E+01  0.00000000000E+00 0. -1.
</event>
<event>
 8    1  0.1244838E-006  0.9118800E+02  0.7816164E-02  0.1184000E+00
        -11   -1    0    0    0    0  0.00000000000E+00  0.00000000000E+00  0.45593999997E+02  0.45594000000E+02  0.51100000000E-03 0.  1.
         11   -1    0    0    0    0 -0.00000000000E+00 -0.00000000000E+00 -0.45593999997E+02  0.45594000000E+02  0.51100000000E-03 0. -1.
         23    2    1    2    0    0  0.35527136788E-14  0.00000000000E+00  0.00000000000E+00  0.91188000000E+02  0.91188000000E+02 0.  0.
    9900012    2    3    3    0    0  0.20096842170E+02 -0.29594160150E+02  0.87225182402E+01  0.54367086042E+02  0.40000004251E+02 0.  0.
         12    1    3    3    0    0 -0.20096842170E+02  0.29594160150E+02 -0.87225182402E+01  0.36820913958E+02  0.00000000000E+00 0. -1.
         11    1    4    4    0    0 -0.39977859988E+01 -0.14197601410E+01 -0.19224641088E+01  0.46576689729E+01  0.51100000000E-03 0. -1.
        -11    1    4    4    0    0  0.62475366019E+01  0.43773599982E+01  0.10003964915E+02  0.12580632275E+02  0.51100000000E-03 0.  1.
         12    1    4    4    0    0  0.17847091567E+02 -0.32551760008E+02  0.64101743379E+00  0.37128784795E+02  0.00000000000E+00 0. -1.
</event>
<event>
 8    1  0.1244838E-006  0.9118800E+02  0.7816164E-02  0.1184000E+00
        -11   -1    0    0    0    0  0.00000000000E+00  0.00000000000E+00  0.45593999997E+02  0.45594000000E+02  0.51100000000E-03 0.  1.
         11   -1    0    0    0    0 -0.00000000000E+00 -0.00000000000E+00 -0.45593999997E+02  0.45594000000E+02  0.51100000000E-03 0. -1.
         23    2    1    2    0    0  0.00000000000E+00  0.00000000000E+00 -0.35527136788E-14  0.91188000000E+02  0.91188000000E+02 0.  0.
    9900012    2    3    3    0    0 -0.12185765014E+02  0.29269466408E+02  0.18723935739E+02  0.54367077926E+02  0.39999985749E+02 0.  0.
         12    1    3    3    0    0  0.12185765014E+02 -0.29269466408E+02 -0.18723935739E+02  0.36820922074E+02  0.00000000000E+00 0. -1.
         11    1    4    4    0    0 -0.67440613770E+01  0.12547920966E+02  0.15670900779E+02  0.21178050333E+02  0.51100000000E-03 0. -1.
        -11    1    4    4    0    0 -0.14599030310E+02  0.73541383009E+00  0.17042444200E+01  0.14716554244E+02  0.51100000000E-03 0.  1.
         12    1    4    4    0    0  0.91573266734E+01  0.15986131612E+02  0.13487905398E+01  0.18472473350E+02  0.00000000000E+00 0. -1.
</event>
<event>
 8    1  0.1244838E-006  0.9118800E+02  0.7816164E-02  0.1184000E+00
        -11   -1    0    0    0    0  0.00000000000E+00  0.00000000000E+00  0.45593999997E+02  0.45594000000E+02  0.51100000000E-03 0. -1.
         11   -1    0    0    0    0 -0.00000000000E+00 -0.00000000000E+00 -0.45593999997E+02  0.45594000000E+02  0.51100000000E-03 0.  1.
         23    2    1    2    0    0  0.00000000000E+00 -0.88817841970E-15 -0.71054273576E-14  0.91188000000E+02  0.91188000000E+02 0.  0.
    9900012    2    3    3    0    0  0.11121625790E+02  0.52555061757E+01 -0.34705466346E+02  0.54367077963E+02  0.39999985831E+02 0.  0.
         12    1    3    3    0    0 -0.11121625790E+02 -0.52555061757E+01  0.34705466346E+02  0.36820922037E+02  0.00000000000E+00 0. -1.
         11    1    4    4    0    0  0.10523659024E+02 -0.59584166891E+01  0.26866886672E+01  0.12388237363E+02  0.51100000000E-03 0. -1.
        -11    1    4    4    0    0  0.65537374050E+01  0.77082399519E+00 -0.91218873375E+01  0.11258528877E+02  0.51100000000E-03 0.  1.
         12    1    4    4    0    0 -0.59557706396E+01  0.10443098870E+02 -0.28270267676E+02  0.30720311723E+02  0.00000000000E+00 0. -1.
</event>
<event>
 8    1  0.1244838E-006  0.9118800E+02  0.7816164E-02  0.1184000E+00
        -11   -1    0    0    0    0  0.00000000000E+00  0.00000000000E+00  0.45593999997E+02  0.45594000000E+02  0.51100000000E-03 0.  1.
         11   -1    0    0    0    0 -0.00000000000E+00 -0.00000000000E+00 -0.45593999997E+02  0.45594000000E+02  0.51100000000E-03 0. -1.
         23    2    1    2    0    0  0.17763568394E-14  0.00000000000E+00  0.17763568394E-14  0.91188000000E+02  0.91188000000E+02 0.  0.
    9900012    2    3    3    0    0 -0.13397925574E+02  0.31902817397E+02 -0.12589128497E+02  0.54367077634E+02  0.39999985083E+02 0.  0.
         12    1    3    3    0    0  0.13397925574E+02 -0.31902817397E+02  0.12589128497E+02  0.36820922366E+02  0.00000000000E+00 0. -1.
         11    1    4    4    0    0 -0.12648864673E+02  0.97742704310E+01 -0.10264252138E+02  0.18996973764E+02  0.51100000000E-03 0. -1.
        -11    1    4    4    0    0  0.83351375533E+01  0.10999050976E+02 -0.11802626156E+02  0.18159174674E+02  0.51100000000E-03 0.  1.
        -12    1    4    4    0    0 -0.90841984539E+01  0.11129495990E+02  0.94777497978E+01  0.17210929196E+02  0.00000000000E+00 0.  1.
</event>
<event>
 8    1  0.1244838E-006  0.9118800E+02  0.7816164E-02  0.1184000E+00
        -11   -1    0    0    0    0  0.00000000000E+00  0.00000000000E+00  0.45593999997E+02  0.45594000000E+02  0.51100000000E-03 0.  1.
         11   -1    0    0    0    0 -0.00000000000E+00 -0.00000000000E+00 -0.45593999997E+02  0.45594000000E+02  0.51100000000E-03 0. -1.
         23    2    1    2    0    0  0.00000000000E+00 -0.44408920985E-15  0.00000000000E+00  0.91188000000E+02  0.91188000000E+02 0.  0.
    9900012    2    3    3    0    0  0.22841095070E+02 -0.19988156402E+01  0.28810874095E+02  0.54367117961E+02  0.40000077016E+02 0.  0.
         12    1    3    3    0    0 -0.22841095070E+02  0.19988156402E+01 -0.28810874095E+02  0.36820882039E+02  0.00000000000E+00 0. -1.
         11    1    4    4    0    0 -0.22652308758E+01  0.36592716216E+01  0.11544082135E+02  0.12320201797E+02  0.51100000000E-03 0. -1.
        -11    1    4    4    0    0  0.26271535586E+01  0.15464558245E+00  0.18604644366E+02  0.18789854798E+02  0.51100000000E-03 0.  1.
         12    1    4    4    0    0  0.22479172387E+02 -0.58127328443E+01 -0.13378524057E+01  0.23257061366E+02  0.00000000000E+00 0. -1.
</event>
<event>
 8    1  0.1244838E-006  0.9118800E+02  0.7816164E-02  0.1184000E+00
        -11   -1    0    0    0    0  0.00000000000E+00  0.00000000000E+00  0.45593999997E+02  0.45594000000E+02  0.51100000000E-03 0.  1.
         11   -1    0    0    0    0 -0.00000000000E+00 -0.00000000000E+00 -0.45593999997E+02  0.45594000000E+02  0.51100000000E-03 0. -1.
         23    2    1    2    0    0  0.71054273576E-14  0.00000000000E+00  0.88817841970E-15  0.91188000000E+02  0.91188000000E+02 0.  0.
    9900012    2    3    3    0    0  0.32223002150E+02 -0.16588622436E+02  0.65023445433E+01  0.54367017579E+02  0.39999848175E+02 0.  0.
         12    1    3    3    0    0 -0.32223002150E+02  0.16588622436E+02 -0.65023445433E+01  0.36820982421E+02  0.00000000000E+00 0. -1.
         11    1    4    4    0    0  0.82832086799E+01 -0.39060694820E+01  0.11636455794E+01  0.92316301989E+01  0.51100000000E-03 0.  1.
        -11    1    4    4    0    0  0.17208075018E+02 -0.19759693868E+02  0.15980207727E+02  0.30690884426E+02  0.51100000000E-03 0. -1.
         12    1    4    4    0    0  0.67317184520E+01  0.70771409138E+01 -0.10641508764E+02  0.14444502954E+02  0.00000000000E+00 0. -1.
</event>
<event>
 8    1  0.1244838E-006  0.9118800E+02  0.7816164E-02  0.1184000E+00
        -11   -1    0    0    0    0  0.00000000000E+00  0.00000000000E+00  0.45593999997E+02  0.45594000000E+02  0.51100000000E-03 0.  1.
         11   -1    0    0    0    0 -0.00000000000E+00 -0.00000000000E+00 -0.45593999997E+02  0.45594000000E+02  0.51100000000E-03 0. -1.
         23    2    1    2    0    0 -0.44408920985E-15 -0.35527136788E-14  0.00000000000E+00  0.91188000000E+02  0.91188000000E+02 0.  0.
    9900012    2    3    3    0    0 -0.30673244159E+01 -0.26628626385E+02 -0.25244522510E+02  0.54367107303E+02  0.40000052720E+02 0.  0.
        -12    1    3    3    0    0  0.30673244159E+01  0.26628626385E+02  0.25244522510E+02  0.36820892697E+02  0.00000000000E+00 0.  1.
         11    1    4    4    0    0 -0.83133305391E+01 -0.16987853571E+02 -0.25985288099E+02  0.32139287974E+02  0.51100000000E-03 0. -1.
        -11    1    4    4    0    0 -0.24170800822E+01  0.46168775363E+01  0.27915477415E+01  0.59119009940E+01  0.51100000000E-03 0.  1.
         12    1    4    4    0    0  0.76630862053E+01 -0.14257650350E+02 -0.20507821521E+01  0.16315918335E+02  0.00000000000E+00 0. -1.
</event>
<event>
 8    1  0.1244838E-006  0.9118800E+02  0.7816164E-02  0.1184000E+00
        -11   -1    0    0    0    0  0.00000000000E+00  0.00000000000E+00  0.45593999997E+02  0.45594000000E+02  0.51100000000E-03 0.  1.
         11   -1    0    0    0    0 -0.00000000000E+00 -0.00000000000E+00 -0.45593999997E+02  0.45594000000E+02  0.51100000000E-03 0. -1.
         23    2    1    2    0    0 -0.88817841970E-15  0.17763568394E-14  0.00000000000E+00  0.91188000000E+02  0.91188000000E+02 0.  0.
    9900012    2    3    3    0    0 -0.76022471607E+01 -0.96772454976E+01  0.34703557275E+02  0.54367080269E+02  0.39999991089E+02 0.  0.
         12    1    3    3    0    0  0.76022471607E+01  0.96772454976E+01 -0.34703557275E+02  0.36820919731E+02  0.00000000000E+00 0. -1.
         11    1    4    4    0    0  0.52278734029E+01 -0.18007867931E+01  0.19491181507E+02  0.20260297387E+02  0.51100000000E-03 0. -1.
        -11    1    4    4    0    0 -0.34399727018E+01 -0.16948736157E+02  0.10462614062E+02  0.20212851426E+02  0.51100000000E-03 0.  1.
         12    1    4    4    0    0 -0.93901478618E+01  0.90722774524E+01  0.47497617053E+01  0.13893931456E+02  0.00000000000E+00 0. -1.
</event>
<event>
 8    1  0.1244838E-006  0.9118800E+02  0.7816164E-02  0.1184000E+00
        -11   -1    0    0    0    0  0.00000000000E+00  0.00000000000E+00  0.45593999997E+02  0.45594000000E+02  0.51100000000E-03 0.  1.
         11   -1    0    0    0    0 -0.00000000000E+00 -0.00000000000E+00 -0.45593999997E+02  0.45594000000E+02  0.51100000000E-03 0. -1.
         23    2    1    2    0    0  0.44408920985E-15  0.00000000000E+00  0.71054273576E-14  0.91188000000E+02  0.91188000000E+02 0.  0.
    9900012    2    3    3    0    0  0.25021377888E+01  0.15752056865E+02 -0.33187234125E+02  0.54367075272E+02  0.39999979697E+02 0.  0.
        -12    1    3    3    0    0 -0.25021377888E+01 -0.15752056865E+02  0.33187234125E+02  0.36820924728E+02  0.00000000000E+00 0.  1.
         11    1    4    4    0    0  0.15967409875E+02  0.12738108423E+01 -0.33184567483E+01  0.16358267868E+02  0.51100000000E-03 0. -1.
        -11    1    4    4    0    0  0.39214205202E+00 -0.12398756375E+01 -0.64673868473E+01  0.65968295323E+01  0.51100000000E-03 0.  1.
        -12    1    4    4    0    0 -0.13857414138E+02  0.15718121660E+02 -0.23401390529E+02  0.31411977872E+02  0.00000000000E+00 0.  1.
</event>
<event>
 8    1  0.1244838E-006  0.9118800E+02  0.7816164E-02  0.1184000E+00
        -11   -1    0    0    0    0  0.00000000000E+00  0.00000000000E+00  0.45593999997E+02  0.45594000000E+02  0.51100000000E-03 0.  1.
         11   -1    0    0    0    0 -0.00000000000E+00 -0.00000000000E+00 -0.45593999997E+02  0.45594000000E+02  0.51100000000E-03 0. -1.
         23    2    1    2    0    0  0.00000000000E+00  0.00000000000E+00 -0.26645352591E-14  0.91188000000E+02  0.91188000000E+02 0.  0.
    9900012    2    3    3    0    0  0.34462464586E+02 -0.10435804310E+02 -0.76951308732E+01  0.54367047866E+02  0.39999917219E+02 0.  0.
        -12    1    3    3    0    0 -0.34462464586E+02  0.10435804310E+02  0.76951308732E+01  0.36820952134E+02  0.00000000000E+00 0.  1.
         11    1    4    4    0    0 -0.11152686535E+01 -0.66382445607E+01 -0.94638107636E+00  0.67974813291E+01  0.51100000000E-03 0. -1.
        -11    1    4    4    0    0  0.96536639775E+01 -0.54586369129E+01  0.11381498682E+02  0.15891144001E+02  0.51100000000E-03 0.  1.
         12    1    4    4    0    0  0.25924069262E+02  0.16610771634E+01 -0.18130248479E+02  0.31678422536E+02  0.00000000000E+00 0. -1.
</event>
<event>
 8    1  0.1244838E-006  0.9118800E+02  0.7816164E-02  0.1184000E+00
        -11   -1    0    0    0    0  0.00000000000E+00  0.00000000000E+00  0.45593999997E+02  0.45594000000E+02  0.51100000000E-03 0.  1.
         11   -1    0    0    0    0 -0.00000000000E+00 -0.00000000000E+00 -0.45593999997E+02  0.45594000000E+02  0.51100000000E-03 0. -1.
         23    2    1    2    0    0  0.00000000000E+00  0.17763568394E-14  0.35527136788E-14  0.91188000000E+02  0.91188000000E+02 0.  0.
    9900012    2    3    3    0    0  0.20619849350E+02 -0.13721683647E+02  0.27245491090E+02  0.54367087816E+02  0.40000008294E+02 0.  0.
         12    1    3    3    0    0 -0.20619849350E+02  0.13721683647E+02 -0.27245491090E+02  0.36820912184E+02  0.00000000000E+00 0. -1.
         11    1    4    4    0    0 -0.25069882721E+01  0.83942251141E+01  0.60294235526E+01  0.10634940249E+02  0.51100000000E-03 0. -1.
        -11    1    4    4    0    0  0.15877181016E+02 -0.10156292979E+01  0.95384675842E+01  0.18549898760E+02  0.51100000000E-03 0.  1.
         12    1    4    4    0    0  0.72496566065E+01 -0.21100279463E+02  0.11677599954E+02  0.25182248807E+02  0.00000000000E+00 0. -1.
</event>
<event>
 8    1  0.1244838E-006  0.9118800E+02  0.7816164E-02  0.1184000E+00
        -11   -1    0    0    0    0  0.00000000000E+00  0.00000000000E+00  0.45593999997E+02  0.45594000000E+02  0.51100000000E-03 0.  1.
         11   -1    0    0    0    0 -0.00000000000E+00 -0.00000000000E+00 -0.45593999997E+02  0.45594000000E+02  0.51100000000E-03 0. -1.
         23    2    1    2    0    0  0.00000000000E+00  0.00000000000E+00  0.35527136788E-14  0.91188000000E+02  0.91188000000E+02 0.  0.
    9900012    2    3    3    0    0  0.24570883206E+02 -0.20761743793E+02  0.17916423719E+02  0.54367128939E+02  0.40000102041E+02 0.  0.
         12    1    3    3    0    0 -0.24570883206E+02  0.20761743793E+02 -0.17916423719E+02  0.36820871061E+02  0.00000000000E+00 0. -1.
         11    1    4    4    0    0  0.87373738574E+01 -0.71711416667E+01 -0.67508185719E+01  0.13165884945E+02  0.51100000000E-03 0. -1.
        -11    1    4    4    0    0  0.86219845414E+01 -0.69202507714E+01  0.28567259908E+02  0.30631957611E+02  0.51100000000E-03 0.  1.
        -12    1    4    4    0    0  0.72115248071E+01 -0.66703513546E+01 -0.39000176165E+01  0.10569286383E+02  0.00000000000E+00 0.  1.
</event>
<event>
 8    1  0.1244838E-006  0.9118800E+02  0.7816164E-02  0.1184000E+00
        -11   -1    0    0    0    0  0.00000000000E+00  0.00000000000E+00  0.45593999997E+02  0.45594000000E+02  0.51100000000E-03 0. -1.
         11   -1    0    0    0    0 -0.00000000000E+00 -0.00000000000E+00 -0.45593999997E+02  0.45594000000E+02  0.51100000000E-03 0.  1.
         23    2    1    2    0    0 -0.35527136788E-14  0.35527136788E-14 -0.35527136788E-14  0.91188000000E+02  0.91188000000E+02 0.  0.
    9900012    2    3    3    0    0 -0.13066706906E+02  0.26159536735E+02 -0.22376778705E+02  0.54367076373E+02  0.39999982207E+02 0.  0.
         12    1    3    3    0    0  0.13066706906E+02 -0.26159536735E+02  0.22376778705E+02  0.36820923627E+02  0.00000000000E+00 0. -1.
         11    1    4    4    0    0  0.43741248257E+01 -0.40598045482E+01 -0.53420832013E+01  0.80095464386E+01  0.51100000000E-03 0. -1.
        -11    1    4    4    0    0 -0.18320333310E+02  0.18644379816E+02 -0.48619894748E+00  0.26143525030E+02  0.51100000000E-03 0.  1.
         12    1    4    4    0    0  0.87950157840E+00  0.11574961467E+02 -0.16548496557E+02  0.20214004904E+02  0.00000000000E+00 0. -1.
</event>
<event>
 8    1  0.1244838E-006  0.9118800E+02  0.7816164E-02  0.1184000E+00
        -11   -1    0    0    0    0  0.00000000000E+00  0.00000000000E+00  0.45593999997E+02  0.45594000000E+02  0.51100000000E-03 0. -1.
         11   -1    0    0    0    0 -0.00000000000E+00 -0.00000000000E+00 -0.45593999997E+02  0.45594000000E+02  0.51100000000E-03 0.  1.
         23    2    1    2    0    0 -0.66613381478E-15 -0.17763568394E-14  0.00000000000E+00  0.91188000000E+02  0.91188000000E+02 0.  0.
    9900012    2    3    3    0    0 -0.13239505136E+01 -0.83192228837E+01 -0.35844331474E+02  0.54367103580E+02  0.40000044231E+02 0.  0.
         12    1    3    3    0    0  0.13239505136E+01  0.83192228837E+01  0.35844331474E+02  0.36820896420E+02  0.00000000000E+00 0. -1.
         11    1    4    4    0    0 -0.13992263903E+02 -0.85113562732E+00 -0.37898788673E+01  0.14521400176E+02  0.51100000000E-03 0. -1.
        -11    1    4    4    0    0  0.13480447231E+02 -0.12411772965E+02 -0.22157135663E+02  0.28752621215E+02  0.51100000000E-03 0.  1.
        -12    1    4    4    0    0 -0.81213384158E+00  0.49436857088E+01 -0.98973169439E+01  0.11093082189E+02  0.00000000000E+00 0.  1.
</event>
<event>
 8    1  0.1244838E-006  0.9118800E+02  0.7816164E-02  0.1184000E+00
        -11   -1    0    0    0    0  0.00000000000E+00  0.00000000000E+00  0.45593999997E+02  0.45594000000E+02  0.51100000000E-03 0. -1.
         11   -1    0    0    0    0 -0.00000000000E+00 -0.00000000000E+00 -0.45593999997E+02  0.45594000000E+02  0.51100000000E-03 0.  1.
         23    2    1    2    0    0  0.00000000000E+00  0.00000000000E+00  0.00000000000E+00  0.91188000000E+02  0.91188000000E+02 0.  0.
    9900012    2    3    3    0    0 -0.70255057811E+01 -0.28128001122E+02 -0.22698809651E+02  0.54367107314E+02  0.40000052744E+02 0.  0.
         12    1    3    3    0    0  0.70255057811E+01  0.28128001122E+02  0.22698809651E+02  0.36820892686E+02  0.00000000000E+00 0. -1.
         11    1    4    4    0    0 -0.37384760169E+01  0.16937899667E-01  0.13694063714E+01  0.39814273688E+01  0.51100000000E-03 0. -1.
        -11    1    4    4    0    0 -0.22398235431E+01 -0.34301383490E+02 -0.11320549033E+02  0.36190558845E+02  0.51100000000E-03 0.  1.
        -12    1    4    4    0    0 -0.10472062210E+01  0.61564444685E+01 -0.12747666990E+02  0.14195121100E+02  0.00000000000E+00 0.  1.
</event>
<event>
 8    1  0.1244838E-006  0.9118800E+02  0.7816164E-02  0.1184000E+00
        -11   -1    0    0    0    0  0.00000000000E+00  0.00000000000E+00  0.45593999997E+02  0.45594000000E+02  0.51100000000E-03 0.  1.
         11   -1    0    0    0    0 -0.00000000000E+00 -0.00000000000E+00 -0.45593999997E+02  0.45594000000E+02  0.51100000000E-03 0. -1.
         23    2    1    2    0    0  0.00000000000E+00  0.00000000000E+00  0.00000000000E+00  0.91188000000E+02  0.91188000000E+02 0.  0.
    9900012    2    3    3    0    0  0.14000240594E+02  0.61873688347E+01 -0.33488646516E+02  0.54367085899E+02  0.40000003923E+02 0.  0.
        -12    1    3    3    0    0 -0.14000240594E+02 -0.61873688347E+01  0.33488646516E+02  0.36820914101E+02  0.00000000000E+00 0.  1.
         11    1    4    4    0    0  0.82782433252E+01 -0.31614093333E+01 -0.15952356146E+02  0.18248328372E+02  0.51100000000E-03 0. -1.
        -11    1    4    4    0    0  0.86926831813E-01 -0.41585878470E+01 -0.20726224352E+02  0.21139484036E+02  0.51100000000E-03 0.  1.
        -12    1    4    4    0    0  0.56350704368E+01  0.13507366015E+02  0.31899339816E+01  0.14979273490E+02  0.00000000000E+00 0.  1.
</event>
<event>
 8    1  0.1244838E-006  0.9118800E+02  0.7816164E-02  0.1184000E+00
        -11   -1    0    0    0    0  0.00000000000E+00  0.00000000000E+00  0.45593999997E+02  0.45594000000E+02  0.51100000000E-03 0.  1.
         11   -1    0    0    0    0 -0.00000000000E+00 -0.00000000000E+00 -0.45593999997E+02  0.45594000000E+02  0.51100000000E-03 0. -1.
         23    2    1    2    0    0  0.35527136788E-14 -0.35527136788E-14  0.00000000000E+00  0.91188000000E+02  0.91188000000E+02 0.  0.
    9900012    2    3    3    0    0 -0.28768965066E+02  0.21292908963E+02  0.86450356948E+01  0.54367109663E+02  0.40000058099E+02 0.  0.
         12    1    3    3    0    0  0.28768965066E+02 -0.21292908963E+02 -0.86450356948E+01  0.36820890337E+02  0.00000000000E+00 0. -1.
         11    1    4    4    0    0  0.49459804667E+01  0.11492735357E+02 -0.53595170340E+00  0.12523295623E+02  0.51100000000E-03 0.  1.
        -11    1    4    4    0    0 -0.97838876602E+01  0.15135946036E+01  0.12884963499E+02  0.16249237244E+02  0.51100000000E-03 0. -1.
         12    1    4    4    0    0 -0.23931057872E+02  0.82865790020E+01 -0.37039761007E+01  0.25594576797E+02  0.00000000000E+00 0. -1.
</event>
<event>
 8    1  0.1244838E-006  0.9118800E+02  0.7816164E-02  0.1184000E+00
        -11   -1    0    0    0    0  0.00000000000E+00  0.00000000000E+00  0.45593999997E+02  0.45594000000E+02  0.51100000000E-03 0. -1.
         11   -1    0    0    0    0 -0.00000000000E+00 -0.00000000000E+00 -0.45593999997E+02  0.45594000000E+02  0.51100000000E-03 0.  1.
         23    2    1    2    0    0 -0.17763568394E-14 -0.88817841970E-15  0.00000000000E+00  0.91188000000E+02  0.91188000000E+02 0.  0.
    9900012    2    3    3    0    0 -0.11298062977E+02 -0.41737471978E+01 -0.34795310447E+02  0.54367081736E+02  0.39999994434E+02 0.  0.
         12    1    3    3    0    0  0.11298062977E+02  0.41737471978E+01  0.34795310447E+02  0.36820918264E+02  0.00000000000E+00 0. -1.
         11    1    4    4    0    0 -0.91862270847E+01 -0.11412813918E+02 -0.26907712244E+01  0.14895614779E+02  0.51100000000E-03 0. -1.
        -11    1    4    4    0    0 -0.45197273327E+00 -0.78084610820E+01 -0.11218147543E+02  0.13675641790E+02  0.51100000000E-03 0.  1.
         12    1    4    4    0    0 -0.16598631594E+01  0.15047527803E+02 -0.20886391680E+02  0.25795825168E+02  0.00000000000E+00 0. -1.
</event>
<event>
 8    1  0.1244838E-006  0.9118800E+02  0.7816164E-02  0.1184000E+00
        -11   -1    0    0    0    0  0.00000000000E+00  0.00000000000E+00  0.45593999997E+02  0.45594000000E+02  0.51100000000E-03 0.  1.
         11   -1    0    0    0    0 -0.00000000000E+00 -0.00000000000E+00 -0.45593999997E+02  0.45594000000E+02  0.51100000000E-03 0. -1.
         23    2    1    2    0    0 -0.35527136788E-14  0.00000000000E+00  0.00000000000E+00  0.91188000000E+02  0.91188000000E+02 0.  0.
    9900012    2    3    3    0    0  0.24883690369E+02 -0.98630317491E+01  0.25284422369E+02  0.54367089416E+02  0.40000011942E+02 0.  0.
         12    1    3    3    0    0 -0.24883690369E+02  0.98630317491E+01 -0.25284422369E+02  0.36820910584E+02  0.00000000000E+00 0. -1.
         11    1    4    4    0    0  0.11856563261E+02  0.18632221395E+01  0.23664323715E+00  0.12004402917E+02  0.51100000000E-03 0. -1.
        -11    1    4    4    0    0  0.58633158990E+01  0.38806847491E+01 -0.43849991073E+01  0.82865194675E+01  0.51100000000E-03 0.  1.
        -12    1    4    4    0    0  0.71638112093E+01 -0.15606938638E+02  0.29432778240E+02  0.34076167032E+02  0.00000000000E+00 0.  1.
</event>
<event>
 8    1  0.1244838E-006  0.9118800E+02  0.7816164E-02  0.1184000E+00
        -11   -1    0    0    0    0  0.00000000000E+00  0.00000000000E+00  0.45593999997E+02  0.45594000000E+02  0.51100000000E-03 0. -1.
         11   -1    0    0    0    0 -0.00000000000E+00 -0.00000000000E+00 -0.45593999997E+02  0.45594000000E+02  0.51100000000E-03 0.  1.
         23    2    1    2    0    0  0.00000000000E+00  0.00000000000E+00  0.00000000000E+00  0.91188000000E+02  0.91188000000E+02 0.  0.
    9900012    2    3    3    0    0  0.26671540316E+02 -0.19564077164E+02 -0.16175815295E+02  0.54367066028E+02  0.39999958625E+02 0.  0.
         12    1    3    3    0    0 -0.26671540316E+02  0.19564077164E+02  0.16175815295E+02  0.36820933972E+02  0.00000000000E+00 0. -1.
         11    1    4    4    0    0  0.31989658078E+00 -0.37641339805E+01  0.38654727260E+01  0.54048976033E+01  0.51100000000E-03 0. -1.
        -11    1    4    4    0    0  0.22152493912E+02  0.55510679039E+01 -0.11681018435E+02  0.25651384628E+02  0.51100000000E-03 0.  1.
        -12    1    4    4    0    0  0.41991498230E+01 -0.21351011087E+02 -0.83602695862E+01  0.23310783797E+02  0.00000000000E+00 0.  1.
</event>
<event>
 8    1  0.1244838E-006  0.9118800E+02  0.7816164E-02  0.1184000E+00
        -11   -1    0    0    0    0  0.00000000000E+00  0.00000000000E+00  0.45593999997E+02  0.45594000000E+02  0.51100000000E-03 0.  1.
         11   -1    0    0    0    0 -0.00000000000E+00 -0.00000000000E+00 -0.45593999997E+02  0.45594000000E+02  0.51100000000E-03 0. -1.
         23    2    1    2    0    0 -0.35527136788E-14  0.00000000000E+00 -0.44408920985E-15  0.91188000000E+02  0.91188000000E+02 0.  0.
    9900012    2    3    3    0    0 -0.20811677495E+02 -0.30355613418E+02 -0.10909740122E+01  0.54367090038E+02  0.40000013360E+02 0.  0.
         12    1    3    3    0    0  0.20811677495E+02  0.30355613418E+02  0.10909740122E+01  0.36820909962E+02  0.00000000000E+00 0. -1.
         11    1    4    4    0    0 -0.97696679994E+01  0.58951088595E+01 -0.30953113167E+01  0.11822845414E+02  0.51100000000E-03 0. -1.
        -11    1    4    4    0    0 -0.15492824545E+02 -0.18544225086E+02 -0.11250842620E+00  0.24164613691E+02  0.51100000000E-03 0.  1.
        -12    1    4    4    0    0  0.44508150496E+01 -0.17706497191E+02  0.21168457307E+01  0.18379630933E+02  0.00000000000E+00 0.  1.
</event>
<event>
 8    1  0.1244838E-006  0.9118800E+02  0.7816164E-02  0.1184000E+00
        -11   -1    0    0    0    0  0.00000000000E+00  0.00000000000E+00  0.45593999997E+02  0.45594000000E+02  0.51100000000E-03 0.  1.
         11   -1    0    0    0    0 -0.00000000000E+00 -0.00000000000E+00 -0.45593999997E+02  0.45594000000E+02  0.51100000000E-03 0. -1.
         23    2    1    2    0    0  0.00000000000E+00  0.00000000000E+00 -0.35527136788E-14  0.91188000000E+02  0.91188000000E+02 0.  0.
    9900012    2    3    3    0    0  0.22150416361E+02  0.20574499852E+02  0.21019726756E+02  0.54367083362E+02  0.39999998141E+02 0.  0.
         12    1    3    3    0    0 -0.22150416361E+02 -0.20574499852E+02 -0.21019726756E+02  0.36820916638E+02  0.00000000000E+00 0. -1.
         11    1    4    4    0    0  0.20572857065E+02  0.63874807994E+01 -0.22623548531E+01  0.21660115617E+02  0.51100000000E-03 0. -1.
        -11    1    4    4    0    0 -0.73395485171E+01  0.79287119004E+01  0.62295381859E+01  0.12471591362E+02  0.51100000000E-03 0.  1.
         12    1    4    4    0    0  0.89171078131E+01  0.62583071519E+01  0.17052543424E+02  0.20235376383E+02  0.00000000000E+00 0. -1.
</event>
<event>
 8    1  0.1244838E-006  0.9118800E+02  0.7816164E-02  0.1184000E+00
        -11   -1    0    0    0    0  0.00000000000E+00  0.00000000000E+00  0.45593999997E+02  0.45594000000E+02  0.51100000000E-03 0.  1.
         11   -1    0    0    0    0 -0.00000000000E+00 -0.00000000000E+00 -0.45593999997E+02  0.45594000000E+02  0.51100000000E-03 0. -1.
         23    2    1    2    0    0  0.00000000000E+00  0.26645352591E-14  0.00000000000E+00  0.91188000000E+02  0.91188000000E+02 0.  0.
    9900012    2    3    3    0    0 -0.96830150506E+01  0.53639509886E+01 -0.35117647247E+02  0.54367056247E+02  0.39999936326E+02 0.  0.
        -12    1    3    3    0    0  0.96830150506E+01 -0.53639509886E+01  0.35117647247E+02  0.36820943753E+02  0.00000000000E+00 0.  1.
         11    1    4    4    0    0  0.13070432678E+01  0.20117226518E+02 -0.11131516880E+02  0.23028717576E+02  0.51100000000E-03 0. -1.
        -11    1    4    4    0    0 -0.22286001696E+01 -0.91907535317E+01 -0.14287242453E+02  0.17133648367E+02  0.51100000000E-03 0.  1.
         12    1    4    4    0    0 -0.87614581488E+01 -0.55625219973E+01 -0.96988879140E+01  0.14204690304E+02  0.00000000000E+00 0. -1.
</event>
<event>
 8    1  0.1244838E-006  0.9118800E+02  0.7816164E-02  0.1184000E+00
        -11   -1    0    0    0    0  0.00000000000E+00  0.00000000000E+00  0.45593999997E+02  0.45594000000E+02  0.51100000000E-03 0. -1.
         11   -1    0    0    0    0 -0.00000000000E+00 -0.00000000000E+00 -0.45593999997E+02  0.45594000000E+02  0.51100000000E-03 0.  1.
         23    2    1    2    0    0 -0.17763568394E-14  0.00000000000E+00  0.00000000000E+00  0.91188000000E+02  0.91188000000E+02 0.  0.
    9900012    2    3    3    0    0 -0.42175324447E+01 -0.36356342989E+02  0.40281840344E+01  0.54366844096E+02  0.39999452683E+02 0.  0.
        -12    1    3    3    0    0  0.42175324447E+01  0.36356342989E+02 -0.40281840344E+01  0.36821155904E+02  0.00000000000E+00 0.  1.
         11    1    4    4    0    0  0.22926839131E+01 -0.79122062858E+01 -0.51364097030E+01  0.97078376961E+01  0.51100000000E-03 0. -1.
        -11    1    4    4    0    0 -0.11356685866E+02 -0.45862299772E+01 -0.82142542834E+01  0.14747263914E+02  0.51100000000E-03 0.  1.
         12    1    4    4    0    0  0.48464695078E+01 -0.23857906726E+02  0.17378848021E+02  0.29911742486E+02  0.00000000000E+00 0. -1.
</event>
<event>
 8    1  0.1244838E-006  0.9118800E+02  0.7816164E-02  0.1184000E+00
        -11   -1    0    0    0    0  0.00000000000E+00  0.00000000000E+00  0.45593999997E+02  0.45594000000E+02  0.51100000000E-03 0.  1.
         11   -1    0    0    0    0 -0.00000000000E+00 -0.00000000000E+00 -0.45593999997E+02  0.45594000000E+02  0.51100000000E-03 0. -1.
         23    2    1    2    0    0 -0.35527136788E-14  0.35527136788E-14 -0.35527136788E-14  0.91188000000E+02  0.91188000000E+02 0.  0.
    9900012    2    3    3    0    0 -0.14390899483E+02 -0.18427696053E+02 -0.28444708400E+02  0.54367090102E+02  0.40000013505E+02 0.  0.
        -12    1    3    3    0    0  0.14390899483E+02  0.18427696053E+02  0.28444708400E+02  0.36820909898E+02  0.00000000000E+00 0.  1.
         11    1    4    4    0    0 -0.11200069122E+02 -0.34144271938E+01 -0.13803348092E+02  0.18100615465E+02  0.51100000000E-03 0. -1.
        -11    1    4    4    0    0  0.78995778048E+01 -0.19402860639E+02 -0.11645128765E+02  0.23968382397E+02  0.51100000000E-03 0.  1.
        -12    1    4    4    0    0 -0.11090408166E+02  0.43895917802E+01 -0.29962315430E+01  0.12298092240E+02  0.00000000000E+00 0.  1.
</event>
<event>
 8    1  0.1244838E-006  0.9118800E+02  0.7816164E-02  0.1184000E+00
        -11   -1    0    0    0    0  0.00000000000E+00  0.00000000000E+00  0.45593999997E+02  0.45594000000E+02  0.51100000000E-03 0.  1.
         11   -1    0    0    0    0 -0.00000000000E+00 -0.00000000000E+00 -0.45593999997E+02  0.45594000000E+02  0.51100000000E-03 0. -1.
         23    2    1    2    0    0  0.44408920985E-15 -0.26645352591E-14  0.00000000000E+00  0.91188000000E+02  0.91188000000E+02 0.  0.
    9900012    2    3    3    0    0 -0.10331787007E+01 -0.77264330512E+01  0.35986180320E+02  0.54367212394E+02  0.40000292294E+02 0.  0.
         12    1    3    3    0    0  0.10331787007E+01  0.77264330512E+01 -0.35986180320E+02  0.36820787606E+02  0.00000000000E+00 0. -1.
         11    1    4    4    0    0  0.72326825153E+01  0.10503984169E+02  0.84589823799E+01  0.15303586604E+02  0.51100000000E-03 0. -1.
        -11    1    4    4    0    0  0.47789709904E+01 -0.11063980606E+02  0.78169631138E+01  0.14365066765E+02  0.51100000000E-03 0.  1.
         12    1    4    4    0    0 -0.13044832206E+02 -0.71664366140E+01  0.19710234826E+02  0.24698559025E+02  0.00000000000E+00 0. -1.
</event>
<event>
 8    1  0.1244838E-006  0.9118800E+02  0.7816164E-02  0.1184000E+00
        -11   -1    0    0    0    0  0.00000000000E+00  0.00000000000E+00  0.45593999997E+02  0.45594000000E+02  0.51100000000E-03 0.  1.
         11   -1    0    0    0    0 -0.00000000000E+00 -0.00000000000E+00 -0.45593999997E+02  0.45594000000E+02  0.51100000000E-03 0. -1.
         23    2    1    2    0    0  0.11102230246E-15  0.17763568394E-14  0.00000000000E+00  0.91188000000E+02  0.91188000000E+02 0.  0.
    9900012    2    3    3    0    0  0.35571174963E+00  0.12907944290E+02  0.34482453758E+02  0.54367066093E+02  0.39999958772E+02 0.  0.
         12    1    3    3    0    0 -0.35571174963E+00 -0.12907944290E+02 -0.34482453758E+02  0.36820933907E+02  0.00000000000E+00 0. -1.
         11    1    4    4    0    0 -0.12035368442E+00  0.11140682101E+02  0.12701198539E+02  0.16895257538E+02  0.51100000000E-03 0. -1.
        -11    1    4    4    0    0  0.69509221729E+01  0.13222174929E+02  0.42099455249E+01  0.15519821857E+02  0.51100000000E-03 0.  1.
        -12    1    4    4    0    0 -0.64748567389E+01 -0.11454912739E+02  0.17571309693E+02  0.21951986698E+02  0.00000000000E+00 0.  1.
</event>
<event>
 8    1  0.1244838E-006  0.9118800E+02  0.7816164E-02  0.1184000E+00
        -11   -1    0    0    0    0  0.00000000000E+00  0.00000000000E+00  0.45593999997E+02  0.45594000000E+02  0.51100000000E-03 0.  1.
         11   -1    0    0    0    0 -0.00000000000E+00 -0.00000000000E+00 -0.45593999997E+02  0.45594000000E+02  0.51100000000E-03 0. -1.
         23    2    1    2    0    0 -0.77715611724E-15  0.00000000000E+00 -0.17763568394E-14  0.91188000000E+02  0.91188000000E+02 0.  0.
    9900012    2    3    3    0    0 -0.74072482341E+00  0.34615739902E+02 -0.12529250838E+02  0.54367078654E+02  0.39999987407E+02 0.  0.
        -12    1    3    3    0    0  0.74072482341E+00 -0.34615739902E+02  0.12529250838E+02  0.36820921346E+02  0.00000000000E+00 0.  1.
         11    1    4    4    0    0 -0.66777557581E+01  0.61493830216E+01 -0.79712880126E+01  0.12080925724E+02  0.51100000000E-03 0. -1.
        -11    1    4    4    0    0 -0.12242809028E+02  0.15182389122E+02 -0.27688025948E+01  0.19699177151E+02  0.51100000000E-03 0.  1.
        -12    1    4    4    0    0  0.18179839963E+02  0.13283967758E+02 -0.17891602305E+01  0.22586975778E+02  0.00000000000E+00 0.  1.
</event>
<event>
 8    1  0.1244838E-006  0.9118800E+02  0.7816164E-02  0.1184000E+00
        -11   -1    0    0    0    0  0.00000000000E+00  0.00000000000E+00  0.45593999997E+02  0.45594000000E+02  0.51100000000E-03 0. -1.
         11   -1    0    0    0    0 -0.00000000000E+00 -0.00000000000E+00 -0.45593999997E+02  0.45594000000E+02  0.51100000000E-03 0.  1.
         23    2    1    2    0    0  0.00000000000E+00  0.00000000000E+00 -0.35527136788E-14  0.91188000000E+02  0.91188000000E+02 0.  0.
    9900012    2    3    3    0    0  0.11522685031E+02 -0.21412975469E+02  0.27649444450E+02  0.54367087911E+02  0.40000008510E+02 0.  0.
        -12    1    3    3    0    0 -0.11522685031E+02  0.21412975469E+02 -0.27649444450E+02  0.36820912089E+02  0.00000000000E+00 0.  1.
         11    1    4    4    0    0 -0.10429187201E+02  0.92873445274E+00  0.83152241594E+01  0.13370618776E+02  0.51100000000E-03 0. -1.
        -11    1    4    4    0    0  0.96707670411E+01 -0.92383644126E+01 -0.15369897319E+01  0.13462297348E+02  0.51100000000E-03 0.  1.
         12    1    4    4    0    0  0.12281105191E+02 -0.13103345509E+02  0.20871210022E+02  0.27534171787E+02  0.00000000000E+00 0. -1.
</event>
<event>
 8    1  0.1244838E-006  0.9118800E+02  0.7816164E-02  0.1184000E+00
        -11   -1    0    0    0    0  0.00000000000E+00  0.00000000000E+00  0.45593999997E+02  0.45594000000E+02  0.51100000000E-03 0.  1.
         11   -1    0    0    0    0 -0.00000000000E+00 -0.00000000000E+00 -0.45593999997E+02  0.45594000000E+02  0.51100000000E-03 0. -1.
         23    2    1    2    0    0 -0.17763568394E-14  0.00000000000E+00  0.35527136788E-14  0.91188000000E+02  0.91188000000E+02 0.  0.
    9900012    2    3    3    0    0 -0.10354911291E+02  0.19168930177E+02 -0.29683470442E+02  0.54367075385E+02  0.39999979956E+02 0.  0.
        -12    1    3    3    0    0  0.10354911291E+02 -0.19168930177E+02  0.29683470442E+02  0.36820924615E+02  0.00000000000E+00 0.  1.
         11    1    4    4    0    0 -0.12587744233E+02  0.16149553600E+02 -0.16943370990E+01  0.20545806502E+02  0.51100000000E-03 0. -1.
        -11    1    4    4    0    0  0.84713180069E+01  0.73202879480E+01 -0.14151381161E+02  0.18044706521E+02  0.51100000000E-03 0.  1.
        -12    1    4    4    0    0 -0.62384850654E+01 -0.43009113705E+01 -0.13837752183E+02  0.15776562363E+02  0.00000000000E+00 0.  1.
</event>
<event>
 8    1  0.1244838E-006  0.9118800E+02  0.7816164E-02  0.1184000E+00
        -11   -1    0    0    0    0  0.00000000000E+00  0.00000000000E+00  0.45593999997E+02  0.45594000000E+02  0.51100000000E-03 0. -1.
         11   -1    0    0    0    0 -0.00000000000E+00 -0.00000000000E+00 -0.45593999997E+02  0.45594000000E+02  0.51100000000E-03 0.  1.
         23    2    1    2    0    0  0.00000000000E+00  0.00000000000E+00  0.35527136788E-14  0.91188000000E+02  0.91188000000E+02 0.  0.
    9900012    2    3    3    0    0 -0.15690778031E+02 -0.10753607942E+02  0.31526793572E+02  0.54367091376E+02  0.40000016409E+02 0.  0.
        -12    1    3    3    0    0  0.15690778031E+02  0.10753607942E+02 -0.31526793572E+02  0.36820908624E+02  0.00000000000E+00 0.  1.
         11    1    4    4    0    0  0.88242493570E+00 -0.10881057179E+02  0.17247414283E+02  0.20411991055E+02  0.51100000000E-03 0.  1.
        -11    1    4    4    0    0 -0.64892463633E+00 -0.96724847615E+01  0.11517170101E+02  0.15054011826E+02  0.51100000000E-03 0. -1.
        -12    1    4    4    0    0 -0.15924278330E+02  0.97999339987E+01  0.27622091880E+01  0.18901088495E+02  0.00000000000E+00 0.  1.
</event>
<event>
 8    1  0.1244838E-006  0.9118800E+02  0.7816164E-02  0.1184000E+00
        -11   -1    0    0    0    0  0.00000000000E+00  0.00000000000E+00  0.45593999997E+02  0.45594000000E+02  0.51100000000E-03 0.  1.
         11   -1    0    0    0    0 -0.00000000000E+00 -0.00000000000E+00 -0.45593999997E+02  0.45594000000E+02  0.51100000000E-03 0. -1.
         23    2    1    2    0    0  0.17763568394E-14 -0.35527136788E-14  0.00000000000E+00  0.91188000000E+02  0.91188000000E+02 0.  0.
    9900012    2    3    3    0    0 -0.81433418101E+01  0.30382069480E+02 -0.19141498430E+02  0.54367066771E+02  0.39999960318E+02 0.  0.
        -12    1    3    3    0    0  0.81433418101E+01 -0.30382069480E+02  0.19141498430E+02  0.36820933229E+02  0.00000000000E+00 0.  1.
         11    1    4    4    0    0  0.21239837728E+01  0.18645960805E+02 -0.10867001244E+02  0.21685822044E+02  0.51100000000E-03 0. -1.
        -11    1    4    4    0    0  0.74483902237E+00  0.96050773048E+01 -0.16268888141E+02  0.18907379956E+02  0.51100000000E-03 0.  1.
        -12    1    4    4    0    0 -0.11012164605E+02  0.21310313701E+01  0.79943909551E+01  0.13773864771E+02  0.00000000000E+00 0.  1.
</event>
<event>
 8    1  0.1244838E-006  0.9118800E+02  0.7816164E-02  0.1184000E+00
        -11   -1    0    0    0    0  0.00000000000E+00  0.00000000000E+00  0.45593999997E+02  0.45594000000E+02  0.51100000000E-03 0. -1.
         11   -1    0    0    0    0 -0.00000000000E+00 -0.00000000000E+00 -0.45593999997E+02  0.45594000000E+02  0.51100000000E-03 0.  1.
         23    2    1    2    0    0  0.00000000000E+00  0.88817841970E-15  0.71054273576E-14  0.91188000000E+02  0.91188000000E+02 0.  0.
    9900012    2    3    3    0    0 -0.32694791661E+02  0.32491988260E+01  0.16621424509E+02  0.54367103114E+02  0.40000043169E+02 0.  0.
        -12    1    3    3    0    0  0.32694791661E+02 -0.32491988260E+01 -0.16621424509E+02  0.36820896886E+02  0.00000000000E+00 0.  1.
         11    1    4    4    0    0 -0.12848201867E+02  0.14438505478E+02 -0.67717527009E+01  0.20479339993E+02  0.51100000000E-03 0. -1.
        -11    1    4    4    0    0 -0.11067238427E+02 -0.11035496002E+02  0.16477684310E+02  0.22710790802E+02  0.51100000000E-03 0.  1.
         12    1    4    4    0    0 -0.87793513677E+01 -0.15381065032E+00  0.69154929006E+01  0.11176972319E+02  0.00000000000E+00 0. -1.
</event>
<event>
 8    1  0.1244838E-006  0.9118800E+02  0.7816164E-02  0.1184000E+00
        -11   -1    0    0    0    0  0.00000000000E+00  0.00000000000E+00  0.45593999997E+02  0.45594000000E+02  0.51100000000E-03 0. -1.
         11   -1    0    0    0    0 -0.00000000000E+00 -0.00000000000E+00 -0.45593999997E+02  0.45594000000E+02  0.51100000000E-03 0.  1.
         23    2    1    2    0    0  0.00000000000E+00  0.13322676296E-14  0.35527136788E-14  0.91188000000E+02  0.91188000000E+02 0.  0.
    9900012    2    3    3    0    0  0.32813896268E+02 -0.25690170690E+01 -0.16505414196E+02  0.54367077487E+02  0.39999984746E+02 0.  0.
         12    1    3    3    0    0 -0.32813896268E+02  0.25690170690E+01  0.16505414196E+02  0.36820922513E+02  0.00000000000E+00 0. -1.
         11    1    4    4    0    0  0.42820248934E+01  0.66952434533E+01 -0.17158456558E+02  0.18909644465E+02  0.51100000000E-03 0. -1.
        -11    1    4    4    0    0  0.24646818140E+02 -0.12410969155E+01  0.55388707788E+01  0.25291995883E+02  0.51100000000E-03 0.  1.
        -12    1    4    4    0    0  0.38850532336E+01 -0.80231636068E+01 -0.48858284164E+01  0.10165437138E+02  0.00000000000E+00 0.  1.
</event>
<event>
 8    1  0.1244838E-006  0.9118800E+02  0.7816164E-02  0.1184000E+00
        -11   -1    0    0    0    0  0.00000000000E+00  0.00000000000E+00  0.45593999997E+02  0.45594000000E+02  0.51100000000E-03 0.  1.
         11   -1    0    0    0    0 -0.00000000000E+00 -0.00000000000E+00 -0.45593999997E+02  0.45594000000E+02  0.51100000000E-03 0. -1.
         23    2    1    2    0    0 -0.35527136788E-14 -0.17763568394E-14  0.00000000000E+00  0.91188000000E+02  0.91188000000E+02 0.  0.
    9900012    2    3    3    0    0  0.29116018766E+02  0.14146510386E+02  0.17547479073E+02  0.54367077595E+02  0.39999984994E+02 0.  0.
         12    1    3    3    0    0 -0.29116018766E+02 -0.14146510386E+02 -0.17547479073E+02  0.36820922405E+02  0.00000000000E+00 0. -1.
         11    1    4    4    0    0  0.41534665881E+01  0.10582610878E+02  0.98837948347E+01  0.15064273573E+02  0.51100000000E-03 0.  1.
        -11    1    4    4    0    0  0.15296205891E+02  0.36585317575E+01  0.18829498467E+02  0.24533829339E+02  0.51100000000E-03 0. -1.
         12    1    4    4    0    0  0.96663462869E+01 -0.94632248728E-01 -0.11165814229E+02  0.14768974683E+02  0.00000000000E+00 0. -1.
</event>
<event>
 8    1  0.1244838E-006  0.9118800E+02  0.7816164E-02  0.1184000E+00
        -11   -1    0    0    0    0  0.00000000000E+00  0.00000000000E+00  0.45593999997E+02  0.45594000000E+02  0.51100000000E-03 0.  1.
         11   -1    0    0    0    0 -0.00000000000E+00 -0.00000000000E+00 -0.45593999997E+02  0.45594000000E+02  0.51100000000E-03 0. -1.
         23    2    1    2    0    0  0.17763568394E-14  0.00000000000E+00  0.00000000000E+00  0.91188000000E+02  0.91188000000E+02 0.  0.
    9900012    2    3    3    0    0 -0.94314753469E+01  0.17937197188E+02  0.30742218912E+02  0.54367084832E+02  0.40000001492E+02 0.  0.
        -12    1    3    3    0    0  0.94314753469E+01 -0.17937197188E+02 -0.30742218912E+02  0.36820915168E+02  0.00000000000E+00 0.  1.
         11    1    4    4    0    0  0.10774496796E+02  0.13079336856E+02  0.91248674232E+01  0.19246351331E+02  0.51100000000E-03 0. -1.
        -11    1    4    4    0    0 -0.59059064471E+01 -0.31077452807E+01  0.16770019932E+02  0.18049137943E+02  0.51100000000E-03 0.  1.
         12    1    4    4    0    0 -0.14300065696E+02  0.79656056120E+01  0.48473315563E+01  0.17071595558E+02  0.00000000000E+00 0. -1.
</event>
<event>
 8    1  0.1244838E-006  0.9118800E+02  0.7816164E-02  0.1184000E+00
        -11   -1    0    0    0    0  0.00000000000E+00  0.00000000000E+00  0.45593999997E+02  0.45594000000E+02  0.51100000000E-03 0.  1.
         11   -1    0    0    0    0 -0.00000000000E+00 -0.00000000000E+00 -0.45593999997E+02  0.45594000000E+02  0.51100000000E-03 0. -1.
         23    2    1    2    0    0  0.00000000000E+00  0.00000000000E+00 -0.44408920985E-15  0.91188000000E+02  0.91188000000E+02 0.  0.
    9900012    2    3    3    0    0  0.33520023893E+02 -0.14897487890E+02 -0.32019214756E+01  0.54367089523E+02  0.40000012186E+02 0.  0.
         12    1    3    3    0    0 -0.33520023893E+02  0.14897487890E+02  0.32019214756E+01  0.36820910477E+02  0.00000000000E+00 0. -1.
         11    1    4    4    0    0  0.18136016402E+02 -0.14215727323E+02 -0.78366367010E+01  0.24339574140E+02  0.51100000000E-03 0. -1.
        -11    1    4    4    0    0  0.67602273710E+01 -0.12933981101E+02  0.34599359456E+01  0.14998656547E+02  0.51100000000E-03 0.  1.
         12    1    4    4    0    0  0.86237801200E+01  0.12252220534E+02  0.11747792799E+01  0.15028858836E+02  0.00000000000E+00 0. -1.
</event>
<event>
 8    1  0.1244838E-006  0.9118800E+02  0.7816164E-02  0.1184000E+00
        -11   -1    0    0    0    0  0.00000000000E+00  0.00000000000E+00  0.45593999997E+02  0.45594000000E+02  0.51100000000E-03 0.  1.
         11   -1    0    0    0    0 -0.00000000000E+00 -0.00000000000E+00 -0.45593999997E+02  0.45594000000E+02  0.51100000000E-03 0. -1.
         23    2    1    2    0    0  0.35527136788E-14 -0.35527136788E-14  0.22204460493E-15  0.91188000000E+02  0.91188000000E+02 0.  0.
    9900012    2    3    3    0    0 -0.28557614616E+02 -0.23238742235E+02 -0.45091023329E+00  0.54367084568E+02  0.40000000890E+02 0.  0.
         12    1    3    3    0    0  0.28557614616E+02  0.23238742235E+02  0.45091023329E+00  0.36820915432E+02  0.00000000000E+00 0. -1.
         11    1    4    4    0    0 -0.44315569593E+01  0.98686874489E+01  0.64747626661E+01  0.12607626299E+02  0.51100000000E-03 0. -1.
        -11    1    4    4    0    0 -0.11299932999E+02 -0.12142523707E+02 -0.33792128996E+01  0.16927741959E+02  0.51100000000E-03 0.  1.
        -12    1    4    4    0    0 -0.12826124657E+02 -0.20964905978E+02 -0.35464599997E+01  0.24831716310E+02  0.00000000000E+00 0.  1.
</event>
<event>
 8    1  0.1244838E-006  0.9118800E+02  0.7816164E-02  0.1184000E+00
        -11   -1    0    0    0    0  0.00000000000E+00  0.00000000000E+00  0.45593999997E+02  0.45594000000E+02  0.51100000000E-03 0. -1.
         11   -1    0    0    0    0 -0.00000000000E+00 -0.00000000000E+00 -0.45593999997E+02  0.45594000000E+02  0.51100000000E-03 0.  1.
         23    2    1    2    0    0 -0.71054273576E-14  0.17763568394E-14  0.71054273576E-14  0.91188000000E+02  0.91188000000E+02 0.  0.
    9900012    2    3    3    0    0 -0.28697039689E+02  0.57476824686E+01  0.22343315650E+02  0.54367086175E+02  0.40000004553E+02 0.  0.
        -12    1    3    3    0    0  0.28697039689E+02 -0.57476824686E+01 -0.22343315650E+02  0.36820913825E+02  0.00000000000E+00 0.  1.
         11    1    4    4    0    0 -0.11151791762E+02 -0.43409794383E+01 -0.24648738595E+01  0.12218108094E+02  0.51100000000E-03 0. -1.
        -11    1    4    4    0    0 -0.48663657932E+01 -0.77431921330E+01  0.10049986595E+00  0.91459630945E+01  0.51100000000E-03 0.  1.
         12    1    4    4    0    0 -0.12678882133E+02  0.17831854040E+02  0.24707689644E+02  0.33003014986E+02  0.00000000000E+00 0. -1.
</event>
<event>
 8    1  0.1244838E-006  0.9118800E+02  0.7816164E-02  0.1184000E+00
        -11   -1    0    0    0    0  0.00000000000E+00  0.00000000000E+00  0.45593999997E+02  0.45594000000E+02  0.51100000000E-03 0.  1.
         11   -1    0    0    0    0 -0.00000000000E+00 -0.00000000000E+00 -0.45593999997E+02  0.45594000000E+02  0.51100000000E-03 0. -1.
         23    2    1    2    0    0 -0.35527136788E-14  0.35527136788E-14  0.35527136788E-14  0.91188000000E+02  0.91188000000E+02 0.  0.
    9900012    2    3    3    0    0  0.24897817983E+02  0.15688632075E+02  0.22130202559E+02  0.54367076844E+02  0.39999983282E+02 0.  0.
         12    1    3    3    0    0 -0.24897817983E+02 -0.15688632075E+02 -0.22130202559E+02  0.36820923156E+02  0.00000000000E+00 0. -1.
         11    1    4    4    0    0 -0.99784147398E+00 -0.58042891937E+01  0.13364030395E+02  0.14604203823E+02  0.51100000000E-03 0. -1.
        -11    1    4    4    0    0 -0.83266532404E+00 -0.26074492400E+01  0.11904949568E+01  0.29848620712E+01  0.51100000000E-03 0.  1.
         12    1    4    4    0    0  0.26728324781E+02  0.24100370509E+02  0.75756772078E+01  0.36778010950E+02  0.00000000000E+00 0. -1.
</event>
<event>
 8    1  0.1244838E-006  0.9118800E+02  0.7816164E-02  0.1184000E+00
        -11   -1    0    0    0    0  0.00000000000E+00  0.00000000000E+00  0.45593999997E+02  0.45594000000E+02  0.51100000000E-03 0.  1.
         11   -1    0    0    0    0 -0.00000000000E+00 -0.00000000000E+00 -0.45593999997E+02  0.45594000000E+02  0.51100000000E-03 0. -1.
         23    2    1    2    0    0  0.17763568394E-14  0.35527136788E-14  0.35527136788E-14  0.91188000000E+02  0.91188000000E+02 0.  0.
    9900012    2    3    3    0    0 -0.14269478396E+02 -0.19244916381E+02 -0.27960481966E+02  0.54367172035E+02  0.40000200289E+02 0.  0.
        -12    1    3    3    0    0  0.14269478396E+02  0.19244916381E+02  0.27960481966E+02  0.36820827965E+02  0.00000000000E+00 0.  1.
         11    1    4    4    0    0 -0.71572988206E+01  0.87866719569E+01 -0.30918432174E+00  0.11337024552E+02  0.51100000000E-03 0. -1.
        -11    1    4    4    0    0 -0.50540083454E+01 -0.45184110462E+00 -0.63089194527E+01  0.80962723312E+01  0.51100000000E-03 0.  1.
        -12    1    4    4    0    0 -0.20581712304E+01 -0.27579747234E+02 -0.21342378191E+02  0.34933875152E+02  0.00000000000E+00 0.  1.
</event>
<event>
 8    1  0.1244838E-006  0.9118800E+02  0.7816164E-02  0.1184000E+00
        -11   -1    0    0    0    0  0.00000000000E+00  0.00000000000E+00  0.45593999997E+02  0.45594000000E+02  0.51100000000E-03 0.  1.
         11   -1    0    0    0    0 -0.00000000000E+00 -0.00000000000E+00 -0.45593999997E+02  0.45594000000E+02  0.51100000000E-03 0. -1.
         23    2    1    2    0    0  0.17763568394E-14 -0.88817841970E-15  0.00000000000E+00  0.91188000000E+02  0.91188000000E+02 0.  0.
    9900012    2    3    3    0    0  0.99712087007E+01 -0.60870563257E+01 -0.34918529160E+02  0.54367069317E+02  0.39999966123E+02 0.  0.
        -12    1    3    3    0    0 -0.99712087007E+01  0.60870563257E+01  0.34918529160E+02  0.36820930683E+02  0.00000000000E+00 0.  1.
         11    1    4    4    0    0  0.98056703934E+01 -0.63930512508E+01 -0.27766686394E+02  0.30133223354E+02  0.51100000000E-03 0.  1.
        -11    1    4    4    0    0 -0.47383611742E+01  0.72633845431E+00 -0.14566096858E+02  0.15334627876E+02  0.51100000000E-03 0. -1.
        -12    1    4    4    0    0  0.49038994815E+01 -0.42034352923E+00  0.74142540924E+01  0.88992180867E+01  0.00000000000E+00 0.  1.
</event>
<event>
 8    1  0.1244838E-006  0.9118800E+02  0.7816164E-02  0.1184000E+00
        -11   -1    0    0    0    0  0.00000000000E+00  0.00000000000E+00  0.45593999997E+02  0.45594000000E+02  0.51100000000E-03 0.  1.
         11   -1    0    0    0    0 -0.00000000000E+00 -0.00000000000E+00 -0.45593999997E+02  0.45594000000E+02  0.51100000000E-03 0. -1.
         23    2    1    2    0    0  0.00000000000E+00  0.17763568394E-14  0.00000000000E+00  0.91188000000E+02  0.91188000000E+02 0.  0.
    9900012    2    3    3    0    0  0.58424973868E+01  0.10368546954E+02 -0.34844494791E+02  0.54367077159E+02  0.39999983999E+02 0.  0.
        -12    1    3    3    0    0 -0.58424973868E+01 -0.10368546954E+02  0.34844494791E+02  0.36820922841E+02  0.00000000000E+00 0.  1.
         11    1    4    4    0    0  0.13634996930E+01  0.17400093665E+02 -0.19404294734E+02  0.26098832260E+02  0.51100000000E-03 0. -1.
        -11    1    4    4    0    0  0.12069471327E+00  0.80080759124E+01 -0.56460956339E+01  0.97990939990E+01  0.51100000000E-03 0.  1.
         12    1    4    4    0    0  0.43583029806E+01 -0.15039622623E+02 -0.97941044228E+01  0.18469150900E+02  0.00000000000E+00 0. -1.
</event>
<event>
 8    1  0.1244838E-006  0.9118800E+02  0.7816164E-02  0.1184000E+00
        -11   -1    0    0    0    0  0.00000000000E+00  0.00000000000E+00  0.45593999997E+02  0.45594000000E+02  0.51100000000E-03 0. -1.
         11   -1    0    0    0    0 -0.00000000000E+00 -0.00000000000E+00 -0.45593999997E+02  0.45594000000E+02  0.51100000000E-03 0.  1.
         23    2    1    2    0    0  0.71054273576E-14  0.00000000000E+00  0.44408920985E-14  0.91188000000E+02  0.91188000000E+02 0.  0.
    9900012    2    3    3    0    0 -0.34931875845E+02 -0.10166783381E+02 -0.56727168588E+01  0.54367093561E+02  0.40000021392E+02 0.  0.
        -12    1    3    3    0    0  0.34931875845E+02  0.10166783381E+02  0.56727168588E+01  0.36820906439E+02  0.00000000000E+00 0.  1.
         11    1    4    4    0    0 -0.29081909542E+02 -0.57101161113E+01 -0.65744105927E+01  0.30357631059E+02  0.51100000000E-03 0. -1.
        -11    1    4    4    0    0 -0.32059880574E+01  0.28374445825E+01  0.10692215374E+02  0.11517504983E+02  0.51100000000E-03 0.  1.
        -12    1    4    4    0    0 -0.26439782460E+01 -0.72941118524E+01 -0.97905216397E+01  0.12491957519E+02  0.00000000000E+00 0.  1.
</event>
<event>
 8    1  0.1244838E-006  0.9118800E+02  0.7816164E-02  0.1184000E+00
        -11   -1    0    0    0    0  0.00000000000E+00  0.00000000000E+00  0.45593999997E+02  0.45594000000E+02  0.51100000000E-03 0.  1.
         11   -1    0    0    0    0 -0.00000000000E+00 -0.00000000000E+00 -0.45593999997E+02  0.45594000000E+02  0.51100000000E-03 0. -1.
         23    2    1    2    0    0  0.66613381478E-15  0.00000000000E+00  0.00000000000E+00  0.91188000000E+02  0.91188000000E+02 0.  0.
    9900012    2    3    3    0    0  0.78108215778E+00  0.20157514631E+02  0.30803318466E+02  0.54367083200E+02  0.39999997772E+02 0.  0.
         12    1    3    3    0    0 -0.78108215778E+00 -0.20157514631E+02 -0.30803318466E+02  0.36820916800E+02  0.00000000000E+00 0. -1.
         11    1    4    4    0    0 -0.67051552394E+01 -0.74598474663E+01  0.65066321976E+01  0.11955948052E+02  0.51100000000E-03 0. -1.
        -11    1    4    4    0    0  0.20449956368E+01  0.27505960531E+02  0.24602708622E+02  0.36960156164E+02  0.51100000000E-03 0.  1.
         12    1    4    4    0    0  0.54412417604E+01  0.11140156634E+00 -0.30602235330E+00  0.54509789841E+01  0.00000000000E+00 0. -1.
</event>
<event>
 8    1  0.1244838E-006  0.9118800E+02  0.7816164E-02  0.1184000E+00
        -11   -1    0    0    0    0  0.00000000000E+00  0.00000000000E+00  0.45593999997E+02  0.45594000000E+02  0.51100000000E-03 0. -1.
         11   -1    0    0    0    0 -0.00000000000E+00 -0.00000000000E+00 -0.45593999997E+02  0.45594000000E+02  0.51100000000E-03 0.  1.
         23    2    1    2    0    0  0.00000000000E+00  0.00000000000E+00  0.00000000000E+00  0.91188000000E+02  0.91188000000E+02 0.  0.
    9900012    2    3    3    0    0  0.16501007029E+02  0.19092648027E+02 -0.26813570420E+02  0.54367082028E+02  0.39999995098E+02 0.  0.
         12    1    3    3    0    0 -0.16501007029E+02 -0.19092648027E+02  0.26813570420E+02  0.36820917972E+02  0.00000000000E+00 0. -1.
         11    1    4    4    0    0  0.66035006676E+01  0.13881185967E+02 -0.30888033592E+01  0.15679102378E+02  0.51100000000E-03 0. -1.
        -11    1    4    4    0    0  0.17615842978E+02  0.94122791391E+01 -0.22034665384E+02  0.29739458658E+02  0.51100000000E-03 0.  1.
        -12    1    4    4    0    0 -0.77183366170E+01 -0.42008170785E+01 -0.16901016765E+01  0.89485209917E+01  0.00000000000E+00 0.  1.
</event>
<event>
 8    1  0.1244838E-006  0.9118800E+02  0.7816164E-02  0.1184000E+00
        -11   -1    0    0    0    0  0.00000000000E+00  0.00000000000E+00  0.45593999997E+02  0.45594000000E+02  0.51100000000E-03 0.  1.
         11   -1    0    0    0    0 -0.00000000000E+00 -0.00000000000E+00 -0.45593999997E+02  0.45594000000E+02  0.51100000000E-03 0. -1.
         23    2    1    2    0    0  0.44408920985E-15  0.66613381478E-15 -0.71054273576E-14  0.91188000000E+02  0.91188000000E+02 0.  0.
    9900012    2    3    3    0    0 -0.15398936931E+01  0.10147079436E+01  0.36774703791E+02  0.54367085512E+02  0.40000003042E+02 0.  0.
         12    1    3    3    0    0  0.15398936931E+01 -0.10147079436E+01 -0.36774703791E+02  0.36820914488E+02  0.00000000000E+00 0. -1.
         11    1    4    4    0    0  0.83973619646E+00 -0.17741531054E+01 -0.52858683941E+01  0.56385442325E+01  0.51100000000E-03 0. -1.
        -11    1    4    4    0    0  0.48911554439E+01 -0.80877402172E+01  0.85135906684E+01  0.12720698476E+02  0.51100000000E-03 0.  1.
        -12    1    4    4    0    0 -0.72707853335E+01  0.10876601266E+02  0.33546981517E+02  0.36007842803E+02  0.00000000000E+00 0.  1.
</event>
<event>
 8    1  0.1244838E-006  0.9118800E+02  0.7816164E-02  0.1184000E+00
        -11   -1    0    0    0    0  0.00000000000E+00  0.00000000000E+00  0.45593999997E+02  0.45594000000E+02  0.51100000000E-03 0.  1.
         11   -1    0    0    0    0 -0.00000000000E+00 -0.00000000000E+00 -0.45593999997E+02  0.45594000000E+02  0.51100000000E-03 0. -1.
         23    2    1    2    0    0 -0.88817841970E-15 -0.88817841970E-15  0.00000000000E+00  0.91188000000E+02  0.91188000000E+02 0.  0.
    9900012    2    3    3    0    0  0.72482674059E+01  0.31739937980E+01  0.35960651567E+02  0.54367080971E+02  0.39999992689E+02 0.  0.
         12    1    3    3    0    0 -0.72482674059E+01 -0.31739937980E+01 -0.35960651567E+02  0.36820919029E+02  0.00000000000E+00 0. -1.
         11    1    4    4    0    0  0.54126113417E+00 -0.26177806768E+01 -0.76651970162E+00  0.27808797172E+01  0.51100000000E-03 0. -1.
        -11    1    4    4    0    0 -0.30821137872E+01  0.13588118180E+02  0.36500828261E+02  0.39069768941E+02  0.51100000000E-03 0.  1.
        -12    1    4    4    0    0  0.97891200589E+01 -0.77963437050E+01  0.22634300766E+00  0.12516432313E+02  0.00000000000E+00 0.  1.
</event>
<event>
 8    1  0.1244838E-006  0.9118800E+02  0.7816164E-02  0.1184000E+00
        -11   -1    0    0    0    0  0.00000000000E+00  0.00000000000E+00  0.45593999997E+02  0.45594000000E+02  0.51100000000E-03 0. -1.
         11   -1    0    0    0    0 -0.00000000000E+00 -0.00000000000E+00 -0.45593999997E+02  0.45594000000E+02  0.51100000000E-03 0.  1.
         23    2    1    2    0    0  0.00000000000E+00  0.00000000000E+00 -0.35527136788E-14  0.91188000000E+02  0.91188000000E+02 0.  0.
    9900012    2    3    3    0    0  0.29421597359E+02  0.14846270771E+02 -0.16423635421E+02  0.54367109905E+02  0.40000058650E+02 0.  0.
         12    1    3    3    0    0 -0.29421597359E+02 -0.14846270771E+02  0.16423635421E+02  0.36820890095E+02  0.00000000000E+00 0. -1.
         11    1    4    4    0    0  0.35702277397E+01  0.27642041869E+01  0.90109697970E+00  0.46042726817E+01  0.51100000000E-03 0. -1.
        -11    1    4    4    0    0  0.10840896592E+02 -0.40233421859E+00 -0.26169619857E+02  0.28329064853E+02  0.51100000000E-03 0.  1.
        -12    1    4    4    0    0  0.15010473027E+02  0.12484400803E+02  0.88448874559E+01  0.21433772370E+02  0.00000000000E+00 0.  1.
</event>
<event>
 8    1  0.1244838E-006  0.9118800E+02  0.7816164E-02  0.1184000E+00
        -11   -1    0    0    0    0  0.00000000000E+00  0.00000000000E+00  0.45593999997E+02  0.45594000000E+02  0.51100000000E-03 0.  1.
         11   -1    0    0    0    0 -0.00000000000E+00 -0.00000000000E+00 -0.45593999997E+02  0.45594000000E+02  0.51100000000E-03 0. -1.
         23    2    1    2    0    0  0.35527136788E-14  0.35527136788E-14 -0.71054273576E-14  0.91188000000E+02  0.91188000000E+02 0.  0.
    9900012    2    3    3    0    0  0.25088706644E+02  0.90636416100E+01 -0.25381139550E+02  0.54366877731E+02  0.39999529360E+02 0.  0.
        -12    1    3    3    0    0 -0.25088706644E+02 -0.90636416100E+01  0.25381139550E+02  0.36821122269E+02  0.00000000000E+00 0.  1.
         11    1    4    4    0    0  0.22579131640E+01  0.44191136146E+01 -0.11917890638E+02  0.12909796843E+02  0.51100000000E-03 0. -1.
        -11    1    4    4    0    0  0.65431136126E+01 -0.11806187509E+02  0.19604738486E+01  0.13639716170E+02  0.51100000000E-03 0.  1.
        -12    1    4    4    0    0  0.16287679868E+02  0.16450715504E+02 -0.15423722760E+02  0.27817364718E+02  0.00000000000E+00 0.  1.
</event>
<event>
 8    1  0.1244838E-006  0.9118800E+02  0.7816164E-02  0.1184000E+00
        -11   -1    0    0    0    0  0.00000000000E+00  0.00000000000E+00  0.45593999997E+02  0.45594000000E+02  0.51100000000E-03 0.  1.
         11   -1    0    0    0    0 -0.00000000000E+00 -0.00000000000E+00 -0.45593999997E+02  0.45594000000E+02  0.51100000000E-03 0. -1.
         23    2    1    2    0    0  0.35527136788E-14 -0.26645352591E-14  0.00000000000E+00  0.91188000000E+02  0.91188000000E+02 0.  0.
    9900012    2    3    3    0    0 -0.28797648135E+02 -0.29798005409E+01  0.22750754618E+02  0.54367074087E+02  0.39999976996E+02 0.  0.
         12    1    3    3    0    0  0.28797648135E+02  0.29798005409E+01 -0.22750754618E+02  0.36820925913E+02  0.00000000000E+00 0. -1.
         11    1    4    4    0    0  0.38488656401E+01 -0.12870917692E+02  0.18614450013E+01  0.13562421123E+02  0.51100000000E-03 0. -1.
        -11    1    4    4    0    0 -0.60988847576E+01  0.36674200322E+01  0.77987033033E+01  0.10557752528E+02  0.51100000000E-03 0.  1.
         12    1    4    4    0    0 -0.26547629018E+02  0.62236971193E+01  0.13090606313E+02  0.30246900436E+02  0.00000000000E+00 0. -1.
</event>
<event>
 8    1  0.1244838E-006  0.9118800E+02  0.7816164E-02  0.1184000E+00
        -11   -1    0    0    0    0  0.00000000000E+00  0.00000000000E+00  0.45593999997E+02  0.45594000000E+02  0.51100000000E-03 0. -1.
         11   -1    0    0    0    0 -0.00000000000E+00 -0.00000000000E+00 -0.45593999997E+02  0.45594000000E+02  0.51100000000E-03 0.  1.
         23    2    1    2    0    0  0.00000000000E+00  0.00000000000E+00 -0.35527136788E-14  0.91188000000E+02  0.91188000000E+02 0.  0.
    9900012    2    3    3    0    0  0.85918798346E+01 -0.31865717859E+02 -0.16325878735E+02  0.54367099818E+02  0.40000035655E+02 0.  0.
         12    1    3    3    0    0 -0.85918798346E+01  0.31865717859E+02  0.16325878735E+02  0.36820900182E+02  0.00000000000E+00 0. -1.
         11    1    4    4    0    0 -0.86933164541E+01 -0.81600358626E+01 -0.65208469652E+01  0.13589752818E+02  0.51100000000E-03 0. -1.
        -11    1    4    4    0    0 -0.49110676962E+01 -0.13044566767E+02  0.81223148890E+00  0.13962056736E+02  0.51100000000E-03 0.  1.
        -12    1    4    4    0    0  0.22196263985E+02 -0.10661115230E+02 -0.10617263258E+02  0.26815290264E+02  0.00000000000E+00 0.  1.
</event>
<event>
 8    1  0.1244838E-006  0.9118800E+02  0.7816164E-02  0.1184000E+00
        -11   -1    0    0    0    0  0.00000000000E+00  0.00000000000E+00  0.45593999997E+02  0.45594000000E+02  0.51100000000E-03 0.  1.
         11   -1    0    0    0    0 -0.00000000000E+00 -0.00000000000E+00 -0.45593999997E+02  0.45594000000E+02  0.51100000000E-03 0. -1.
         23    2    1    2    0    0  0.00000000000E+00  0.35527136788E-14 -0.35527136788E-14  0.91188000000E+02  0.91188000000E+02 0.  0.
    9900012    2    3    3    0    0  0.10579300351E+02 -0.26990964250E+02  0.22701239669E+02  0.54367081631E+02  0.39999994193E+02 0.  0.
         12    1    3    3    0    0 -0.10579300351E+02  0.26990964250E+02 -0.22701239669E+02  0.36820918369E+02  0.00000000000E+00 0. -1.
         11    1    4    4    0    0  0.84336416026E+01 -0.16742557975E+02  0.10912779620E+02  0.21691664701E+02  0.51100000000E-03 0. -1.
        -11    1    4    4    0    0 -0.11229388537E+02 -0.10985476999E+02  0.14916839618E+01  0.15779892050E+02  0.51100000000E-03 0.  1.
         12    1    4    4    0    0  0.13375047286E+02  0.73707072405E+00  0.10296776087E+02  0.16895524879E+02  0.00000000000E+00 0. -1.
</event>
<event>
 8    1  0.1244838E-006  0.9118800E+02  0.7816164E-02  0.1184000E+00
        -11   -1    0    0    0    0  0.00000000000E+00  0.00000000000E+00  0.45593999997E+02  0.45594000000E+02  0.51100000000E-03 0.  1.
         11   -1    0    0    0    0 -0.00000000000E+00 -0.00000000000E+00 -0.45593999997E+02  0.45594000000E+02  0.51100000000E-03 0. -1.
         23    2    1    2    0    0  0.00000000000E+00  0.00000000000E+00  0.17763568394E-14  0.91188000000E+02  0.91188000000E+02 0.  0.
    9900012    2    3    3    0    0  0.32151305166E+02  0.14593514644E+02  0.10445188810E+02  0.54367094758E+02  0.40000024121E+02 0.  0.
         12    1    3    3    0    0 -0.32151305166E+02 -0.14593514644E+02 -0.10445188810E+02  0.36820905242E+02  0.00000000000E+00 0. -1.
         11    1    4    4    0    0  0.12683459906E+02  0.22971887480E+02  0.14370848989E+02  0.29918206339E+02  0.51100000000E-03 0. -1.
        -11    1    4    4    0    0  0.75159849751E+01  0.12220133423E+01 -0.49538457360E+01  0.90842685227E+01  0.51100000000E-03 0.  1.
         12    1    4    4    0    0  0.11951860285E+02 -0.96003861784E+01  0.10281855568E+01  0.15364619897E+02  0.00000000000E+00 0. -1.
</event>
<event>
 8    1  0.1244838E-006  0.9118800E+02  0.7816164E-02  0.1184000E+00
        -11   -1    0    0    0    0  0.00000000000E+00  0.00000000000E+00  0.45593999997E+02  0.45594000000E+02  0.51100000000E-03 0.  1.
         11   -1    0    0    0    0 -0.00000000000E+00 -0.00000000000E+00 -0.45593999997E+02  0.45594000000E+02  0.51100000000E-03 0. -1.
         23    2    1    2    0    0 -0.71054273576E-14 -0.35527136788E-14  0.00000000000E+00  0.91188000000E+02  0.91188000000E+02 0.  0.
    9900012    2    3    3    0    0 -0.16601604456E+02 -0.26144861729E+02  0.19915133511E+02  0.54367087354E+02  0.40000007240E+02 0.  0.
         12    1    3    3    0    0  0.16601604456E+02  0.26144861729E+02 -0.19915133511E+02  0.36820912646E+02  0.00000000000E+00 0. -1.
         11    1    4    4    0    0  0.43003069212E+00 -0.25017025832E+02  0.18716932399E+02  0.31246760897E+02  0.51100000000E-03 0. -1.
        -11    1    4    4    0    0 -0.17857292486E+02 -0.36318566670E+00  0.54882202656E+01  0.18685164187E+02  0.51100000000E-03 0.  1.
         12    1    4    4    0    0  0.82565733752E+00 -0.76465023000E+00 -0.42900191535E+01  0.44351622688E+01  0.00000000000E+00 0. -1.
</event>
<event>
 8    1  0.1244838E-006  0.9118800E+02  0.7816164E-02  0.1184000E+00
        -11   -1    0    0    0    0  0.00000000000E+00  0.00000000000E+00  0.45593999997E+02  0.45594000000E+02  0.51100000000E-03 0.  1.
         11   -1    0    0    0    0 -0.00000000000E+00 -0.00000000000E+00 -0.45593999997E+02  0.45594000000E+02  0.51100000000E-03 0. -1.
         23    2    1    2    0    0  0.71054273576E-14  0.00000000000E+00 -0.35527136788E-14  0.91188000000E+02  0.91188000000E+02 0.  0.
    9900012    2    3    3    0    0 -0.25144045503E+02 -0.69926577621E+01  0.25974202035E+02  0.54367089389E+02  0.40000011881E+02 0.  0.
         12    1    3    3    0    0  0.25144045503E+02  0.69926577621E+01 -0.25974202035E+02  0.36820910611E+02  0.00000000000E+00 0. -1.
         11    1    4    4    0    0  0.32939136681E+01 -0.92218535142E+01  0.26238000631E-01  0.97925041835E+01  0.51100000000E-03 0. -1.
        -11    1    4    4    0    0 -0.10223124028E+02  0.11844670458E+02  0.11273489560E+02  0.19284710272E+02  0.51100000000E-03 0.  1.
        -12    1    4    4    0    0 -0.18214835143E+02 -0.96154747054E+01  0.14674474474E+02  0.25289874934E+02  0.00000000000E+00 0.  1.
</event>
<event>
 8    1  0.1244838E-006  0.9118800E+02  0.7816164E-02  0.1184000E+00
        -11   -1    0    0    0    0  0.00000000000E+00  0.00000000000E+00  0.45593999997E+02  0.45594000000E+02  0.51100000000E-03 0.  1.
         11   -1    0    0    0    0 -0.00000000000E+00 -0.00000000000E+00 -0.45593999997E+02  0.45594000000E+02  0.51100000000E-03 0. -1.
         23    2    1    2    0    0 -0.88817841970E-15  0.00000000000E+00  0.00000000000E+00  0.91188000000E+02  0.91188000000E+02 0.  0.
    9900012    2    3    3    0    0 -0.69503064138E+01 -0.31243913777E+02  0.18201366394E+02  0.54367100419E+02  0.40000037025E+02 0.  0.
         12    1    3    3    0    0  0.69503064138E+01  0.31243913777E+02 -0.18201366394E+02  0.36820899581E+02  0.00000000000E+00 0. -1.
         11    1    4    4    0    0 -0.36443027700E+01 -0.28147373480E+01  0.11978289977E+02  0.12832892115E+02  0.51100000000E-03 0. -1.
        -11    1    4    4    0    0 -0.13967501146E+02 -0.54279789375E+01  0.61075465670E+01  0.16181970490E+02  0.51100000000E-03 0.  1.
         12    1    4    4    0    0  0.10661497502E+02 -0.23001197491E+02  0.11552985043E+00  0.25352237814E+02  0.00000000000E+00 0. -1.
</event>
<event>
 8    1  0.1244838E-006  0.9118800E+02  0.7816164E-02  0.1184000E+00
        -11   -1    0    0    0    0  0.00000000000E+00  0.00000000000E+00  0.45593999997E+02  0.45594000000E+02  0.51100000000E-03 0.  1.
         11   -1    0    0    0    0 -0.00000000000E+00 -0.00000000000E+00 -0.45593999997E+02  0.45594000000E+02  0.51100000000E-03 0. -1.
         23    2    1    2    0    0  0.00000000000E+00  0.00000000000E+00  0.00000000000E+00  0.91188000000E+02  0.91188000000E+02 0.  0.
    9900012    2    3    3    0    0  0.72579079548E+01 -0.12214586242E+02 -0.33969196877E+02  0.54367086359E+02  0.40000004972E+02 0.  0.
        -12    1    3    3    0    0 -0.72579079548E+01  0.12214586242E+02  0.33969196877E+02  0.36820913641E+02  0.00000000000E+00 0.  1.
         11    1    4    4    0    0  0.79534008231E+01 -0.12787421830E+02 -0.32545294192E+02  0.35860436640E+02  0.51100000000E-03 0. -1.
        -11    1    4    4    0    0 -0.32303215234E+01  0.90469404344E+01 -0.79680587530E+00  0.96393468778E+01  0.51100000000E-03 0.  1.
         12    1    4    4    0    0  0.25348286551E+01 -0.84741048469E+01 -0.62709680968E+00  0.88673028411E+01  0.00000000000E+00 0. -1.
</event>
<event>
 8    1  0.1244838E-006  0.9118800E+02  0.7816164E-02  0.1184000E+00
        -11   -1    0    0    0    0  0.00000000000E+00  0.00000000000E+00  0.45593999997E+02  0.45594000000E+02  0.51100000000E-03 0. -1.
         11   -1    0    0    0    0 -0.00000000000E+00 -0.00000000000E+00 -0.45593999997E+02  0.45594000000E+02  0.51100000000E-03 0.  1.
         23    2    1    2    0    0 -0.71054273576E-14  0.00000000000E+00 -0.44408920985E-15  0.91188000000E+02  0.91188000000E+02 0.  0.
    9900012    2    3    3    0    0  0.26658678547E+02 -0.25216047648E+02  0.30406396411E+01  0.54367086238E+02  0.40000004696E+02 0.  0.
        -12    1    3    3    0    0 -0.26658678547E+02  0.25216047648E+02 -0.30406396411E+01  0.36820913762E+02  0.00000000000E+00 0.  1.
         11    1    4    4    0    0 -0.30041578323E+01  0.11168243170E+01  0.91493306355E+00  0.33330711976E+01  0.51100000000E-03 0. -1.
        -11    1    4    4    0    0  0.75852479980E+00  0.55041621213E+01 -0.49666045337E+01  0.74524037320E+01  0.51100000000E-03 0.  1.
         12    1    4    4    0    0  0.28904311580E+02 -0.31837034086E+02  0.70923111112E+01  0.43581611308E+02  0.00000000000E+00 0. -1.
</event>
<event>
 8    1  0.1244838E-006  0.9118800E+02  0.7816164E-02  0.1184000E+00
        -11   -1    0    0    0    0  0.00000000000E+00  0.00000000000E+00  0.45593999997E+02  0.45594000000E+02  0.51100000000E-03 0.  1.
         11   -1    0    0    0    0 -0.00000000000E+00 -0.00000000000E+00 -0.45593999997E+02  0.45594000000E+02  0.51100000000E-03 0. -1.
         23    2    1    2    0    0  0.00000000000E+00  0.00000000000E+00  0.00000000000E+00  0.91188000000E+02  0.91188000000E+02 0.  0.
    9900012    2    3    3    0    0 -0.80779281597E+01 -0.15285129435E+02 -0.32509879421E+02  0.54367077073E+02  0.39999983803E+02 0.  0.
        -12    1    3    3    0    0  0.80779281597E+01  0.15285129435E+02  0.32509879421E+02  0.36820922927E+02  0.00000000000E+00 0.  1.
         11    1    4    4    0    0 -0.70271042229E+01 -0.18345978901E+02 -0.17588649448E+02  0.26368840044E+02  0.51100000000E-03 0. -1.
        -11    1    4    4    0    0  0.56229764705E+01 -0.83417148318E+00  0.44004182454E+01  0.71886985920E+01  0.51100000000E-03 0.  1.
         12    1    4    4    0    0 -0.66738004073E+01  0.38950209489E+01 -0.19321648219E+02  0.20809538437E+02  0.00000000000E+00 0. -1.
</event>
<event>
 8    1  0.1244838E-006  0.9118800E+02  0.7816164E-02  0.1184000E+00
        -11   -1    0    0    0    0  0.00000000000E+00  0.00000000000E+00  0.45593999997E+02  0.45594000000E+02  0.51100000000E-03 0. -1.
         11   -1    0    0    0    0 -0.00000000000E+00 -0.00000000000E+00 -0.45593999997E+02  0.45594000000E+02  0.51100000000E-03 0.  1.
         23    2    1    2    0    0  0.00000000000E+00  0.00000000000E+00  0.00000000000E+00  0.91188000000E+02  0.91188000000E+02 0.  0.
    9900012    2    3    3    0    0 -0.28829412517E+02  0.19566758349E+02 -0.11907829942E+02  0.54366953405E+02  0.39999701877E+02 0.  0.
        -12    1    3    3    0    0  0.28829412517E+02 -0.19566758349E+02  0.11907829942E+02  0.36821046595E+02  0.00000000000E+00 0.  1.
         11    1    4    4    0    0 -0.33590140937E+01 -0.94107652430E+01  0.10410156276E+01  0.10046352171E+02  0.51100000000E-03 0. -1.
        -11    1    4    4    0    0 -0.77042351825E+01  0.18925882341E+01  0.26557293459E+01  0.83660043385E+01  0.51100000000E-03 0.  1.
        -12    1    4    4    0    0 -0.17766163241E+02  0.27084935358E+02 -0.15604574916E+02  0.35954596896E+02  0.00000000000E+00 0.  1.
</event>
<event>
 8    1  0.1244838E-006  0.9118800E+02  0.7816164E-02  0.1184000E+00
        -11   -1    0    0    0    0  0.00000000000E+00  0.00000000000E+00  0.45593999997E+02  0.45594000000E+02  0.51100000000E-03 0. -1.
         11   -1    0    0    0    0 -0.00000000000E+00 -0.00000000000E+00 -0.45593999997E+02  0.45594000000E+02  0.51100000000E-03 0.  1.
         23    2    1    2    0    0  0.00000000000E+00  0.44408920985E-15  0.00000000000E+00  0.91188000000E+02  0.91188000000E+02 0.  0.
    9900012    2    3    3    0    0  0.32215229004E+02 -0.26302504302E+01 -0.17636334870E+02  0.54367088757E+02  0.40000010440E+02 0.  0.
         12    1    3    3    0    0 -0.32215229004E+02  0.26302504302E+01  0.17636334870E+02  0.36820911243E+02  0.00000000000E+00 0. -1.
         11    1    4    4    0    0  0.49553095129E+01 -0.11260306721E+02 -0.20848107069E+02  0.24207295769E+02  0.51100000000E-03 0. -1.
        -11    1    4    4    0    0  0.23133311814E+02  0.10302106324E+02  0.14296531856E+01  0.25363899911E+02  0.51100000000E-03 0.  1.
         12    1    4    4    0    0  0.41266076770E+01 -0.16720500332E+01  0.17821190133E+01  0.47958930775E+01  0.00000000000E+00 0. -1.
</event>
<event>
 8    1  0.1244838E-006  0.9118800E+02  0.7816164E-02  0.1184000E+00
        -11   -1    0    0    0    0  0.00000000000E+00  0.00000000000E+00  0.45593999997E+02  0.45594000000E+02  0.51100000000E-03 0.  1.
         11   -1    0    0    0    0 -0.00000000000E+00 -0.00000000000E+00 -0.45593999997E+02  0.45594000000E+02  0.51100000000E-03 0. -1.
         23    2    1    2    0    0 -0.35527136788E-14  0.00000000000E+00  0.00000000000E+00  0.91188000000E+02  0.91188000000E+02 0.  0.
    9900012    2    3    3    0    0 -0.17083915689E+02 -0.28918123346E+02  0.15088435866E+02  0.54367096562E+02  0.40000028232E+02 0.  0.
         12    1    3    3    0    0  0.17083915689E+02  0.28918123346E+02 -0.15088435866E+02  0.36820903438E+02  0.00000000000E+00 0. -1.
         11    1    4    4    0    0 -0.49673625913E+01  0.46173467999E+01  0.92574103206E+01  0.11475810590E+02  0.51100000000E-03 0. -1.
        -11    1    4    4    0    0 -0.18702114053E+02 -0.19685277372E+02  0.34420765795E+01  0.27370186457E+02  0.51100000000E-03 0.  1.
         12    1    4    4    0    0  0.65855609558E+01 -0.13850192774E+02  0.23889489662E+01  0.15521099515E+02  0.00000000000E+00 0. -1.
</event>
<event>
 8    1  0.1244838E-006  0.9118800E+02  0.7816164E-02  0.1184000E+00
        -11   -1    0    0    0    0  0.00000000000E+00  0.00000000000E+00  0.45593999997E+02  0.45594000000E+02  0.51100000000E-03 0.  1.
         11   -1    0    0    0    0 -0.00000000000E+00 -0.00000000000E+00 -0.45593999997E+02  0.45594000000E+02  0.51100000000E-03 0. -1.
         23    2    1    2    0    0  0.00000000000E+00  0.00000000000E+00  0.35527136788E-14  0.91188000000E+02  0.91188000000E+02 0.  0.
    9900012    2    3    3    0    0 -0.29339623907E+02  0.19945149800E+02 -0.98568399251E+01  0.54367084410E+02  0.40000000530E+02 0.  0.
        -12    1    3    3    0    0  0.29339623907E+02 -0.19945149800E+02  0.98568399251E+01  0.36820915590E+02  0.00000000000E+00 0.  1.
         11    1    4    4    0    0 -0.18834695634E+01 -0.81884231747E+00  0.57644688030E+01  0.61194003938E+01  0.51100000000E-03 0.  1.
        -11    1    4    4    0    0  0.82343439304E+00  0.35966655902E+01 -0.14696136755E+02  0.15152243509E+02  0.51100000000E-03 0. -1.
         12    1    4    4    0    0 -0.28279588737E+02  0.17167326528E+02 -0.92517197325E+00  0.33095440508E+02  0.00000000000E+00 0. -1.
</event>
<event>
 8    1  0.1244838E-006  0.9118800E+02  0.7816164E-02  0.1184000E+00
        -11   -1    0    0    0    0  0.00000000000E+00  0.00000000000E+00  0.45593999997E+02  0.45594000000E+02  0.51100000000E-03 0. -1.
         11   -1    0    0    0    0 -0.00000000000E+00 -0.00000000000E+00 -0.45593999997E+02  0.45594000000E+02  0.51100000000E-03 0.  1.
         23    2    1    2    0    0  0.35527136788E-14 -0.35527136788E-14  0.00000000000E+00  0.91188000000E+02  0.91188000000E+02 0.  0.
    9900012    2    3    3    0    0 -0.22841449732E+02  0.21647943184E+02  0.19115914669E+02  0.54367034999E+02  0.39999887888E+02 0.  0.
        -12    1    3    3    0    0  0.22841449732E+02 -0.21647943184E+02 -0.19115914669E+02  0.36820965001E+02  0.00000000000E+00 0.  1.
         11    1    4    4    0    0 -0.12568704704E+02  0.15655130863E+02  0.17083090909E+02  0.26360718039E+02  0.51100000000E-03 0. -1.
        -11    1    4    4    0    0  0.24986609367E+01  0.12391252334E+02  0.46787471223E+01  0.13478765365E+02  0.51100000000E-03 0.  1.
        -12    1    4    4    0    0 -0.12771405965E+02 -0.63984400127E+01 -0.26459233623E+01  0.14527551595E+02  0.00000000000E+00 0.  1.
</event>
<event>
 8    1  0.1244838E-006  0.9118800E+02  0.7816164E-02  0.1184000E+00
        -11   -1    0    0    0    0  0.00000000000E+00  0.00000000000E+00  0.45593999997E+02  0.45594000000E+02  0.51100000000E-03 0.  1.
         11   -1    0    0    0    0 -0.00000000000E+00 -0.00000000000E+00 -0.45593999997E+02  0.45594000000E+02  0.51100000000E-03 0. -1.
         23    2    1    2    0    0 -0.17763568394E-14  0.88817841970E-15  0.71054273576E-14  0.91188000000E+02  0.91188000000E+02 0.  0.
    9900012    2    3    3    0    0 -0.11211513227E+02 -0.57207013461E+01 -0.34602870669E+02  0.54367039783E+02  0.39999898794E+02 0.  0.
        -12    1    3    3    0    0  0.11211513227E+02  0.57207013461E+01  0.34602870669E+02  0.36820960217E+02  0.00000000000E+00 0.  1.
         11    1    4    4    0    0 -0.22281253806E+00  0.35557472931E+01  0.22950347954E+00  0.35701059295E+01  0.51100000000E-03 0. -1.
        -11    1    4    4    0    0 -0.48165946353E+01  0.12101708450E+02 -0.59036919183E+01  0.14300507327E+02  0.51100000000E-03 0.  1.
         12    1    4    4    0    0 -0.61721060541E+01 -0.21378157089E+02 -0.28928682230E+02  0.36496426527E+02  0.00000000000E+00 0. -1.
</event>
<event>
 8    1  0.1244838E-006  0.9118800E+02  0.7816164E-02  0.1184000E+00
        -11   -1    0    0    0    0  0.00000000000E+00  0.00000000000E+00  0.45593999997E+02  0.45594000000E+02  0.51100000000E-03 0. -1.
         11   -1    0    0    0    0 -0.00000000000E+00 -0.00000000000E+00 -0.45593999997E+02  0.45594000000E+02  0.51100000000E-03 0.  1.
         23    2    1    2    0    0  0.35527136788E-14  0.00000000000E+00  0.00000000000E+00  0.91188000000E+02  0.91188000000E+02 0.  0.
    9900012    2    3    3    0    0  0.24050689404E+02 -0.74394615045E+01 -0.26869936063E+02  0.54367153835E+02  0.40000158797E+02 0.  0.
         12    1    3    3    0    0 -0.24050689404E+02  0.74394615045E+01  0.26869936063E+02  0.36820846165E+02  0.00000000000E+00 0. -1.
         11    1    4    4    0    0  0.28600874528E+01  0.29148961971E+01 -0.32094894436E+01  0.51939910308E+01  0.51100000000E-03 0. -1.
        -11    1    4    4    0    0  0.53154125149E+01  0.86324572218E+01 -0.22171496462E+02  0.24379257239E+02  0.51100000000E-03 0.  1.
        -12    1    4    4    0    0  0.15875189437E+02 -0.18986814924E+02 -0.14889501567E+01  0.24793905565E+02  0.00000000000E+00 0.  1.
</event>
<event>
 8    1  0.1244838E-006  0.9118800E+02  0.7816164E-02  0.1184000E+00
        -11   -1    0    0    0    0  0.00000000000E+00  0.00000000000E+00  0.45593999997E+02  0.45594000000E+02  0.51100000000E-03 0. -1.
         11   -1    0    0    0    0 -0.00000000000E+00 -0.00000000000E+00 -0.45593999997E+02  0.45594000000E+02  0.51100000000E-03 0.  1.
         23    2    1    2    0    0  0.17763568394E-14  0.00000000000E+00  0.00000000000E+00  0.91188000000E+02  0.91188000000E+02 0.  0.
    9900012    2    3    3    0    0  0.95814564607E+01 -0.33457351321E+02  0.12024136813E+02  0.54367101974E+02  0.40000040570E+02 0.  0.
        -12    1    3    3    0    0 -0.95814564607E+01  0.33457351321E+02 -0.12024136813E+02  0.36820898026E+02  0.00000000000E+00 0.  1.
         11    1    4    4    0    0  0.63089564852E+01 -0.16670366782E+02 -0.26838052620E+01  0.18025173273E+02  0.51100000000E-03 0. -1.
        -11    1    4    4    0    0 -0.12603793858E+02 -0.72177442057E+01  0.82998910373E+01  0.16728408248E+02  0.51100000000E-03 0.  1.
        -12    1    4    4    0    0  0.15876293834E+02 -0.95692403337E+01  0.64080510379E+01  0.19613520453E+02  0.00000000000E+00 0.  1.
</event>
<event>
 8    1  0.1244838E-006  0.9118800E+02  0.7816164E-02  0.1184000E+00
        -11   -1    0    0    0    0  0.00000000000E+00  0.00000000000E+00  0.45593999997E+02  0.45594000000E+02  0.51100000000E-03 0.  1.
         11   -1    0    0    0    0 -0.00000000000E+00 -0.00000000000E+00 -0.45593999997E+02  0.45594000000E+02  0.51100000000E-03 0. -1.
         23    2    1    2    0    0  0.00000000000E+00 -0.88817841970E-15  0.35527136788E-14  0.91188000000E+02  0.91188000000E+02 0.  0.
    9900012    2    3    3    0    0  0.24856526172E+02  0.62478881812E+01 -0.26436672703E+02  0.54367073020E+02  0.39999974564E+02 0.  0.
        -12    1    3    3    0    0 -0.24856526172E+02 -0.62478881812E+01  0.26436672703E+02  0.36820926980E+02  0.00000000000E+00 0.  1.
         11    1    4    4    0    0  0.71341995232E+00  0.56541260113E+01 -0.46905060663E+01  0.73809861400E+01  0.51100000000E-03 0. -1.
        -11    1    4    4    0    0  0.14312941188E+02  0.61661119065E+01 -0.29443568020E+02  0.33313734698E+02  0.51100000000E-03 0.  1.
        -12    1    4    4    0    0  0.98301650317E+01 -0.55723497366E+01  0.76974013837E+01  0.13672352182E+02  0.00000000000E+00 0.  1.
</event>
<event>
 8    1  0.1244838E-006  0.9118800E+02  0.7816164E-02  0.1184000E+00
        -11   -1    0    0    0    0  0.00000000000E+00  0.00000000000E+00  0.45593999997E+02  0.45594000000E+02  0.51100000000E-03 0.  1.
         11   -1    0    0    0    0 -0.00000000000E+00 -0.00000000000E+00 -0.45593999997E+02  0.45594000000E+02  0.51100000000E-03 0. -1.
         23    2    1    2    0    0  0.00000000000E+00  0.00000000000E+00  0.00000000000E+00  0.91188000000E+02  0.91188000000E+02 0.  0.
    9900012    2    3    3    0    0 -0.28716191042E+02  0.20630625457E+02 -0.10273131182E+02  0.54367088020E+02  0.40000008760E+02 0.  0.
        -12    1    3    3    0    0  0.28716191042E+02 -0.20630625457E+02  0.10273131182E+02  0.36820911980E+02  0.00000000000E+00 0.  1.
         11    1    4    4    0    0 -0.33756192091E+02  0.12593559149E+02 -0.79642039653E+01  0.36898601350E+02  0.51100000000E-03 0. -1.
        -11    1    4    4    0    0  0.37377379488E+01  0.10609135291E+02 -0.60289106867E+01  0.12762139355E+02  0.51100000000E-03 0.  1.
        -12    1    4    4    0    0  0.13022630994E+01 -0.25720689834E+01  0.37199834699E+01  0.47063473153E+01  0.00000000000E+00 0.  1.
</event>
<event>
 8    1  0.1244838E-006  0.9118800E+02  0.7816164E-02  0.1184000E+00
        -11   -1    0    0    0    0  0.00000000000E+00  0.00000000000E+00  0.45593999997E+02  0.45594000000E+02  0.51100000000E-03 0.  1.
         11   -1    0    0    0    0 -0.00000000000E+00 -0.00000000000E+00 -0.45593999997E+02  0.45594000000E+02  0.51100000000E-03 0. -1.
         23    2    1    2    0    0  0.17763568394E-14  0.00000000000E+00 -0.17763568394E-14  0.91188000000E+02  0.91188000000E+02 0.  0.
    9900012    2    3    3    0    0 -0.11508392642E+02  0.34035986469E+02 -0.80556747684E+01  0.54367009083E+02  0.39999828807E+02 0.  0.
        -12    1    3    3    0    0  0.11508392642E+02 -0.34035986469E+02  0.80556747684E+01  0.36820990917E+02  0.00000000000E+00 0.  1.
         11    1    4    4    0    0 -0.67868638007E+01  0.24469888190E+01 -0.42966901648E+01  0.83970721780E+01  0.51100000000E-03 0. -1.
        -11    1    4    4    0    0 -0.18432511759E+02  0.18695425008E+02  0.18825223201E+01  0.26321479755E+02  0.51100000000E-03 0.  1.
        -12    1    4    4    0    0  0.13710982917E+02  0.12893572642E+02 -0.56415069237E+01  0.19648457150E+02  0.00000000000E+00 0.  1.
</event>
<event>
 8    1  0.1244838E-006  0.9118800E+02  0.7816164E-02  0.1184000E+00
        -11   -1    0    0    0    0  0.00000000000E+00  0.00000000000E+00  0.45593999997E+02  0.45594000000E+02  0.51100000000E-03 0. -1.
         11   -1    0    0    0    0 -0.00000000000E+00 -0.00000000000E+00 -0.45593999997E+02  0.45594000000E+02  0.51100000000E-03 0.  1.
         23    2    1    2    0    0  0.00000000000E+00  0.00000000000E+00  0.00000000000E+00  0.91188000000E+02  0.91188000000E+02 0.  0.
    9900012    2    3    3    0    0  0.31168298012E+02 -0.19371471938E+02 -0.30098107690E+01  0.54367140600E+02  0.40000128627E+02 0.  0.
         12    1    3    3    0    0 -0.31168298012E+02  0.19371471938E+02  0.30098107690E+01  0.36820859400E+02  0.00000000000E+00 0. -1.
         11    1    4    4    0    0 -0.20853942515E+01  0.28077392084E+01 -0.55002847171E+01  0.65180826074E+01  0.51100000000E-03 0. -1.
        -11    1    4    4    0    0  0.22690514507E+02 -0.16097495885E+01 -0.54663673351E+01  0.23395125869E+02  0.51100000000E-03 0.  1.
        -12    1    4    4    0    0  0.10563177757E+02 -0.20569461558E+02  0.79568412832E+01  0.24453932124E+02  0.00000000000E+00 0.  1.
</event>
<event>
 8    1  0.1244838E-006  0.9118800E+02  0.7816164E-02  0.1184000E+00
        -11   -1    0    0    0    0  0.00000000000E+00  0.00000000000E+00  0.45593999997E+02  0.45594000000E+02  0.51100000000E-03 0.  1.
         11   -1    0    0    0    0 -0.00000000000E+00 -0.00000000000E+00 -0.45593999997E+02  0.45594000000E+02  0.51100000000E-03 0. -1.
         23    2    1    2    0    0 -0.44408920985E-15  0.11102230246E-14  0.00000000000E+00  0.91188000000E+02  0.91188000000E+02 0.  0.
    9900012    2    3    3    0    0 -0.69894065832E+00 -0.17676615477E+01  0.36771808389E+02  0.54367095101E+02  0.40000024901E+02 0.  0.
         12    1    3    3    0    0  0.69894065832E+00  0.17676615477E+01 -0.36771808389E+02  0.36820904899E+02  0.00000000000E+00 0. -1.
         11    1    4    4    0    0  0.12041754162E+02 -0.65137262781E+00  0.24559085527E+01  0.12306893056E+02  0.51100000000E-03 0. -1.
        -11    1    4    4    0    0 -0.68444189267E+01 -0.10909349324E+02  0.18798142124E+02  0.22786621529E+02  0.51100000000E-03 0.  1.
        -12    1    4    4    0    0 -0.58962758937E+01  0.97930604042E+01  0.15517757712E+02  0.19273580516E+02  0.00000000000E+00 0.  1.
</event>
<event>
 8    1  0.1244838E-006  0.9118800E+02  0.7816164E-02  0.1184000E+00
        -11   -1    0    0    0    0  0.00000000000E+00  0.00000000000E+00  0.45593999997E+02  0.45594000000E+02  0.51100000000E-03 0.  1.
         11   -1    0    0    0    0 -0.00000000000E+00 -0.00000000000E+00 -0.45593999997E+02  0.45594000000E+02  0.51100000000E-03 0. -1.
         23    2    1    2    0    0  0.00000000000E+00 -0.44408920985E-15  0.00000000000E+00  0.91188000000E+02  0.91188000000E+02 0.  0.
    9900012    2    3    3    0    0 -0.22212045879E+02 -0.14358127910E+01  0.29331607918E+02  0.54367085243E+02  0.40000002429E+02 0.  0.
         12    1    3    3    0    0  0.22212045879E+02  0.14358127910E+01 -0.29331607918E+02  0.36820914757E+02  0.00000000000E+00 0. -1.
         11    1    4    4    0    0  0.88720113218E+00 -0.15423684325E+01 -0.56505843356E+01  0.59241142651E+01  0.51100000000E-03 0. -1.
        -11    1    4    4    0    0 -0.25434133321E+02 -0.65248519194E+01  0.29742577878E+02  0.39674800182E+02  0.51100000000E-03 0.  1.
        -12    1    4    4    0    0  0.23348863099E+01  0.66314075610E+01  0.52396143751E+01  0.87681707967E+01  0.00000000000E+00 0.  1.
</event>
<event>
 8    1  0.1244838E-006  0.9118800E+02  0.7816164E-02  0.1184000E+00
        -11   -1    0    0    0    0  0.00000000000E+00  0.00000000000E+00  0.45593999997E+02  0.45594000000E+02  0.51100000000E-03 0.  1.
         11   -1    0    0    0    0 -0.00000000000E+00 -0.00000000000E+00 -0.45593999997E+02  0.45594000000E+02  0.51100000000E-03 0. -1.
         23    2    1    2    0    0  0.35527136788E-14  0.00000000000E+00  0.00000000000E+00  0.91188000000E+02  0.91188000000E+02 0.  0.
    9900012    2    3    3    0    0  0.24198607385E+02  0.20532403219E+02 -0.18671577707E+02  0.54367082095E+02  0.39999995252E+02 0.  0.
        -12    1    3    3    0    0 -0.24198607385E+02 -0.20532403219E+02  0.18671577707E+02  0.36820917905E+02  0.00000000000E+00 0.  1.
         11    1    4    4    0    0  0.38699923988E+01 -0.62439449808E+01 -0.29801212159E+01  0.79274720316E+01  0.51100000000E-03 0.  1.
        -11    1    4    4    0    0  0.42813791029E+01  0.16558829071E+02  0.54959961037E+01  0.17964715435E+02  0.51100000000E-03 0. -1.
         12    1    4    4    0    0  0.16047235883E+02  0.10217519129E+02 -0.21187452595E+02  0.28474894628E+02  0.00000000000E+00 0. -1.
</event>
<event>
 8    1  0.1244838E-006  0.9118800E+02  0.7816164E-02  0.1184000E+00
        -11   -1    0    0    0    0  0.00000000000E+00  0.00000000000E+00  0.45593999997E+02  0.45594000000E+02  0.51100000000E-03 0.  1.
         11   -1    0    0    0    0 -0.00000000000E+00 -0.00000000000E+00 -0.45593999997E+02  0.45594000000E+02  0.51100000000E-03 0. -1.
         23    2    1    2    0    0  0.00000000000E+00  0.00000000000E+00  0.00000000000E+00  0.91188000000E+02  0.91188000000E+02 0.  0.
    9900012    2    3    3    0    0  0.26905979005E+02  0.21009673894E+02 -0.13800063970E+02  0.54367083812E+02  0.39999999166E+02 0.  0.
        -12    1    3    3    0    0 -0.26905979005E+02 -0.21009673894E+02  0.13800063970E+02  0.36820916188E+02  0.00000000000E+00 0.  1.
         11    1    4    4    0    0  0.18856055761E+02  0.19737453386E+02 -0.91493826254E+01  0.28789392277E+02  0.51100000000E-03 0. -1.
        -11    1    4    4    0    0 -0.72371221190E+01 -0.40970610974E+01 -0.43206776157E+01  0.93717715252E+01  0.51100000000E-03 0.  1.
         12    1    4    4    0    0  0.15287045363E+02  0.53692816059E+01 -0.33000372921E+00  0.16205920009E+02  0.00000000000E+00 0. -1.
</event>
<event>
 8    1  0.1244838E-006  0.9118800E+02  0.7816164E-02  0.1184000E+00
        -11   -1    0    0    0    0  0.00000000000E+00  0.00000000000E+00  0.45593999997E+02  0.45594000000E+02  0.51100000000E-03 0. -1.
         11   -1    0    0    0    0 -0.00000000000E+00 -0.00000000000E+00 -0.45593999997E+02  0.45594000000E+02  0.51100000000E-03 0.  1.
         23    2    1    2    0    0 -0.71054273576E-14  0.88817841970E-15  0.00000000000E+00  0.91188000000E+02  0.91188000000E+02 0.  0.
    9900012    2    3    3    0    0  0.35049355608E+02 -0.47695600625E+01 -0.10226093537E+02  0.54367095329E+02  0.40000025423E+02 0.  0.
         12    1    3    3    0    0 -0.35049355608E+02  0.47695600625E+01  0.10226093537E+02  0.36820904671E+02  0.00000000000E+00 0. -1.
         11    1    4    4    0    0  0.16532894383E+02 -0.14287053839E+02  0.37692381928E+01  0.22173490048E+02  0.51100000000E-03 0. -1.
        -11    1    4    4    0    0  0.15060527374E+02 -0.11709810606E+00 -0.25919292872E+00  0.15063212738E+02  0.51100000000E-03 0.  1.
         12    1    4    4    0    0  0.34559338508E+01  0.96345918827E+01 -0.13736138801E+02  0.17130392544E+02  0.00000000000E+00 0. -1.
</event>
<event>
 8    1  0.1244838E-006  0.9118800E+02  0.7816164E-02  0.1184000E+00
        -11   -1    0    0    0    0  0.00000000000E+00  0.00000000000E+00  0.45593999997E+02  0.45594000000E+02  0.51100000000E-03 0. -1.
         11   -1    0    0    0    0 -0.00000000000E+00 -0.00000000000E+00 -0.45593999997E+02  0.45594000000E+02  0.51100000000E-03 0.  1.
         23    2    1    2    0    0  0.59674487574E-15 -0.66613381478E-15  0.00000000000E+00  0.91188000000E+02  0.91188000000E+02 0.  0.
    9900012    2    3    3    0    0  0.57498776108E-01 -0.10352380550E+01  0.36806308336E+02  0.54367090760E+02  0.40000015005E+02 0.  0.
        -12    1    3    3    0    0 -0.57498776108E-01  0.10352380550E+01 -0.36806308336E+02  0.36820909240E+02  0.00000000000E+00 0.  1.
         11    1    4    4    0    0  0.61508905767E+01  0.69165805490E+01  0.29106548086E+02  0.30542817210E+02  0.51100000000E-03 0. -1.
        -11    1    4    4    0    0  0.55588026921E+01 -0.62782498463E+01 -0.19425325288E+01  0.86075630343E+01  0.51100000000E-03 0.  1.
        -12    1    4    4    0    0 -0.11652194493E+02 -0.16735687577E+01  0.96422927784E+01  0.15216710515E+02  0.00000000000E+00 0.  1.
</event>
<event>
 8    1  0.1244838E-006  0.9118800E+02  0.7816164E-02  0.1184000E+00
        -11   -1    0    0    0    0  0.00000000000E+00  0.00000000000E+00  0.45593999997E+02  0.45594000000E+02  0.51100000000E-03 0.  1.
         11   -1    0    0    0    0 -0.00000000000E+00 -0.00000000000E+00 -0.45593999997E+02  0.45594000000E+02  0.51100000000E-03 0. -1.
         23    2    1    2    0    0  0.00000000000E+00 -0.35527136788E-14  0.44408920985E-15  0.91188000000E+02  0.91188000000E+02 0.  0.
    9900012    2    3    3    0    0 -0.24865812011E+02  0.27014621939E+02 -0.27710183447E+01  0.54367123474E+02  0.40000089584E+02 0.  0.
         12    1    3    3    0    0  0.24865812011E+02 -0.27014621939E+02  0.27710183447E+01  0.36820876526E+02  0.00000000000E+00 0. -1.
         11    1    4    4    0    0  0.31967735976E+01 -0.26429488309E+01  0.50368594842E+01  0.65249133084E+01  0.51100000000E-03 0. -1.
        -11    1    4    4    0    0 -0.16139971696E+02  0.25577849224E+02  0.40800223943E+01  0.30518382006E+02  0.51100000000E-03 0.  1.
        -12    1    4    4    0    0 -0.11922613912E+02  0.40797215465E+01 -0.11887900223E+02  0.17323828160E+02  0.00000000000E+00 0.  1.
</event>
<event>
 8    1  0.1244838E-006  0.9118800E+02  0.7816164E-02  0.1184000E+00
        -11   -1    0    0    0    0  0.00000000000E+00  0.00000000000E+00  0.45593999997E+02  0.45594000000E+02  0.51100000000E-03 0.  1.
         11   -1    0    0    0    0 -0.00000000000E+00 -0.00000000000E+00 -0.45593999997E+02  0.45594000000E+02  0.51100000000E-03 0. -1.
         23    2    1    2    0    0  0.00000000000E+00 -0.88817841970E-15 -0.17763568394E-14  0.91188000000E+02  0.91188000000E+02 0.  0.
    9900012    2    3    3    0    0  0.32741867428E+02 -0.68912831776E+01  0.15370764523E+02  0.54367081102E+02  0.39999992987E+02 0.  0.
        -12    1    3    3    0    0 -0.32741867428E+02  0.68912831776E+01 -0.15370764523E+02  0.36820918898E+02  0.00000000000E+00 0.  1.
         11    1    4    4    0    0  0.11940079173E+02  0.42940799866E+01  0.34689845422E+01  0.13154408676E+02  0.51100000000E-03 0. -1.
        -11    1    4    4    0    0  0.27683266030E+02 -0.14898811813E+02  0.11152356912E+02  0.33357351161E+02  0.51100000000E-03 0.  1.
         12    1    4    4    0    0 -0.68814777755E+01  0.37134486485E+01  0.74942306901E+00  0.78553212650E+01  0.00000000000E+00 0. -1.
</event>
<event>
 8    1  0.1244838E-006  0.9118800E+02  0.7816164E-02  0.1184000E+00
        -11   -1    0    0    0    0  0.00000000000E+00  0.00000000000E+00  0.45593999997E+02  0.45594000000E+02  0.51100000000E-03 0.  1.
         11   -1    0    0    0    0 -0.00000000000E+00 -0.00000000000E+00 -0.45593999997E+02  0.45594000000E+02  0.51100000000E-03 0. -1.
         23    2    1    2    0    0 -0.17763568394E-14  0.53290705182E-14  0.00000000000E+00  0.91188000000E+02  0.91188000000E+02 0.  0.
    9900012    2    3    3    0    0  0.58300231975E+01 -0.14009091494E+02 -0.33549005985E+02  0.54367087225E+02  0.40000006947E+02 0.  0.
        -12    1    3    3    0    0 -0.58300231975E+01  0.14009091494E+02  0.33549005985E+02  0.36820912775E+02  0.00000000000E+00 0.  1.
         11    1    4    4    0    0  0.10734571730E+01  0.12924868433E+02 -0.18692975001E+02  0.22751524102E+02  0.51100000000E-03 0. -1.
        -11    1    4    4    0    0  0.25744381002E+01 -0.40823955782E+01 -0.14842911976E+01  0.50494361872E+01  0.51100000000E-03 0.  1.
         12    1    4    4    0    0  0.21821279243E+01 -0.22851564349E+02 -0.13371739787E+02  0.26566126936E+02  0.00000000000E+00 0. -1.
</event>
<event>
 8    1  0.1244838E-006  0.9118800E+02  0.7816164E-02  0.1184000E+00
        -11   -1    0    0    0    0  0.00000000000E+00  0.00000000000E+00  0.45593999997E+02  0.45594000000E+02  0.51100000000E-03 0. -1.
         11   -1    0    0    0    0 -0.00000000000E+00 -0.00000000000E+00 -0.45593999997E+02  0.45594000000E+02  0.51100000000E-03 0.  1.
         23    2    1    2    0    0  0.00000000000E+00  0.00000000000E+00  0.00000000000E+00  0.91188000000E+02  0.91188000000E+02 0.  0.
    9900012    2    3    3    0    0 -0.24761990801E+02  0.34408300275E+01 -0.27033026572E+02  0.54367081688E+02  0.39999994323E+02 0.  0.
         12    1    3    3    0    0  0.24761990801E+02 -0.34408300275E+01  0.27033026572E+02  0.36820918312E+02  0.00000000000E+00 0. -1.
         11    1    4    4    0    0 -0.11038910177E+02  0.13374995095E+02 -0.23268089979E+02  0.29019856017E+02  0.51100000000E-03 0. -1.
        -11    1    4    4    0    0 -0.73114515142E+01  0.21710120861E+01 -0.79568079126E+01  0.11021860512E+02  0.51100000000E-03 0.  1.
        -12    1    4    4    0    0 -0.64116291108E+01 -0.12105177154E+02  0.41918713201E+01  0.14325365159E+02  0.00000000000E+00 0.  1.
</event>
<event>
 8    1  0.1244838E-006  0.9118800E+02  0.7816164E-02  0.1184000E+00
        -11   -1    0    0    0    0  0.00000000000E+00  0.00000000000E+00  0.45593999997E+02  0.45594000000E+02  0.51100000000E-03 0.  1.
         11   -1    0    0    0    0 -0.00000000000E+00 -0.00000000000E+00 -0.45593999997E+02  0.45594000000E+02  0.51100000000E-03 0. -1.
         23    2    1    2    0    0  0.17763568394E-14 -0.17763568394E-14  0.00000000000E+00  0.91188000000E+02  0.91188000000E+02 0.  0.
    9900012    2    3    3    0    0 -0.66613432025E+01  0.81367647512E+01 -0.35287390660E+02  0.54367076961E+02  0.39999983547E+02 0.  0.
        -12    1    3    3    0    0  0.66613432025E+01 -0.81367647512E+01  0.35287390660E+02  0.36820923039E+02  0.00000000000E+00 0.  1.
         11    1    4    4    0    0  0.43459716005E+01 -0.53202297434E+01  0.11921967562E+00  0.68707006388E+01  0.51100000000E-03 0. -1.
        -11    1    4    4    0    0  0.61468340998E+01  0.10296922677E+02 -0.62563740437E+01  0.13525989890E+02  0.51100000000E-03 0.  1.
         12    1    4    4    0    0 -0.17154148903E+02  0.31600718178E+01 -0.29150236292E+02  0.33970386432E+02  0.00000000000E+00 0. -1.
</event>
<event>
 8    1  0.1244838E-006  0.9118800E+02  0.7816164E-02  0.1184000E+00
        -11   -1    0    0    0    0  0.00000000000E+00  0.00000000000E+00  0.45593999997E+02  0.45594000000E+02  0.51100000000E-03 0.  1.
         11   -1    0    0    0    0 -0.00000000000E+00 -0.00000000000E+00 -0.45593999997E+02  0.45594000000E+02  0.51100000000E-03 0. -1.
         23    2    1    2    0    0  0.17763568394E-14  0.00000000000E+00  0.00000000000E+00  0.91188000000E+02  0.91188000000E+02 0.  0.
    9900012    2    3    3    0    0 -0.13441788482E+02 -0.98343935246E+01  0.32838780025E+02  0.54367048802E+02  0.39999919354E+02 0.  0.
         12    1    3    3    0    0  0.13441788482E+02  0.98343935246E+01 -0.32838780025E+02  0.36820951198E+02  0.00000000000E+00 0. -1.
         11    1    4    4    0    0 -0.18264222846E+01 -0.74908924700E+01 -0.35516566319E+01  0.84890254712E+01  0.51100000000E-03 0. -1.
        -11    1    4    4    0    0 -0.19353254653E+02 -0.38928640774E+01  0.22763926472E+02  0.30131365802E+02  0.51100000000E-03 0.  1.
         12    1    4    4    0    0  0.77378884551E+01  0.15493630227E+01  0.13626510185E+02  0.15746657529E+02  0.00000000000E+00 0. -1.
</event>
<event>
 8    1  0.1244838E-006  0.9118800E+02  0.7816164E-02  0.1184000E+00
        -11   -1    0    0    0    0  0.00000000000E+00  0.00000000000E+00  0.45593999997E+02  0.45594000000E+02  0.51100000000E-03 0. -1.
         11   -1    0    0    0    0 -0.00000000000E+00 -0.00000000000E+00 -0.45593999997E+02  0.45594000000E+02  0.51100000000E-03 0.  1.
         23    2    1    2    0    0 -0.17763568394E-14 -0.26645352591E-14  0.00000000000E+00  0.91188000000E+02  0.91188000000E+02 0.  0.
    9900012    2    3    3    0    0  0.11048875710E+02  0.69423947183E+01 -0.34431156418E+02  0.54367095189E+02  0.40000025101E+02 0.  0.
         12    1    3    3    0    0 -0.11048875710E+02 -0.69423947183E+01  0.34431156418E+02  0.36820904811E+02  0.00000000000E+00 0. -1.
         11    1    4    4    0    0  0.12043513977E+02 -0.56094230117E+01 -0.37330411190E+01  0.13800269987E+02  0.51100000000E-03 0. -1.
        -11    1    4    4    0    0 -0.99072320359E+01 -0.13367579911E+01 -0.10816886725E+02  0.14729059957E+02  0.51100000000E-03 0.  1.
        -12    1    4    4    0    0  0.89125937686E+01  0.13888575721E+02 -0.19881228574E+02  0.25837765245E+02  0.00000000000E+00 0.  1.
</event>
<event>
 8    1  0.1244838E-006  0.9118800E+02  0.7816164E-02  0.1184000E+00
        -11   -1    0    0    0    0  0.00000000000E+00  0.00000000000E+00  0.45593999997E+02  0.45594000000E+02  0.51100000000E-03 0. -1.
         11   -1    0    0    0    0 -0.00000000000E+00 -0.00000000000E+00 -0.45593999997E+02  0.45594000000E+02  0.51100000000E-03 0.  1.
         23    2    1    2    0    0  0.00000000000E+00 -0.44408920985E-15  0.88817841970E-15  0.91188000000E+02  0.91188000000E+02 0.  0.
    9900012    2    3    3    0    0 -0.36444799097E+02  0.21609064581E+01 -0.47839438974E+01  0.54367095379E+02  0.40000025535E+02 0.  0.
        -12    1    3    3    0    0  0.36444799097E+02 -0.21609064581E+01  0.47839438974E+01  0.36820904621E+02  0.00000000000E+00 0.  1.
         11    1    4    4    0    0 -0.58205827497E+01 -0.10057228518E+02 -0.14344601599E+01  0.11708317779E+02  0.51100000000E-03 0. -1.
        -11    1    4    4    0    0 -0.95022518142E+01  0.58062148304E+01 -0.14213614914E+02  0.18056349835E+02  0.51100000000E-03 0.  1.
         12    1    4    4    0    0 -0.21121964533E+02  0.64119201457E+01  0.10864131176E+02  0.24602427764E+02  0.00000000000E+00 0. -1.
</event>
<event>
 8    1  0.1244838E-006  0.9118800E+02  0.7816164E-02  0.1184000E+00
        -11   -1    0    0    0    0  0.00000000000E+00  0.00000000000E+00  0.45593999997E+02  0.45594000000E+02  0.51100000000E-03 0. -1.
         11   -1    0    0    0    0 -0.00000000000E+00 -0.00000000000E+00 -0.45593999997E+02  0.45594000000E+02  0.51100000000E-03 0.  1.
         23    2    1    2    0    0  0.17763568394E-14 -0.35527136788E-14  0.00000000000E+00  0.91188000000E+02  0.91188000000E+02 0.  0.
    9900012    2    3    3    0    0  0.66014753728E+01 -0.25073039101E+02 -0.26144660235E+02  0.54367081684E+02  0.39999994315E+02 0.  0.
         12    1    3    3    0    0 -0.66014753728E+01  0.25073039101E+02  0.26144660235E+02  0.36820918316E+02  0.00000000000E+00 0. -1.
         11    1    4    4    0    0 -0.11749871490E+02 -0.65054470761E+01 -0.68992881492E+01  0.15099023112E+02  0.51100000000E-03 0. -1.
        -11    1    4    4    0    0  0.94790347495E+01 -0.22283932655E+02 -0.10995282649E+02  0.26595525848E+02  0.51100000000E-03 0.  1.
         12    1    4    4    0    0  0.88723121135E+01  0.37163406304E+01 -0.82500894374E+01  0.12672532724E+02  0.00000000000E+00 0. -1.
</event>
<event>
 8    1  0.1244838E-006  0.9118800E+02  0.7816164E-02  0.1184000E+00
        -11   -1    0    0    0    0  0.00000000000E+00  0.00000000000E+00  0.45593999997E+02  0.45594000000E+02  0.51100000000E-03 0.  1.
         11   -1    0    0    0    0 -0.00000000000E+00 -0.00000000000E+00 -0.45593999997E+02  0.45594000000E+02  0.51100000000E-03 0. -1.
         23    2    1    2    0    0 -0.35527136788E-14 -0.71054273576E-14  0.00000000000E+00  0.91188000000E+02  0.91188000000E+02 0.  0.
    9900012    2    3    3    0    0 -0.17840204905E+02 -0.23936328004E+02 -0.21553666017E+02  0.54367065355E+02  0.39999957090E+02 0.  0.
        -12    1    3    3    0    0  0.17840204905E+02  0.23936328004E+02  0.21553666017E+02  0.36820934645E+02  0.00000000000E+00 0.  1.
         11    1    4    4    0    0  0.79348633840E+01 -0.38373948264E+01 -0.15401978180E+02  0.17745663924E+02  0.51100000000E-03 0. -1.
        -11    1    4    4    0    0 -0.38781143507E+01 -0.11340271157E+02  0.86442399459E+00  0.12016186996E+02  0.51100000000E-03 0.  1.
         12    1    4    4    0    0 -0.21896953938E+02 -0.87586620204E+01 -0.70161118315E+01  0.24605214435E+02  0.00000000000E+00 0. -1.
</event>
<event>
 8    1  0.1244838E-006  0.9118800E+02  0.7816164E-02  0.1184000E+00
        -11   -1    0    0    0    0  0.00000000000E+00  0.00000000000E+00  0.45593999997E+02  0.45594000000E+02  0.51100000000E-03 0. -1.
         11   -1    0    0    0    0 -0.00000000000E+00 -0.00000000000E+00 -0.45593999997E+02  0.45594000000E+02  0.51100000000E-03 0.  1.
         23    2    1    2    0    0 -0.35527136788E-14  0.00000000000E+00  0.35527136788E-14  0.91188000000E+02  0.91188000000E+02 0.  0.
    9900012    2    3    3    0    0  0.23285001363E+02 -0.33350317579E+01 -0.28327817884E+02  0.54367095729E+02  0.40000026333E+02 0.  0.
         12    1    3    3    0    0 -0.23285001363E+02  0.33350317579E+01  0.28327817884E+02  0.36820904271E+02  0.00000000000E+00 0. -1.
         11    1    4    4    0    0  0.24281133573E+02 -0.52040849627E+00 -0.13348216925E+02  0.27713158750E+02  0.51100000000E-03 0. -1.
        -11    1    4    4    0    0  0.18542132093E+01  0.34068524740E+01 -0.18538905049E+02  0.18940320775E+02  0.51100000000E-03 0.  1.
         12    1    4    4    0    0 -0.28503454188E+01 -0.62214757356E+01  0.35593040897E+01  0.77136162037E+01  0.00000000000E+00 0. -1.
</event>
<event>
 8    1  0.1244838E-006  0.9118800E+02  0.7816164E-02  0.1184000E+00
        -11   -1    0    0    0    0  0.00000000000E+00  0.00000000000E+00  0.45593999997E+02  0.45594000000E+02  0.51100000000E-03 0.  1.
         11   -1    0    0    0    0 -0.00000000000E+00 -0.00000000000E+00 -0.45593999997E+02  0.45594000000E+02  0.51100000000E-03 0. -1.
         23    2    1    2    0    0  0.00000000000E+00  0.00000000000E+00 -0.35527136788E-14  0.91188000000E+02  0.91188000000E+02 0.  0.
    9900012    2    3    3    0    0  0.23088040882E+02 -0.19867518728E+02  0.20688202693E+02  0.54367113768E+02  0.40000067458E+02 0.  0.
         12    1    3    3    0    0 -0.23088040882E+02  0.19867518728E+02 -0.20688202693E+02  0.36820886232E+02  0.00000000000E+00 0. -1.
         11    1    4    4    0    0  0.87463531666E+01 -0.18442556285E+02  0.85218266675E+00  0.20429214169E+02  0.51100000000E-03 0. -1.
        -11    1    4    4    0    0  0.10936300154E+02 -0.71232184829E+01  0.32707461631E-01  0.13051588893E+02  0.51100000000E-03 0.  1.
        -12    1    4    4    0    0  0.34053875623E+01  0.56982560394E+01  0.19803312565E+02  0.20886310706E+02  0.00000000000E+00 0.  1.
</event>
<event>
 8    1  0.1244838E-006  0.9118800E+02  0.7816164E-02  0.1184000E+00
        -11   -1    0    0    0    0  0.00000000000E+00  0.00000000000E+00  0.45593999997E+02  0.45594000000E+02  0.51100000000E-03 0. -1.
         11   -1    0    0    0    0 -0.00000000000E+00 -0.00000000000E+00 -0.45593999997E+02  0.45594000000E+02  0.51100000000E-03 0.  1.
         23    2    1    2    0    0  0.71054273576E-14  0.00000000000E+00  0.00000000000E+00  0.91188000000E+02  0.91188000000E+02 0.  0.
    9900012    2    3    3    0    0 -0.35698409187E+02 -0.50912896467E+01 -0.74477025243E+01  0.54367273206E+02  0.40000430925E+02 0.  0.
        -12    1    3    3    0    0  0.35698409187E+02  0.50912896467E+01  0.74477025243E+01  0.36820726794E+02  0.00000000000E+00 0.  1.
         11    1    4    4    0    0  0.43773470096E+01  0.43855599674E+01  0.38695919206E+01  0.73053435897E+01  0.51100000000E-03 0. -1.
        -11    1    4    4    0    0 -0.18284764982E+02 -0.14343716020E+02 -0.74288179081E+01  0.24397994907E+02  0.51100000000E-03 0.  1.
         12    1    4    4    0    0 -0.21790991215E+02  0.48668664058E+01 -0.38884765369E+01  0.22663934709E+02  0.00000000000E+00 0. -1.
</event>
<event>
 8    1  0.1244838E-006  0.9118800E+02  0.7816164E-02  0.1184000E+00
        -11   -1    0    0    0    0  0.00000000000E+00  0.00000000000E+00  0.45593999997E+02  0.45594000000E+02  0.51100000000E-03 0.  1.
         11   -1    0    0    0    0 -0.00000000000E+00 -0.00000000000E+00 -0.45593999997E+02  0.45594000000E+02  0.51100000000E-03 0. -1.
         23    2    1    2    0    0  0.17763568394E-14 -0.88817841970E-15  0.00000000000E+00  0.91188000000E+02  0.91188000000E+02 0.  0.
    9900012    2    3    3    0    0  0.87915671799E+01 -0.77957119634E+01  0.34895770775E+02  0.54367087512E+02  0.40000007600E+02 0.  0.
         12    1    3    3    0    0 -0.87915671799E+01  0.77957119634E+01 -0.34895770775E+02  0.36820912488E+02  0.00000000000E+00 0. -1.
         11    1    4    4    0    0  0.59200593341E+00  0.23316611917E+01 -0.74727840810E+01  0.78504533066E+01  0.51100000000E-03 0. -1.
        -11    1    4    4    0    0  0.30924266378E+01  0.16355004461E+01  0.17297829171E+01  0.39025777918E+01  0.51100000000E-03 0.  1.
        -12    1    4    4    0    0  0.51071346087E+01 -0.11762873601E+02  0.40638771939E+02  0.42614056413E+02  0.00000000000E+00 0.  1.
</event>
<event>
 8    1  0.1244838E-006  0.9118800E+02  0.7816164E-02  0.1184000E+00
        -11   -1    0    0    0    0  0.00000000000E+00  0.00000000000E+00  0.45593999997E+02  0.45594000000E+02  0.51100000000E-03 0.  1.
         11   -1    0    0    0    0 -0.00000000000E+00 -0.00000000000E+00 -0.45593999997E+02  0.45594000000E+02  0.51100000000E-03 0. -1.
         23    2    1    2    0    0 -0.17763568394E-14 -0.71054273576E-14  0.00000000000E+00  0.91188000000E+02  0.91188000000E+02 0.  0.
    9900012    2    3    3    0    0 -0.99440498732E+01 -0.33170344953E+02  0.12514909314E+02  0.54367097414E+02  0.40000030174E+02 0.  0.
        -12    1    3    3    0    0  0.99440498732E+01  0.33170344953E+02 -0.12514909314E+02  0.36820902586E+02  0.00000000000E+00 0.  1.
         11    1    4    4    0    0 -0.11302604218E+02 -0.50377017683E+01  0.57947538452E+01  0.13664057728E+02  0.51100000000E-03 0.  1.
        -11    1    4    4    0    0 -0.22203548089E+01  0.18240323084E+01 -0.69949749702E+01  0.75621917745E+01  0.51100000000E-03 0. -1.
         12    1    4    4    0    0  0.35789091536E+01 -0.29956675493E+02  0.13715130439E+02  0.33140847911E+02  0.00000000000E+00 0. -1.
</event>
<event>
 8    1  0.1244838E-006  0.9118800E+02  0.7816164E-02  0.1184000E+00
        -11   -1    0    0    0    0  0.00000000000E+00  0.00000000000E+00  0.45593999997E+02  0.45594000000E+02  0.51100000000E-03 0.  1.
         11   -1    0    0    0    0 -0.00000000000E+00 -0.00000000000E+00 -0.45593999997E+02  0.45594000000E+02  0.51100000000E-03 0. -1.
         23    2    1    2    0    0  0.00000000000E+00 -0.17763568394E-14  0.71054273576E-14  0.91188000000E+02  0.91188000000E+02 0.  0.
    9900012    2    3    3    0    0 -0.23470845251E+02 -0.14777159992E+02  0.24218400588E+02  0.54367136875E+02  0.40000120134E+02 0.  0.
         12    1    3    3    0    0  0.23470845251E+02  0.14777159992E+02 -0.24218400588E+02  0.36820863125E+02  0.00000000000E+00 0. -1.
         11    1    4    4    0    0  0.78386943387E+01 -0.10634356394E+02  0.12346198233E+01  0.13268720783E+02  0.51100000000E-03 0. -1.
        -11    1    4    4    0    0 -0.13611495324E+02 -0.57863845117E+01  0.45105849488E+01  0.15462872551E+02  0.51100000000E-03 0.  1.
        -12    1    4    4    0    0 -0.17698044265E+02  0.16435809130E+01  0.18473195816E+02  0.25635543542E+02  0.00000000000E+00 0.  1.
</event>
<event>
 8    1  0.1244838E-006  0.9118800E+02  0.7816164E-02  0.1184000E+00
        -11   -1    0    0    0    0  0.00000000000E+00  0.00000000000E+00  0.45593999997E+02  0.45594000000E+02  0.51100000000E-03 0. -1.
         11   -1    0    0    0    0 -0.00000000000E+00 -0.00000000000E+00 -0.45593999997E+02  0.45594000000E+02  0.51100000000E-03 0.  1.
         23    2    1    2    0    0  0.00000000000E+00  0.71054273576E-14 -0.44408920985E-15  0.91188000000E+02  0.91188000000E+02 0.  0.
    9900012    2    3    3    0    0 -0.22620368099E+02 -0.28964487335E+02 -0.22722136137E+01  0.54367006881E+02  0.39999823787E+02 0.  0.
        -12    1    3    3    0    0  0.22620368099E+02  0.28964487335E+02  0.22722136137E+01  0.36820993119E+02  0.00000000000E+00 0.  1.
         11    1    4    4    0    0  0.72879418975E+00 -0.60030282509E+01  0.14933511983E+02  0.16111401850E+02  0.51100000000E-03 0. -1.
        -11    1    4    4    0    0 -0.20854983470E+02 -0.14935151661E+02 -0.11596153048E+02  0.28150663517E+02  0.51100000000E-03 0.  1.
         12    1    4    4    0    0 -0.24941788191E+01 -0.80263074236E+01 -0.56095725489E+01  0.10104941515E+02  0.00000000000E+00 0. -1.
</event>
<event>
 8    1  0.1244838E-006  0.9118800E+02  0.7816164E-02  0.1184000E+00
        -11   -1    0    0    0    0  0.00000000000E+00  0.00000000000E+00  0.45593999997E+02  0.45594000000E+02  0.51100000000E-03 0. -1.
         11   -1    0    0    0    0 -0.00000000000E+00 -0.00000000000E+00 -0.45593999997E+02  0.45594000000E+02  0.51100000000E-03 0.  1.
         23    2    1    2    0    0  0.00000000000E+00  0.00000000000E+00  0.00000000000E+00  0.91188000000E+02  0.91188000000E+02 0.  0.
    9900012    2    3    3    0    0 -0.17555278543E+02  0.30112410807E+01 -0.32226133562E+02  0.54367094770E+02  0.40000024148E+02 0.  0.
         12    1    3    3    0    0  0.17555278543E+02 -0.30112410807E+01  0.32226133562E+02  0.36820905230E+02  0.00000000000E+00 0. -1.
         11    1    4    4    0    0 -0.81763471544E+01  0.58261892125E+01 -0.12463904209E+02  0.16004563160E+02  0.51100000000E-03 0. -1.
        -11    1    4    4    0    0  0.37490278618E+01 -0.21490281341E-01 -0.23997267131E+02  0.24288361447E+02  0.51100000000E-03 0.  1.
         12    1    4    4    0    0 -0.13127959250E+02 -0.27934578505E+01  0.42350377779E+01  0.14074170164E+02  0.00000000000E+00 0. -1.
</event>
<event>
 8    1  0.1244838E-006  0.9118800E+02  0.7816164E-02  0.1184000E+00
        -11   -1    0    0    0    0  0.00000000000E+00  0.00000000000E+00  0.45593999997E+02  0.45594000000E+02  0.51100000000E-03 0.  1.
         11   -1    0    0    0    0 -0.00000000000E+00 -0.00000000000E+00 -0.45593999997E+02  0.45594000000E+02  0.51100000000E-03 0. -1.
         23    2    1    2    0    0  0.17763568394E-14 -0.22204460493E-15  0.00000000000E+00  0.91188000000E+02  0.91188000000E+02 0.  0.
    9900012    2    3    3    0    0 -0.80248421854E+01 -0.16069138275E+01  0.35899861855E+02  0.54367077343E+02  0.39999984418E+02 0.  0.
         12    1    3    3    0    0  0.80248421854E+01  0.16069138275E+01 -0.35899861855E+02  0.36820922657E+02  0.00000000000E+00 0. -1.
         11    1    4    4    0    0  0.68398709342E+00  0.30168851053E+01  0.27420855228E+02  0.27594795448E+02  0.51100000000E-03 0. -1.
        -11    1    4    4    0    0 -0.70902220252E+01  0.87552275207E+01  0.68810561155E+01  0.13201295044E+02  0.51100000000E-03 0.  1.
         12    1    4    4    0    0 -0.16186072536E+01 -0.13379026453E+02  0.15979505107E+01  0.13570986851E+02  0.00000000000E+00 0. -1.
</event>
<event>
 8    1  0.1244838E-006  0.9118800E+02  0.7816164E-02  0.1184000E+00
        -11   -1    0    0    0    0  0.00000000000E+00  0.00000000000E+00  0.45593999997E+02  0.45594000000E+02  0.51100000000E-03 0.  1.
         11   -1    0    0    0    0 -0.00000000000E+00 -0.00000000000E+00 -0.45593999997E+02  0.45594000000E+02  0.51100000000E-03 0. -1.
         23    2    1    2    0    0 -0.35527136788E-14  0.00000000000E+00  0.35527136788E-14  0.91188000000E+02  0.91188000000E+02 0.  0.
    9900012    2    3    3    0    0 -0.25555095937E+02  0.98207558678E+01 -0.24622582236E+02  0.54367058538E+02  0.39999941550E+02 0.  0.
        -12    1    3    3    0    0  0.25555095937E+02 -0.98207558678E+01  0.24622582236E+02  0.36820941462E+02  0.00000000000E+00 0.  1.
         11    1    4    4    0    0 -0.16765397477E+00 -0.13436318329E+02 -0.69570246206E+01  0.15131521732E+02  0.51100000000E-03 0. -1.
        -11    1    4    4    0    0 -0.10315415765E+02  0.10815887550E+02 -0.42782604209E+01  0.15546534610E+02  0.51100000000E-03 0.  1.
         12    1    4    4    0    0 -0.15072026198E+02  0.12441186647E+02 -0.13387297194E+02  0.23689002196E+02  0.00000000000E+00 0. -1.
</event>
<event>
 8    1  0.1244838E-006  0.9118800E+02  0.7816164E-02  0.1184000E+00
        -11   -1    0    0    0    0  0.00000000000E+00  0.00000000000E+00  0.45593999997E+02  0.45594000000E+02  0.51100000000E-03 0.  1.
         11   -1    0    0    0    0 -0.00000000000E+00 -0.00000000000E+00 -0.45593999997E+02  0.45594000000E+02  0.51100000000E-03 0. -1.
         23    2    1    2    0    0 -0.88817841970E-15  0.00000000000E+00  0.71054273576E-14  0.91188000000E+02  0.91188000000E+02 0.  0.
    9900012    2    3    3    0    0 -0.78232768808E+01 -0.62557872872E+01 -0.35432216596E+02  0.54367075125E+02  0.39999979363E+02 0.  0.
        -12    1    3    3    0    0  0.78232768808E+01  0.62557872872E+01  0.35432216596E+02  0.36820924875E+02  0.00000000000E+00 0.  1.
         11    1    4    4    0    0 -0.14105996352E+02 -0.84284545462E+01 -0.26136727496E+02  0.30873070848E+02  0.51100000000E-03 0. -1.
        -11    1    4    4    0    0 -0.17494099642E+01 -0.78826381604E+01 -0.89140975476E+00  0.81234863945E+01  0.51100000000E-03 0.  1.
        -12    1    4    4    0    0  0.80321294358E+01  0.10055305419E+02 -0.84040793454E+01  0.15370517883E+02  0.00000000000E+00 0.  1.
</event>
<event>
 8    1  0.1244838E-006  0.9118800E+02  0.7816164E-02  0.1184000E+00
        -11   -1    0    0    0    0  0.00000000000E+00  0.00000000000E+00  0.45593999997E+02  0.45594000000E+02  0.51100000000E-03 0.  1.
         11   -1    0    0    0    0 -0.00000000000E+00 -0.00000000000E+00 -0.45593999997E+02  0.45594000000E+02  0.51100000000E-03 0. -1.
         23    2    1    2    0    0 -0.44408920985E-15  0.00000000000E+00  0.88817841970E-15  0.91188000000E+02  0.91188000000E+02 0.  0.
    9900012    2    3    3    0    0  0.34040009512E+01 -0.36403811838E+02  0.43536686049E+01  0.54367093315E+02  0.40000020829E+02 0.  0.
        -12    1    3    3    0    0 -0.34040009512E+01  0.36403811838E+02 -0.43536686049E+01  0.36820906685E+02  0.00000000000E+00 0.  1.
         11    1    4    4    0    0 -0.51711237004E+01  0.31166863132E+01  0.17375054575E+01  0.62827684484E+01  0.51100000000E-03 0. -1.
        -11    1    4    4    0    0 -0.17000364749E+01 -0.14778464428E+02  0.12598736871E+02  0.19494135166E+02  0.51100000000E-03 0.  1.
         12    1    4    4    0    0  0.10275161127E+02 -0.24742033723E+02 -0.99825737238E+01  0.28590189700E+02  0.00000000000E+00 0. -1.
</event>
<event>
 8    1  0.1244838E-006  0.9118800E+02  0.7816164E-02  0.1184000E+00
        -11   -1    0    0    0    0  0.00000000000E+00  0.00000000000E+00  0.45593999997E+02  0.45594000000E+02  0.51100000000E-03 0.  1.
         11   -1    0    0    0    0 -0.00000000000E+00 -0.00000000000E+00 -0.45593999997E+02  0.45594000000E+02  0.51100000000E-03 0. -1.
         23    2    1    2    0    0 -0.15473733406E-14  0.00000000000E+00  0.00000000000E+00  0.91188000000E+02  0.91188000000E+02 0.  0.
    9900012    2    3    3    0    0  0.58067208999E-01 -0.36424317214E+02 -0.53894909258E+01  0.54367070236E+02  0.39999968216E+02 0.  0.
        -12    1    3    3    0    0 -0.58067208999E-01  0.36424317214E+02  0.53894909258E+01  0.36820929764E+02  0.00000000000E+00 0.  1.
         11    1    4    4    0    0 -0.10305843448E+02 -0.26001702473E+02 -0.55013892658E+01  0.28505512182E+02  0.51100000000E-03 0. -1.
        -11    1    4    4    0    0  0.16739634352E+02 -0.98277396327E+01  0.75442590486E+00  0.19425987317E+02  0.51100000000E-03 0.  1.
         12    1    4    4    0    0 -0.63757236955E+01 -0.59487510814E+00 -0.64252756485E+00  0.64355707367E+01  0.00000000000E+00 0. -1.
</event>
<event>
 8    1  0.1244838E-006  0.9118800E+02  0.7816164E-02  0.1184000E+00
        -11   -1    0    0    0    0  0.00000000000E+00  0.00000000000E+00  0.45593999997E+02  0.45594000000E+02  0.51100000000E-03 0. -1.
         11   -1    0    0    0    0 -0.00000000000E+00 -0.00000000000E+00 -0.45593999997E+02  0.45594000000E+02  0.51100000000E-03 0.  1.
         23    2    1    2    0    0  0.00000000000E+00  0.88817841970E-15  0.00000000000E+00  0.91188000000E+02  0.91188000000E+02 0.  0.
    9900012    2    3    3    0    0 -0.17115063885E+02  0.68917135571E+01  0.31864689985E+02  0.54367087526E+02  0.40000007634E+02 0.  0.
        -12    1    3    3    0    0  0.17115063885E+02 -0.68917135571E+01 -0.31864689985E+02  0.36820912474E+02  0.00000000000E+00 0.  1.
         11    1    4    4    0    0 -0.50334200707E+00 -0.83688135848E+01  0.88383703010E+01  0.12182248718E+02  0.51100000000E-03 0. -1.
        -11    1    4    4    0    0 -0.95275285432E+01  0.19195067153E+02  0.44062082178E+01  0.21877821516E+02  0.51100000000E-03 0.  1.
         12    1    4    4    0    0 -0.70841933348E+01 -0.39345400112E+01  0.18620111466E+02  0.20307017293E+02  0.00000000000E+00 0. -1.
</event>
<event>
 8    1  0.1244838E-006  0.9118800E+02  0.7816164E-02  0.1184000E+00
        -11   -1    0    0    0    0  0.00000000000E+00  0.00000000000E+00  0.45593999997E+02  0.45594000000E+02  0.51100000000E-03 0. -1.
         11   -1    0    0    0    0 -0.00000000000E+00 -0.00000000000E+00 -0.45593999997E+02  0.45594000000E+02  0.51100000000E-03 0.  1.
         23    2    1    2    0    0  0.00000000000E+00  0.00000000000E+00  0.00000000000E+00  0.91188000000E+02  0.91188000000E+02 0.  0.
    9900012    2    3    3    0    0  0.10067706951E+02  0.20914047719E+02 -0.28583663904E+02  0.54367055452E+02  0.39999934513E+02 0.  0.
         12    1    3    3    0    0 -0.10067706951E+02 -0.20914047719E+02  0.28583663904E+02  0.36820944548E+02  0.00000000000E+00 0. -1.
         11    1    4    4    0    0 -0.51083866937E+00  0.16114140484E+02  0.29248347654E+01  0.16385394056E+02  0.51100000000E-03 0. -1.
        -11    1    4    4    0    0  0.27979653650E+00  0.17121872390E+01  0.20833494520E+01  0.27111282602E+01  0.51100000000E-03 0.  1.
        -12    1    4    4    0    0  0.10298749083E+02  0.30877199954E+01 -0.33591848122E+02  0.35270533136E+02  0.00000000000E+00 0.  1.
</event>
<event>
 8    1  0.1244838E-006  0.9118800E+02  0.7816164E-02  0.1184000E+00
        -11   -1    0    0    0    0  0.00000000000E+00  0.00000000000E+00  0.45593999997E+02  0.45594000000E+02  0.51100000000E-03 0.  1.
         11   -1    0    0    0    0 -0.00000000000E+00 -0.00000000000E+00 -0.45593999997E+02  0.45594000000E+02  0.51100000000E-03 0. -1.
         23    2    1    2    0    0  0.00000000000E+00  0.00000000000E+00  0.88817841970E-15  0.91188000000E+02  0.91188000000E+02 0.  0.
    9900012    2    3    3    0    0 -0.12128804893E+02  0.34493377541E+02 -0.43448991753E+01  0.54367093559E+02  0.40000021386E+02 0.  0.
         12    1    3    3    0    0  0.12128804893E+02 -0.34493377541E+02  0.43448991753E+01  0.36820906441E+02  0.00000000000E+00 0. -1.
         11    1    4    4    0    0  0.85516698136E+01  0.82919701564E+01 -0.12727156732E+02  0.17431819883E+02  0.51100000000E-03 0. -1.
        -11    1    4    4    0    0 -0.11819327449E+02  0.12685444455E+02 -0.24048537026E+01  0.17504294443E+02  0.51100000000E-03 0.  1.
        -12    1    4    4    0    0 -0.88611472579E+01  0.13515962929E+02  0.10787111260E+02  0.19430979233E+02  0.00000000000E+00 0.  1.
</event>
<event>
 8    1  0.1244838E-006  0.9118800E+02  0.7816164E-02  0.1184000E+00
        -11   -1    0    0    0    0  0.00000000000E+00  0.00000000000E+00  0.45593999997E+02  0.45594000000E+02  0.51100000000E-03 0.  1.
         11   -1    0    0    0    0 -0.00000000000E+00 -0.00000000000E+00 -0.45593999997E+02  0.45594000000E+02  0.51100000000E-03 0. -1.
         23    2    1    2    0    0  0.00000000000E+00 -0.35527136788E-14  0.35527136788E-14  0.91188000000E+02  0.91188000000E+02 0.  0.
    9900012    2    3    3    0    0 -0.17024078572E+02 -0.16119318127E+02  0.28392446459E+02  0.54367045585E+02  0.39999912019E+02 0.  0.
         12    1    3    3    0    0  0.17024078572E+02  0.16119318127E+02 -0.28392446459E+02  0.36820954415E+02  0.00000000000E+00 0. -1.
         11    1    4    4    0    0 -0.10830317616E+02 -0.20476422945E+02  0.19664287134E+02  0.30385257364E+02  0.51100000000E-03 0. -1.
        -11    1    4    4    0    0  0.74345439749E+01 -0.13519815346E+01  0.31893563120E+01  0.82019687960E+01  0.51100000000E-03 0.  1.
        -12    1    4    4    0    0 -0.13628304931E+02  0.57090863528E+01  0.55388030135E+01  0.15779819425E+02  0.00000000000E+00 0.  1.
</event>
<event>
 8    1  0.1244838E-006  0.9118800E+02  0.7816164E-02  0.1184000E+00
        -11   -1    0    0    0    0  0.00000000000E+00  0.00000000000E+00  0.45593999997E+02  0.45594000000E+02  0.51100000000E-03 0. -1.
         11   -1    0    0    0    0 -0.00000000000E+00 -0.00000000000E+00 -0.45593999997E+02  0.45594000000E+02  0.51100000000E-03 0.  1.
         23    2    1    2    0    0  0.35527136788E-14 -0.88817841970E-15  0.35527136788E-14  0.91188000000E+02  0.91188000000E+02 0.  0.
    9900012    2    3    3    0    0 -0.28019990055E+02  0.67102685898E+01 -0.22926678891E+02  0.54367079965E+02  0.39999990397E+02 0.  0.
         12    1    3    3    0    0  0.28019990055E+02 -0.67102685898E+01  0.22926678891E+02  0.36820920035E+02  0.00000000000E+00 0. -1.
         11    1    4    4    0    0  0.46480832267E+01  0.47154859148E+01 -0.19132153448E+02  0.20245487915E+02  0.51100000000E-03 0. -1.
        -11    1    4    4    0    0 -0.83847768804E+01  0.13780446099E+01  0.28078841502E+01  0.89491733664E+01  0.51100000000E-03 0.  1.
        -12    1    4    4    0    0 -0.24283296402E+02  0.61673806514E+00 -0.66024095924E+01  0.25172418684E+02  0.00000000000E+00 0.  1.
</event>
<event>
 8    1  0.1244838E-006  0.9118800E+02  0.7816164E-02  0.1184000E+00
        -11   -1    0    0    0    0  0.00000000000E+00  0.00000000000E+00  0.45593999997E+02  0.45594000000E+02  0.51100000000E-03 0. -1.
         11   -1    0    0    0    0 -0.00000000000E+00 -0.00000000000E+00 -0.45593999997E+02  0.45594000000E+02  0.51100000000E-03 0.  1.
         23    2    1    2    0    0  0.00000000000E+00 -0.35527136788E-14  0.00000000000E+00  0.91188000000E+02  0.91188000000E+02 0.  0.
    9900012    2    3    3    0    0  0.56885141863E+01 -0.14618986135E+02 -0.33312280270E+02  0.54367055335E+02  0.39999934246E+02 0.  0.
         12    1    3    3    0    0 -0.56885141863E+01  0.14618986135E+02  0.33312280270E+02  0.36820944665E+02  0.00000000000E+00 0. -1.
         11    1    4    4    0    0 -0.78321085970E-01  0.14114877950E+01 -0.19198010565E-01  0.14137895221E+01  0.51100000000E-03 0. -1.
        -11    1    4    4    0    0  0.29901012879E+01 -0.28304691530E+02 -0.24994286185E+02  0.37878893998E+02  0.51100000000E-03 0.  1.
         12    1    4    4    0    0  0.27767339843E+01  0.12274217600E+02 -0.82987960747E+01  0.15074371815E+02  0.00000000000E+00 0. -1.
</event>
<event>
 8    1  0.1244838E-006  0.9118800E+02  0.7816164E-02  0.1184000E+00
        -11   -1    0    0    0    0  0.00000000000E+00  0.00000000000E+00  0.45593999997E+02  0.45594000000E+02  0.51100000000E-03 0.  1.
         11   -1    0    0    0    0 -0.00000000000E+00 -0.00000000000E+00 -0.45593999997E+02  0.45594000000E+02  0.51100000000E-03 0. -1.
         23    2    1    2    0    0  0.35527136788E-14 -0.17763568394E-14  0.00000000000E+00  0.91188000000E+02  0.91188000000E+02 0.  0.
    9900012    2    3    3    0    0  0.26229119833E+02 -0.11845344171E+02  0.22967359413E+02  0.54367102344E+02  0.40000041415E+02 0.  0.
         12    1    3    3    0    0 -0.26229119833E+02  0.11845344171E+02 -0.22967359413E+02  0.36820897656E+02  0.00000000000E+00 0. -1.
         11    1    4    4    0    0  0.62116214654E+00  0.93539276500E+01  0.11769447609E+02  0.15046650862E+02  0.51100000000E-03 0. -1.
        -11    1    4    4    0    0  0.17800798985E+02 -0.45452292067E+01  0.12621384486E+01  0.18415225950E+02  0.51100000000E-03 0.  1.
         12    1    4    4    0    0  0.78071587014E+01 -0.16654042614E+02  0.99357733555E+01  0.20905225532E+02  0.00000000000E+00 0. -1.
</event>
<event>
 8    1  0.1244838E-006  0.9118800E+02  0.7816164E-02  0.1184000E+00
        -11   -1    0    0    0    0  0.00000000000E+00  0.00000000000E+00  0.45593999997E+02  0.45594000000E+02  0.51100000000E-03 0.  1.
         11   -1    0    0    0    0 -0.00000000000E+00 -0.00000000000E+00 -0.45593999997E+02  0.45594000000E+02  0.51100000000E-03 0. -1.
         23    2    1    2    0    0  0.35527136788E-14 -0.17763568394E-14  0.35527136788E-14  0.91188000000E+02  0.91188000000E+02 0.  0.
    9900012    2    3    3    0    0  0.29111627290E+02 -0.10261126360E+02  0.20074930745E+02  0.54367076572E+02  0.39999982662E+02 0.  0.
         12    1    3    3    0    0 -0.29111627290E+02  0.10261126360E+02 -0.20074930745E+02  0.36820923428E+02  0.00000000000E+00 0. -1.
         11    1    4    4    0    0 -0.63496272312E+00  0.12218817334E+01 -0.55202533323E+01  0.56894085584E+01  0.51100000000E-03 0. -1.
        -11    1    4    4    0    0  0.17852165342E+02 -0.11005371388E+02  0.58610880972E+00  0.20980026944E+02  0.51100000000E-03 0.  1.
        -12    1    4    4    0    0  0.11894424671E+02 -0.47763670555E+00  0.25009075267E+02  0.27697641070E+02  0.00000000000E+00 0.  1.
</event>
<event>
 8    1  0.1244838E-006  0.9118800E+02  0.7816164E-02  0.1184000E+00
        -11   -1    0    0    0    0  0.00000000000E+00  0.00000000000E+00  0.45593999997E+02  0.45594000000E+02  0.51100000000E-03 0. -1.
         11   -1    0    0    0    0 -0.00000000000E+00 -0.00000000000E+00 -0.45593999997E+02  0.45594000000E+02  0.51100000000E-03 0.  1.
         23    2    1    2    0    0  0.00000000000E+00  0.88817841970E-15  0.00000000000E+00  0.91188000000E+02  0.91188000000E+02 0.  0.
    9900012    2    3    3    0    0 -0.22311224968E+02  0.69213329985E+01  0.28461991855E+02  0.54367074015E+02  0.39999976832E+02 0.  0.
        -12    1    3    3    0    0  0.22311224968E+02 -0.69213329985E+01 -0.28461991855E+02  0.36820925985E+02  0.00000000000E+00 0.  1.
         11    1    4    4    0    0 -0.15477726813E+01  0.99288943703E+00 -0.76673808437E+01  0.78848055760E+01  0.51100000000E-03 0. -1.
        -11    1    4    4    0    0 -0.71389217415E+01  0.99537455762E+01  0.70876221076E+01  0.14151877686E+02  0.51100000000E-03 0.  1.
         12    1    4    4    0    0 -0.13624530546E+02 -0.40253020147E+01  0.29041750591E+02  0.32330390753E+02  0.00000000000E+00 0. -1.
</event>
<event>
 8    1  0.1244838E-006  0.9118800E+02  0.7816164E-02  0.1184000E+00
        -11   -1    0    0    0    0  0.00000000000E+00  0.00000000000E+00  0.45593999997E+02  0.45594000000E+02  0.51100000000E-03 0. -1.
         11   -1    0    0    0    0 -0.00000000000E+00 -0.00000000000E+00 -0.45593999997E+02  0.45594000000E+02  0.51100000000E-03 0.  1.
         23    2    1    2    0    0  0.00000000000E+00  0.35527136788E-14 -0.35527136788E-14  0.91188000000E+02  0.91188000000E+02 0.  0.
    9900012    2    3    3    0    0  0.52385766733E+01  0.30534669287E+02 -0.19899080312E+02  0.54367053362E+02  0.39999929750E+02 0.  0.
         12    1    3    3    0    0 -0.52385766733E+01 -0.30534669287E+02  0.19899080312E+02  0.36820946638E+02  0.00000000000E+00 0. -1.
         11    1    4    4    0    0 -0.24325478082E+01  0.16414130844E+02 -0.30443856369E+02  0.34672314187E+02  0.51100000000E-03 0.  1.
        -11    1    4    4    0    0  0.71041260181E+01  0.10446902573E+02  0.65225983747E+01  0.14217969956E+02  0.51100000000E-03 0. -1.
        -12    1    4    4    0    0  0.56699846350E+00  0.36736358698E+01  0.40221776827E+01  0.54767692185E+01  0.00000000000E+00 0.  1.
</event>
<event>
 8    1  0.1244838E-006  0.9118800E+02  0.7816164E-02  0.1184000E+00
        -11   -1    0    0    0    0  0.00000000000E+00  0.00000000000E+00  0.45593999997E+02  0.45594000000E+02  0.51100000000E-03 0.  1.
         11   -1    0    0    0    0 -0.00000000000E+00 -0.00000000000E+00 -0.45593999997E+02  0.45594000000E+02  0.51100000000E-03 0. -1.
         23    2    1    2    0    0  0.00000000000E+00 -0.88817841970E-15  0.00000000000E+00  0.91188000000E+02  0.91188000000E+02 0.  0.
    9900012    2    3    3    0    0  0.16705761648E+02 -0.73525478245E+01 -0.31978714606E+02  0.54367073618E+02  0.39999975927E+02 0.  0.
        -12    1    3    3    0    0 -0.16705761648E+02  0.73525478245E+01  0.31978714606E+02  0.36820926382E+02  0.00000000000E+00 0.  1.
         11    1    4    4    0    0  0.10943060344E+02 -0.33429125757E+01 -0.21139739862E+02  0.24037766866E+02  0.51100000000E-03 0. -1.
        -11    1    4    4    0    0  0.13646133137E+02 -0.10006628151E+02 -0.19743092752E+01  0.17036650314E+02  0.51100000000E-03 0.  1.
         12    1    4    4    0    0 -0.78834318324E+01  0.59969929022E+01 -0.88646654686E+01  0.13292656439E+02  0.00000000000E+00 0. -1.
</event>
<event>
 8    1  0.1244838E-006  0.9118800E+02  0.7816164E-02  0.1184000E+00
        -11   -1    0    0    0    0  0.00000000000E+00  0.00000000000E+00  0.45593999997E+02  0.45594000000E+02  0.51100000000E-03 0.  1.
         11   -1    0    0    0    0 -0.00000000000E+00 -0.00000000000E+00 -0.45593999997E+02  0.45594000000E+02  0.51100000000E-03 0. -1.
         23    2    1    2    0    0  0.35527136788E-14 -0.35527136788E-14  0.17763568394E-14  0.91188000000E+02  0.91188000000E+02 0.  0.
    9900012    2    3    3    0    0 -0.30085470642E+02  0.15910861720E+02 -0.14053045281E+02  0.54367093627E+02  0.40000021541E+02 0.  0.
        -12    1    3    3    0    0  0.30085470642E+02 -0.15910861720E+02  0.14053045281E+02  0.36820906373E+02  0.00000000000E+00 0.  1.
         11    1    4    4    0    0  0.46489721471E+01  0.46402734302E+01 -0.45975564343E+01  0.80176433545E+01  0.51100000000E-03 0. -1.
        -11    1    4    4    0    0 -0.15825661987E+02 -0.65229467927E+01 -0.10986852297E+02  0.20339895178E+02  0.51100000000E-03 0.  1.
         12    1    4    4    0    0 -0.18908780803E+02  0.17793535083E+02  0.15313634504E+01  0.26009555094E+02  0.00000000000E+00 0. -1.
</event>
<event>
 8    1  0.1244838E-006  0.9118800E+02  0.7816164E-02  0.1184000E+00
        -11   -1    0    0    0    0  0.00000000000E+00  0.00000000000E+00  0.45593999997E+02  0.45594000000E+02  0.51100000000E-03 0.  1.
         11   -1    0    0    0    0 -0.00000000000E+00 -0.00000000000E+00 -0.45593999997E+02  0.45594000000E+02  0.51100000000E-03 0. -1.
         23    2    1    2    0    0  0.35527136788E-14 -0.35527136788E-14  0.00000000000E+00  0.91188000000E+02  0.91188000000E+02 0.  0.
    9900012    2    3    3    0    0 -0.21375240724E+02  0.17972353726E+02 -0.23997303341E+02  0.54367123013E+02  0.40000088534E+02 0.  0.
        -12    1    3    3    0    0  0.21375240724E+02 -0.17972353726E+02  0.23997303341E+02  0.36820876987E+02  0.00000000000E+00 0.  1.
         11    1    4    4    0    0 -0.22256962580E+01  0.17076049120E+01 -0.18918960530E+02  0.19125812562E+02  0.51100000000E-03 0.  1.
        -11    1    4    4    0    0 -0.24867812450E+02  0.14473025446E+02 -0.52430686803E+01  0.29246646492E+02  0.51100000000E-03 0. -1.
         12    1    4    4    0    0  0.57182679844E+01  0.17917233680E+01  0.16472586947E+00  0.59946639590E+01  0.00000000000E+00 0. -1.
</event>
<event>
 8    1  0.1244838E-006  0.9118800E+02  0.7816164E-02  0.1184000E+00
        -11   -1    0    0    0    0  0.00000000000E+00  0.00000000000E+00  0.45593999997E+02  0.45594000000E+02  0.51100000000E-03 0.  1.
         11   -1    0    0    0    0 -0.00000000000E+00 -0.00000000000E+00 -0.45593999997E+02  0.45594000000E+02  0.51100000000E-03 0. -1.
         23    2    1    2    0    0  0.00000000000E+00  0.66613381478E-15  0.00000000000E+00  0.91188000000E+02  0.91188000000E+02 0.  0.
    9900012    2    3    3    0    0  0.33295542200E+02 -0.12448889022E+01  0.15672838486E+02  0.54367071916E+02  0.39999972047E+02 0.  0.
         12    1    3    3    0    0 -0.33295542200E+02  0.12448889022E+01 -0.15672838486E+02  0.36820928084E+02  0.00000000000E+00 0. -1.
         11    1    4    4    0    0 -0.22575340802E+01 -0.50938790284E+01  0.77392819785E+01  0.95362754513E+01  0.51100000000E-03 0. -1.
        -11    1    4    4    0    0  0.19666302500E+02  0.50915349180E+01  0.17006566757E+02  0.26493593470E+02  0.51100000000E-03 0.  1.
        -12    1    4    4    0    0  0.15886773780E+02 -0.12425447918E+01 -0.90730102491E+01  0.18337202995E+02  0.00000000000E+00 0.  1.
</event>
<event>
 8    1  0.1244838E-006  0.9118800E+02  0.7816164E-02  0.1184000E+00
        -11   -1    0    0    0    0  0.00000000000E+00  0.00000000000E+00  0.45593999997E+02  0.45594000000E+02  0.51100000000E-03 0.  1.
         11   -1    0    0    0    0 -0.00000000000E+00 -0.00000000000E+00 -0.45593999997E+02  0.45594000000E+02  0.51100000000E-03 0. -1.
         23    2    1    2    0    0 -0.66613381478E-15  0.00000000000E+00 -0.71054273576E-14  0.91188000000E+02  0.91188000000E+02 0.  0.
    9900012    2    3    3    0    0  0.13863545197E+01 -0.22476330941E+02  0.29131995023E+02  0.54367074354E+02  0.39999977604E+02 0.  0.
         12    1    3    3    0    0 -0.13863545197E+01  0.22476330941E+02 -0.29131995023E+02  0.36820925646E+02  0.00000000000E+00 0. -1.
         11    1    4    4    0    0 -0.49049132180E+01 -0.12735545648E+02  0.61746373758E+01  0.14979267125E+02  0.51100000000E-03 0. -1.
        -11    1    4    4    0    0  0.12550120744E+02 -0.16031066825E+02  0.77571107352E+01  0.21787000744E+02  0.51100000000E-03 0.  1.
        -12    1    4    4    0    0 -0.62588530057E+01  0.62902815320E+01  0.15200246912E+02  0.17600806484E+02  0.00000000000E+00 0.  1.
</event>
<event>
 8    1  0.1244838E-006  0.9118800E+02  0.7816164E-02  0.1184000E+00
        -11   -1    0    0    0    0  0.00000000000E+00  0.00000000000E+00  0.45593999997E+02  0.45594000000E+02  0.51100000000E-03 0. -1.
         11   -1    0    0    0    0 -0.00000000000E+00 -0.00000000000E+00 -0.45593999997E+02  0.45594000000E+02  0.51100000000E-03 0.  1.
         23    2    1    2    0    0  0.00000000000E+00  0.35527136788E-14  0.71054273576E-14  0.91188000000E+02  0.91188000000E+02 0.  0.
    9900012    2    3    3    0    0 -0.67911059909E+01  0.10512939421E+02  0.34628575643E+02  0.54367091987E+02  0.40000017802E+02 0.  0.
        -12    1    3    3    0    0  0.67911059909E+01 -0.10512939421E+02 -0.34628575643E+02  0.36820908013E+02  0.00000000000E+00 0.  1.
         11    1    4    4    0    0  0.55961540539E+01  0.48582149875E+01  0.74077604232E+01  0.10478268359E+02  0.51100000000E-03 0. -1.
        -11    1    4    4    0    0 -0.13470817688E+02  0.13778315105E+02  0.45740097034E+01  0.19804708060E+02  0.51100000000E-03 0.  1.
         12    1    4    4    0    0  0.10835576434E+01 -0.81235906712E+01  0.22646805516E+02  0.24084115567E+02  0.00000000000E+00 0. -1.
</event>
<event>
 8    1  0.1244838E-006  0.9118800E+02  0.7816164E-02  0.1184000E+00
        -11   -1    0    0    0    0  0.00000000000E+00  0.00000000000E+00  0.45593999997E+02  0.45594000000E+02  0.51100000000E-03 0.  1.
         11   -1    0    0    0    0 -0.00000000000E+00 -0.00000000000E+00 -0.45593999997E+02  0.45594000000E+02  0.51100000000E-03 0. -1.
         23    2    1    2    0    0  0.00000000000E+00  0.88817841970E-15  0.00000000000E+00  0.91188000000E+02  0.91188000000E+02 0.  0.
    9900012    2    3    3    0    0  0.70103989659E+01 -0.77133785622E+01 -0.35314858007E+02  0.54367067114E+02  0.39999961100E+02 0.  0.
        -12    1    3    3    0    0 -0.70103989659E+01  0.77133785622E+01  0.35314858007E+02  0.36820932886E+02  0.00000000000E+00 0.  1.
         11    1    4    4    0    0 -0.10656555315E+02 -0.13233151957E+02 -0.76043464084E+01  0.18614633127E+02  0.51100000000E-03 0. -1.
        -11    1    4    4    0    0  0.10551785382E+02  0.75535589809E+01 -0.94605647127E+01  0.16059225167E+02  0.51100000000E-03 0.  1.
         12    1    4    4    0    0  0.71151688985E+01 -0.20337855865E+01 -0.18249946886E+02  0.19693208820E+02  0.00000000000E+00 0. -1.
</event>
<event>
 8    1  0.1244838E-006  0.9118800E+02  0.7816164E-02  0.1184000E+00
        -11   -1    0    0    0    0  0.00000000000E+00  0.00000000000E+00  0.45593999997E+02  0.45594000000E+02  0.51100000000E-03 0. -1.
         11   -1    0    0    0    0 -0.00000000000E+00 -0.00000000000E+00 -0.45593999997E+02  0.45594000000E+02  0.51100000000E-03 0.  1.
         23    2    1    2    0    0  0.00000000000E+00  0.00000000000E+00 -0.66613381478E-15  0.91188000000E+02  0.91188000000E+02 0.  0.
    9900012    2    3    3    0    0  0.35702004731E+02  0.89743974816E+01 -0.77959229868E+00  0.54367072308E+02  0.39999972939E+02 0.  0.
        -12    1    3    3    0    0 -0.35702004731E+02 -0.89743974816E+01  0.77959229868E+00  0.36820927692E+02  0.00000000000E+00 0.  1.
         11    1    4    4    0    0  0.41080298489E+02  0.13574064112E+02 -0.58908768662E+01  0.43664042082E+02  0.51100000000E-03 0. -1.
        -11    1    4    4    0    0 -0.11951446510E+01 -0.50407746559E+01  0.31383365406E+01  0.60569741927E+01  0.51100000000E-03 0.  1.
         12    1    4    4    0    0 -0.41831491067E+01  0.44110802513E+00  0.19729480270E+01  0.46460560324E+01  0.00000000000E+00 0. -1.
</event>
<event>
 8    1  0.1244838E-006  0.9118800E+02  0.7816164E-02  0.1184000E+00
        -11   -1    0    0    0    0  0.00000000000E+00  0.00000000000E+00  0.45593999997E+02  0.45594000000E+02  0.51100000000E-03 0. -1.
         11   -1    0    0    0    0 -0.00000000000E+00 -0.00000000000E+00 -0.45593999997E+02  0.45594000000E+02  0.51100000000E-03 0.  1.
         23    2    1    2    0    0  0.00000000000E+00  0.00000000000E+00  0.66613381478E-15  0.91188000000E+02  0.91188000000E+02 0.  0.
    9900012    2    3    3    0    0  0.36179080500E+02 -0.67548948796E+01  0.11065393714E+01  0.54367096969E+02  0.40000029160E+02 0.  0.
         12    1    3    3    0    0 -0.36179080500E+02  0.67548948796E+01 -0.11065393714E+01  0.36820903031E+02  0.00000000000E+00 0. -1.
         11    1    4    4    0    0 -0.56883178446E+01 -0.22315615788E+01  0.22860260953E+01  0.65240127645E+01  0.51100000000E-03 0. -1.
        -11    1    4    4    0    0  0.95107068057E+01  0.57838965082E+01 -0.73353088832E+01  0.13330932429E+02  0.51100000000E-03 0.  1.
        -12    1    4    4    0    0  0.32356691539E+02 -0.10307229809E+02  0.61558221593E+01  0.34512151775E+02  0.00000000000E+00 0.  1.
</event>
<event>
 8    1  0.1244838E-006  0.9118800E+02  0.7816164E-02  0.1184000E+00
        -11   -1    0    0    0    0  0.00000000000E+00  0.00000000000E+00  0.45593999997E+02  0.45594000000E+02  0.51100000000E-03 0.  1.
         11   -1    0    0    0    0 -0.00000000000E+00 -0.00000000000E+00 -0.45593999997E+02  0.45594000000E+02  0.51100000000E-03 0. -1.
         23    2    1    2    0    0 -0.35527136788E-14  0.22204460493E-15  0.35527136788E-14  0.91188000000E+02  0.91188000000E+02 0.  0.
    9900012    2    3    3    0    0 -0.30987580908E+02 -0.11839967741E+01  0.19853141256E+02  0.54367092398E+02  0.40000018740E+02 0.  0.
        -12    1    3    3    0    0  0.30987580908E+02  0.11839967741E+01 -0.19853141256E+02  0.36820907602E+02  0.00000000000E+00 0.  1.
         11    1    4    4    0    0 -0.12655027731E+02 -0.16669659700E+02  0.17500268507E+02  0.27281617978E+02  0.51100000000E-03 0. -1.
        -11    1    4    4    0    0  0.17592894799E+01  0.35528760035E+00  0.51221444924E+00  0.18664652839E+01  0.51100000000E-03 0.  1.
        -12    1    4    4    0    0 -0.20091842656E+02  0.15130375326E+02  0.18406583001E+01  0.25219009136E+02  0.00000000000E+00 0.  1.
</event>
<event>
 8    1  0.1244838E-006  0.9118800E+02  0.7816164E-02  0.1184000E+00
        -11   -1    0    0    0    0  0.00000000000E+00  0.00000000000E+00  0.45593999997E+02  0.45594000000E+02  0.51100000000E-03 0.  1.
         11   -1    0    0    0    0 -0.00000000000E+00 -0.00000000000E+00 -0.45593999997E+02  0.45594000000E+02  0.51100000000E-03 0. -1.
         23    2    1    2    0    0  0.26645352591E-14  0.17763568394E-14  0.00000000000E+00  0.91188000000E+02  0.91188000000E+02 0.  0.
    9900012    2    3    3    0    0 -0.73387977005E+01 -0.14148658757E+02  0.33192429248E+02  0.54367083991E+02  0.39999999575E+02 0.  0.
         12    1    3    3    0    0  0.73387977005E+01  0.14148658757E+02 -0.33192429248E+02  0.36820916009E+02  0.00000000000E+00 0. -1.
         11    1    4    4    0    0  0.73320918735E+01 -0.37114926286E+01  0.14991730326E+02  0.17096395152E+02  0.51100000000E-03 0.  1.
        -11    1    4    4    0    0 -0.10672019286E+02  0.28867936502E+01 -0.34101570884E+01  0.11569561135E+02  0.51100000000E-03 0. -1.
         12    1    4    4    0    0 -0.39988702880E+01 -0.13323959779E+02  0.21610856011E+02  0.25701127705E+02  0.00000000000E+00 0. -1.
</event>
<event>
 8    1  0.1244838E-006  0.9118800E+02  0.7816164E-02  0.1184000E+00
        -11   -1    0    0    0    0  0.00000000000E+00  0.00000000000E+00  0.45593999997E+02  0.45594000000E+02  0.51100000000E-03 0.  1.
         11   -1    0    0    0    0 -0.00000000000E+00 -0.00000000000E+00 -0.45593999997E+02  0.45594000000E+02  0.51100000000E-03 0. -1.
         23    2    1    2    0    0  0.00000000000E+00  0.00000000000E+00 -0.44408920985E-15  0.91188000000E+02  0.91188000000E+02 0.  0.
    9900012    2    3    3    0    0 -0.20296978368E+02 -0.30572901519E+02 -0.30184017562E+01  0.54367076772E+02  0.39999983118E+02 0.  0.
         12    1    3    3    0    0  0.20296978368E+02  0.30572901519E+02  0.30184017562E+01  0.36820923228E+02  0.00000000000E+00 0. -1.
         11    1    4    4    0    0 -0.24179834782E+02 -0.11734310407E+02 -0.97178817772E+01  0.28579637460E+02  0.51100000000E-03 0. -1.
        -11    1    4    4    0    0  0.34116963814E+01 -0.11477022023E+02 -0.41461712081E+01  0.12670929037E+02  0.51100000000E-03 0.  1.
         12    1    4    4    0    0  0.47116003295E+00 -0.73615690892E+01  0.10845651229E+02  0.13116510276E+02  0.00000000000E+00 0. -1.
</event>
<event>
 8    1  0.1244838E-006  0.9118800E+02  0.7816164E-02  0.1184000E+00
        -11   -1    0    0    0    0  0.00000000000E+00  0.00000000000E+00  0.45593999997E+02  0.45594000000E+02  0.51100000000E-03 0. -1.
         11   -1    0    0    0    0 -0.00000000000E+00 -0.00000000000E+00 -0.45593999997E+02  0.45594000000E+02  0.51100000000E-03 0.  1.
         23    2    1    2    0    0  0.35527136788E-14  0.00000000000E+00  0.00000000000E+00  0.91188000000E+02  0.91188000000E+02 0.  0.
    9900012    2    3    3    0    0  0.17671027929E+02  0.28259689437E+02  0.15649358282E+02  0.54367113403E+02  0.40000066624E+02 0.  0.
        -12    1    3    3    0    0 -0.17671027929E+02 -0.28259689437E+02 -0.15649358282E+02  0.36820886597E+02  0.00000000000E+00 0.  1.
         11    1    4    4    0    0 -0.88231112716E+01  0.16796294352E+00  0.27453859848E+01  0.92418963707E+01  0.51100000000E-03 0. -1.
        -11    1    4    4    0    0  0.13449057194E+02  0.18130914880E+02 -0.23776402352E+01  0.22699347726E+02  0.51100000000E-03 0.  1.
         12    1    4    4    0    0  0.13045082006E+02  0.99608116133E+01  0.15281612533E+02  0.22425869306E+02  0.00000000000E+00 0. -1.
</event>
<event>
 8    1  0.1244838E-006  0.9118800E+02  0.7816164E-02  0.1184000E+00
        -11   -1    0    0    0    0  0.00000000000E+00  0.00000000000E+00  0.45593999997E+02  0.45594000000E+02  0.51100000000E-03 0.  1.
         11   -1    0    0    0    0 -0.00000000000E+00 -0.00000000000E+00 -0.45593999997E+02  0.45594000000E+02  0.51100000000E-03 0. -1.
         23    2    1    2    0    0  0.00000000000E+00  0.00000000000E+00  0.00000000000E+00  0.91188000000E+02  0.91188000000E+02 0.  0.
    9900012    2    3    3    0    0 -0.18339454523E+02  0.17926164784E+02  0.26421538384E+02  0.54367072980E+02  0.39999974472E+02 0.  0.
        -12    1    3    3    0    0  0.18339454523E+02 -0.17926164784E+02 -0.26421538384E+02  0.36820927020E+02  0.00000000000E+00 0.  1.
         11    1    4    4    0    0  0.10610539784E+01 -0.48354452233E+01 -0.11323462312E+01  0.50783436573E+01  0.51100000000E-03 0. -1.
        -11    1    4    4    0    0 -0.15690999327E+02  0.67252063284E+01  0.28032872344E+02  0.32821910245E+02  0.51100000000E-03 0.  1.
        -12    1    4    4    0    0 -0.37095091745E+01  0.16036403679E+02 -0.47898772924E+00  0.16466819077E+02  0.00000000000E+00 0.  1.
</event>
<event>
 8    1  0.1244838E-006  0.9118800E+02  0.7816164E-02  0.1184000E+00
        -11   -1    0    0    0    0  0.00000000000E+00  0.00000000000E+00  0.45593999997E+02  0.45594000000E+02  0.51100000000E-03 0.  1.
         11   -1    0    0    0    0 -0.00000000000E+00 -0.00000000000E+00 -0.45593999997E+02  0.45594000000E+02  0.51100000000E-03 0. -1.
         23    2    1    2    0    0  0.17763568394E-14  0.00000000000E+00  0.00000000000E+00  0.91188000000E+02  0.91188000000E+02 0.  0.
    9900012    2    3    3    0    0  0.13839805849E+02 -0.65189171272E+01 -0.33492411899E+02  0.54367107001E+02  0.40000052031E+02 0.  0.
        -12    1    3    3    0    0 -0.13839805849E+02  0.65189171272E+01  0.33492411899E+02  0.36820892999E+02  0.00000000000E+00 0.  1.
         11    1    4    4    0    0 -0.10631271682E+02 -0.89435583185E+01 -0.10116608176E+02  0.17185951653E+02  0.51100000000E-03 0. -1.
        -11    1    4    4    0    0 -0.40068923913E+00  0.24370823646E+01  0.69827839081E+00  0.25666155322E+01  0.51100000000E-03 0.  1.
        -12    1    4    4    0    0  0.24871766770E+02 -0.12441173280E-01 -0.24074082113E+02  0.34614539816E+02  0.00000000000E+00 0.  1.
</event>
<event>
 8    1  0.1244838E-006  0.9118800E+02  0.7816164E-02  0.1184000E+00
        -11   -1    0    0    0    0  0.00000000000E+00  0.00000000000E+00  0.45593999997E+02  0.45594000000E+02  0.51100000000E-03 0. -1.
         11   -1    0    0    0    0 -0.00000000000E+00 -0.00000000000E+00 -0.45593999997E+02  0.45594000000E+02  0.51100000000E-03 0.  1.
         23    2    1    2    0    0  0.00000000000E+00  0.00000000000E+00  0.00000000000E+00  0.91188000000E+02  0.91188000000E+02 0.  0.
    9900012    2    3    3    0    0 -0.86728211478E+01  0.22282375654E+02  0.28001026155E+02  0.54367088045E+02  0.40000008817E+02 0.  0.
        -12    1    3    3    0    0  0.86728211478E+01 -0.22282375654E+02 -0.28001026155E+02  0.36820911955E+02  0.00000000000E+00 0.  1.
         11    1    4    4    0    0 -0.90528503929E+01  0.16051907416E+02  0.20957096816E+02  0.27907306197E+02  0.51100000000E-03 0. -1.
        -11    1    4    4    0    0  0.11037750574E+02  0.86285531730E+01  0.11761099128E+01  0.14059413302E+02  0.51100000000E-03 0.  1.
         12    1    4    4    0    0 -0.10657721329E+02 -0.23980849349E+01  0.58678194262E+01  0.12400368547E+02  0.00000000000E+00 0. -1.
</event>
<event>
 8    1  0.1244838E-006  0.9118800E+02  0.7816164E-02  0.1184000E+00
        -11   -1    0    0    0    0  0.00000000000E+00  0.00000000000E+00  0.45593999997E+02  0.45594000000E+02  0.51100000000E-03 0.  1.
         11   -1    0    0    0    0 -0.00000000000E+00 -0.00000000000E+00 -0.45593999997E+02  0.45594000000E+02  0.51100000000E-03 0. -1.
         23    2    1    2    0    0  0.00000000000E+00  0.00000000000E+00  0.00000000000E+00  0.91188000000E+02  0.91188000000E+02 0.  0.
    9900012    2    3    3    0    0  0.95159787052E+01  0.27209283892E+02 -0.22910298666E+02  0.54367071636E+02  0.39999971408E+02 0.  0.
        -12    1    3    3    0    0 -0.95159787052E+01 -0.27209283892E+02  0.22910298666E+02  0.36820928364E+02  0.00000000000E+00 0.  1.
         11    1    4    4    0    0 -0.70524817115E+01 -0.33094327500E+01 -0.66676684172E+01  0.10254152612E+02  0.51100000000E-03 0. -1.
        -11    1    4    4    0    0  0.10065839962E+02  0.23175338801E+02 -0.15085367602E+00  0.25267374612E+02  0.51100000000E-03 0.  1.
         12    1    4    4    0    0  0.65026204548E+01  0.73433778414E+01 -0.16091776573E+02  0.18845544412E+02  0.00000000000E+00 0. -1.
</event>
<event>
 8    1  0.1244838E-006  0.9118800E+02  0.7816164E-02  0.1184000E+00
        -11   -1    0    0    0    0  0.00000000000E+00  0.00000000000E+00  0.45593999997E+02  0.45594000000E+02  0.51100000000E-03 0. -1.
         11   -1    0    0    0    0 -0.00000000000E+00 -0.00000000000E+00 -0.45593999997E+02  0.45594000000E+02  0.51100000000E-03 0.  1.
         23    2    1    2    0    0  0.00000000000E+00  0.88817841970E-15  0.00000000000E+00  0.91188000000E+02  0.91188000000E+02 0.  0.
    9900012    2    3    3    0    0  0.12113414647E+02  0.55242334144E+01  0.34329693741E+02  0.54367084184E+02  0.40000000014E+02 0.  0.
        -12    1    3    3    0    0 -0.12113414647E+02 -0.55242334144E+01 -0.34329693741E+02  0.36820915816E+02  0.00000000000E+00 0.  1.
         11    1    4    4    0    0  0.82984656990E+01  0.40954990975E+01  0.29275065603E+02  0.30702884427E+02  0.51100000000E-03 0. -1.
        -11    1    4    4    0    0  0.12995511964E+02  0.39767741975E+01  0.30052745309E+01  0.13918683109E+02  0.51100000000E-03 0.  1.
         12    1    4    4    0    0 -0.91805630158E+01 -0.25480398806E+01  0.20493536063E+01  0.97455166474E+01  0.00000000000E+00 0. -1.
</event>
<event>
 8    1  0.1244838E-006  0.9118800E+02  0.7816164E-02  0.1184000E+00
        -11   -1    0    0    0    0  0.00000000000E+00  0.00000000000E+00  0.45593999997E+02  0.45594000000E+02  0.51100000000E-03 0.  1.
         11   -1    0    0    0    0 -0.00000000000E+00 -0.00000000000E+00 -0.45593999997E+02  0.45594000000E+02  0.51100000000E-03 0. -1.
         23    2    1    2    0    0  0.35527136788E-14  0.35527136788E-14  0.00000000000E+00  0.91188000000E+02  0.91188000000E+02 0.  0.
    9900012    2    3    3    0    0 -0.20474993721E+02 -0.25469004825E+02 -0.16967059347E+02  0.54367127148E+02  0.40000097960E+02 0.  0.
         12    1    3    3    0    0  0.20474993721E+02  0.25469004825E+02  0.16967059347E+02  0.36820872852E+02  0.00000000000E+00 0. -1.
         11    1    4    4    0    0  0.57083460488E+01 -0.11485888682E+02 -0.76670071779E+01  0.14943020202E+02  0.51100000000E-03 0. -1.
        -11    1    4    4    0    0 -0.16979834042E+02 -0.20805394395E+02 -0.64423955722E+01  0.27616727920E+02  0.51100000000E-03 0.  1.
         12    1    4    4    0    0 -0.92035057283E+01  0.68222782524E+01 -0.28576565972E+01  0.11807379026E+02  0.00000000000E+00 0. -1.
</event>
<event>
 8    1  0.1244838E-006  0.9118800E+02  0.7816164E-02  0.1184000E+00
        -11   -1    0    0    0    0  0.00000000000E+00  0.00000000000E+00  0.45593999997E+02  0.45594000000E+02  0.51100000000E-03 0. -1.
         11   -1    0    0    0    0 -0.00000000000E+00 -0.00000000000E+00 -0.45593999997E+02  0.45594000000E+02  0.51100000000E-03 0.  1.
         23    2    1    2    0    0  0.35527136788E-14  0.35527136788E-14  0.35527136788E-14  0.91188000000E+02  0.91188000000E+02 0.  0.
    9900012    2    3    3    0    0  0.15035594515E+02  0.24136110604E+02  0.23391416637E+02  0.54367091404E+02  0.40000016474E+02 0.  0.
        -12    1    3    3    0    0 -0.15035594515E+02 -0.24136110604E+02 -0.23391416637E+02  0.36820908596E+02  0.00000000000E+00 0.  1.
         11    1    4    4    0    0 -0.87738112556E+01  0.92741731744E+01  0.50986945065E+01  0.13747244740E+02  0.51100000000E-03 0. -1.
        -11    1    4    4    0    0  0.10787541871E+01 -0.11854117823E+01 -0.44204488399E+01  0.47020506056E+01  0.51100000000E-03 0.  1.
        -12    1    4    4    0    0  0.22730651584E+02  0.16047349212E+02  0.22713170971E+02  0.35917796058E+02  0.00000000000E+00 0.  1.
</event>
<event>
 8    1  0.1244838E-006  0.9118800E+02  0.7816164E-02  0.1184000E+00
        -11   -1    0    0    0    0  0.00000000000E+00  0.00000000000E+00  0.45593999997E+02  0.45594000000E+02  0.51100000000E-03 0. -1.
         11   -1    0    0    0    0 -0.00000000000E+00 -0.00000000000E+00 -0.45593999997E+02  0.45594000000E+02  0.51100000000E-03 0.  1.
         23    2    1    2    0    0 -0.17763568394E-14 -0.44408920985E-15  0.00000000000E+00  0.91188000000E+02  0.91188000000E+02 0.  0.
    9900012    2    3    3    0    0 -0.12796522223E+02 -0.33631104120E+01 -0.34361593319E+02  0.54367074046E+02  0.39999976903E+02 0.  0.
         12    1    3    3    0    0  0.12796522223E+02  0.33631104120E+01  0.34361593319E+02  0.36820925954E+02  0.00000000000E+00 0. -1.
         11    1    4    4    0    0  0.13912393428E+01  0.87168447581E+01  0.20945131148E+01  0.90722607378E+01  0.51100000000E-03 0. -1.
        -11    1    4    4    0    0 -0.22691670371E+01 -0.14534981512E+02 -0.20131074840E+02  0.24933410940E+02  0.51100000000E-03 0.  1.
        -12    1    4    4    0    0 -0.11918594529E+02  0.24550263422E+01 -0.16325031594E+02  0.20361402369E+02  0.00000000000E+00 0.  1.
</event>
<event>
 8    1  0.1244838E-006  0.9118800E+02  0.7816164E-02  0.1184000E+00
        -11   -1    0    0    0    0  0.00000000000E+00  0.00000000000E+00  0.45593999997E+02  0.45594000000E+02  0.51100000000E-03 0.  1.
         11   -1    0    0    0    0 -0.00000000000E+00 -0.00000000000E+00 -0.45593999997E+02  0.45594000000E+02  0.51100000000E-03 0. -1.
         23    2    1    2    0    0 -0.17763568394E-14  0.00000000000E+00  0.00000000000E+00  0.91188000000E+02  0.91188000000E+02 0.  0.
    9900012    2    3    3    0    0 -0.13232487832E+02  0.12490444863E+02  0.32010472102E+02  0.54367078348E+02  0.39999986709E+02 0.  0.
         12    1    3    3    0    0  0.13232487832E+02 -0.12490444863E+02 -0.32010472102E+02  0.36820921652E+02  0.00000000000E+00 0. -1.
         11    1    4    4    0    0 -0.36440776723E+01  0.12840965553E+02  0.13920483654E+02  0.19285993981E+02  0.51100000000E-03 0. -1.
        -11    1    4    4    0    0  0.58515609985E+01  0.98735485201E+01  0.80226638621E+01  0.14003244703E+02  0.51100000000E-03 0.  1.
        -12    1    4    4    0    0 -0.15439971159E+02 -0.10224069210E+02  0.10067324586E+02  0.21077839664E+02  0.00000000000E+00 0.  1.
</event>
<event>
 8    1  0.1244838E-006  0.9118800E+02  0.7816164E-02  0.1184000E+00
        -11   -1    0    0    0    0  0.00000000000E+00  0.00000000000E+00  0.45593999997E+02  0.45594000000E+02  0.51100000000E-03 0. -1.
         11   -1    0    0    0    0 -0.00000000000E+00 -0.00000000000E+00 -0.45593999997E+02  0.45594000000E+02  0.51100000000E-03 0.  1.
         23    2    1    2    0    0  0.00000000000E+00  0.35527136788E-14  0.17763568394E-14  0.91188000000E+02  0.91188000000E+02 0.  0.
    9900012    2    3    3    0    0  0.17936316703E+02  0.29563406991E+02  0.12651980818E+02  0.54367094139E+02  0.40000022708E+02 0.  0.
         12    1    3    3    0    0 -0.17936316703E+02 -0.29563406991E+02 -0.12651980818E+02  0.36820905861E+02  0.00000000000E+00 0. -1.
         11    1    4    4    0    0  0.10297698604E+02  0.16511777707E+01 -0.20330182287E+01  0.10625542242E+02  0.51100000000E-03 0. -1.
        -11    1    4    4    0    0  0.11079469794E+02  0.10354842875E+02 -0.60742728432E+01  0.16336285156E+02  0.51100000000E-03 0.  1.
         12    1    4    4    0    0 -0.34408516943E+01  0.17557386346E+02  0.20759271890E+02  0.27405266740E+02  0.00000000000E+00 0. -1.
</event>
<event>
 8    1  0.1244838E-006  0.9118800E+02  0.7816164E-02  0.1184000E+00
        -11   -1    0    0    0    0  0.00000000000E+00  0.00000000000E+00  0.45593999997E+02  0.45594000000E+02  0.51100000000E-03 0.  1.
         11   -1    0    0    0    0 -0.00000000000E+00 -0.00000000000E+00 -0.45593999997E+02  0.45594000000E+02  0.51100000000E-03 0. -1.
         23    2    1    2    0    0 -0.44408920985E-15  0.44408920985E-15 -0.71054273576E-14  0.91188000000E+02  0.91188000000E+02 0.  0.
    9900012    2    3    3    0    0  0.29233275119E+01  0.18987271072E+01  0.36655539973E+02  0.54367087205E+02  0.40000006901E+02 0.  0.
         12    1    3    3    0    0 -0.29233275119E+01 -0.18987271072E+01 -0.36655539973E+02  0.36820912795E+02  0.00000000000E+00 0. -1.
         11    1    4    4    0    0  0.13098950671E+02  0.10734188509E+02  0.33393952447E+02  0.37442774629E+02  0.51100000000E-03 0. -1.
        -11    1    4    4    0    0 -0.41384431228E+01 -0.55279524904E+01  0.63483309605E+01  0.93801000241E+01  0.51100000000E-03 0.  1.
         12    1    4    4    0    0 -0.60371800362E+01 -0.33075089113E+01 -0.30867434349E+01  0.75442125514E+01  0.00000000000E+00 0. -1.
</event>
<event>
 8    1  0.1244838E-006  0.9118800E+02  0.7816164E-02  0.1184000E+00
        -11   -1    0    0    0    0  0.00000000000E+00  0.00000000000E+00  0.45593999997E+02  0.45594000000E+02  0.51100000000E-03 0.  1.
         11   -1    0    0    0    0 -0.00000000000E+00 -0.00000000000E+00 -0.45593999997E+02  0.45594000000E+02  0.51100000000E-03 0. -1.
         23    2    1    2    0    0 -0.88817841970E-15 -0.71054273576E-14  0.35527136788E-14  0.91188000000E+02  0.91188000000E+02 0.  0.
    9900012    2    3    3    0    0  0.49337859401E+01  0.33275026863E+02 -0.14973647978E+02  0.54367084881E+02  0.40000001603E+02 0.  0.
        -12    1    3    3    0    0 -0.49337859401E+01 -0.33275026863E+02  0.14973647978E+02  0.36820915119E+02  0.00000000000E+00 0.  1.
         11    1    4    4    0    0  0.72434701567E+01  0.16511527965E+01 -0.10502119611E+01  0.75031400688E+01  0.51100000000E-03 0. -1.
        -11    1    4    4    0    0 -0.48496313583E+01  0.20596875839E+02  0.76519767037E+01  0.22501177000E+02  0.51100000000E-03 0.  1.
         12    1    4    4    0    0  0.25399471418E+01  0.11026998227E+02 -0.21575412721E+02  0.24362767812E+02  0.00000000000E+00 0. -1.
</event>
<event>
 8    1  0.1244838E-006  0.9118800E+02  0.7816164E-02  0.1184000E+00
        -11   -1    0    0    0    0  0.00000000000E+00  0.00000000000E+00  0.45593999997E+02  0.45594000000E+02  0.51100000000E-03 0. -1.
         11   -1    0    0    0    0 -0.00000000000E+00 -0.00000000000E+00 -0.45593999997E+02  0.45594000000E+02  0.51100000000E-03 0.  1.
         23    2    1    2    0    0 -0.35527136788E-14  0.22204460493E-14  0.35527136788E-14  0.91188000000E+02  0.91188000000E+02 0.  0.
    9900012    2    3    3    0    0  0.21075271895E+02 -0.33068009533E+01 -0.30011305295E+02  0.54367075739E+02  0.39999980761E+02 0.  0.
         12    1    3    3    0    0 -0.21075271895E+02  0.33068009533E+01  0.30011305295E+02  0.36820924261E+02  0.00000000000E+00 0. -1.
         11    1    4    4    0    0  0.80200015817E+01  0.17495512729E+02 -0.10503549851E+02  0.21925737177E+02  0.51100000000E-03 0. -1.
        -11    1    4    4    0    0  0.11730079311E+02 -0.15323146272E+02 -0.10932382569E+02  0.22179056815E+02  0.51100000000E-03 0.  1.
         12    1    4    4    0    0  0.13251910024E+01 -0.54791674108E+01 -0.85753728751E+01  0.10262281747E+02  0.00000000000E+00 0. -1.
</event>
<event>
 8    1  0.1244838E-006  0.9118800E+02  0.7816164E-02  0.1184000E+00
        -11   -1    0    0    0    0  0.00000000000E+00  0.00000000000E+00  0.45593999997E+02  0.45594000000E+02  0.51100000000E-03 0.  1.
         11   -1    0    0    0    0 -0.00000000000E+00 -0.00000000000E+00 -0.45593999997E+02  0.45594000000E+02  0.51100000000E-03 0. -1.
         23    2    1    2    0    0 -0.71054273576E-14 -0.17763568394E-14  0.00000000000E+00  0.91188000000E+02  0.91188000000E+02 0.  0.
    9900012    2    3    3    0    0  0.35305150130E+02  0.84063187379E+01 -0.62177227784E+01  0.54367083432E+02  0.39999998299E+02 0.  0.
         12    1    3    3    0    0 -0.35305150130E+02 -0.84063187379E+01  0.62177227784E+01  0.36820916568E+02  0.00000000000E+00 0. -1.
         11    1    4    4    0    0  0.15503984154E+02  0.33834788884E+01 -0.11422201092E+02  0.19552189956E+02  0.51100000000E-03 0. -1.
        -11    1    4    4    0    0  0.12406379494E+02  0.10521019009E+02  0.14452476200E+02  0.21759691214E+02  0.51100000000E-03 0.  1.
         12    1    4    4    0    0  0.73947864814E+01 -0.54981791599E+01 -0.92479978864E+01  0.13055202261E+02  0.00000000000E+00 0. -1.
</event>
<event>
 8    1  0.1244838E-006  0.9118800E+02  0.7816164E-02  0.1184000E+00
        -11   -1    0    0    0    0  0.00000000000E+00  0.00000000000E+00  0.45593999997E+02  0.45594000000E+02  0.51100000000E-03 0. -1.
         11   -1    0    0    0    0 -0.00000000000E+00 -0.00000000000E+00 -0.45593999997E+02  0.45594000000E+02  0.51100000000E-03 0.  1.
         23    2    1    2    0    0 -0.17763568394E-14  0.22204460493E-15  0.71054273576E-14  0.91188000000E+02  0.91188000000E+02 0.  0.
    9900012    2    3    3    0    0 -0.58092145946E+01 -0.12685638968E+01  0.36337635494E+02  0.54367082278E+02  0.39999995670E+02 0.  0.
        -12    1    3    3    0    0  0.58092145946E+01  0.12685638968E+01 -0.36337635494E+02  0.36820917722E+02  0.00000000000E+00 0.  1.
         11    1    4    4    0    0 -0.86290627644E+00  0.47668403162E+01  0.17724289567E+02  0.18374379303E+02  0.51100000000E-03 0. -1.
        -11    1    4    4    0    0 -0.11983595371E+02  0.18406364853E+01  0.21813615201E+02  0.24956528386E+02  0.51100000000E-03 0.  1.
        -12    1    4    4    0    0  0.70372870527E+01 -0.78760406984E+01 -0.32002692738E+01  0.11036174589E+02  0.00000000000E+00 0.  1.
</event>
<event>
 8    1  0.1244838E-006  0.9118800E+02  0.7816164E-02  0.1184000E+00
        -11   -1    0    0    0    0  0.00000000000E+00  0.00000000000E+00  0.45593999997E+02  0.45594000000E+02  0.51100000000E-03 0.  1.
         11   -1    0    0    0    0 -0.00000000000E+00 -0.00000000000E+00 -0.45593999997E+02  0.45594000000E+02  0.51100000000E-03 0. -1.
         23    2    1    2    0    0  0.13322676296E-14  0.00000000000E+00 -0.17763568394E-14  0.91188000000E+02  0.91188000000E+02 0.  0.
    9900012    2    3    3    0    0 -0.27921329804E+01 -0.33384257282E+02 -0.15279921433E+02  0.54367073343E+02  0.39999975300E+02 0.  0.
        -12    1    3    3    0    0  0.27921329804E+01  0.33384257282E+02  0.15279921433E+02  0.36820926657E+02  0.00000000000E+00 0.  1.
         11    1    4    4    0    0  0.36255569209E+01 -0.38321343103E+01 -0.59588081933E+01  0.79584742071E+01  0.51100000000E-03 0. -1.
        -11    1    4    4    0    0  0.12382336963E+02 -0.15209349528E+02  0.28420677833E+01  0.19817263465E+02  0.51100000000E-03 0.  1.
        -12    1    4    4    0    0 -0.18800026864E+02 -0.14342773444E+02 -0.12163181023E+02  0.26591335671E+02  0.00000000000E+00 0.  1.
</event>
<event>
 8    1  0.1244838E-006  0.9118800E+02  0.7816164E-02  0.1184000E+00
        -11   -1    0    0    0    0  0.00000000000E+00  0.00000000000E+00  0.45593999997E+02  0.45594000000E+02  0.51100000000E-03 0. -1.
         11   -1    0    0    0    0 -0.00000000000E+00 -0.00000000000E+00 -0.45593999997E+02  0.45594000000E+02  0.51100000000E-03 0.  1.
         23    2    1    2    0    0  0.00000000000E+00  0.71054273576E-14  0.22204460493E-15  0.91188000000E+02  0.91188000000E+02 0.  0.
    9900012    2    3    3    0    0 -0.94699341252E+01 -0.35552623609E+02  0.14531298371E+01  0.54367078174E+02  0.39999986312E+02 0.  0.
         12    1    3    3    0    0  0.94699341252E+01  0.35552623609E+02 -0.14531298371E+01  0.36820921826E+02  0.00000000000E+00 0. -1.
         11    1    4    4    0    0 -0.74240815724E+01 -0.19393320115E+02  0.91697123612E+01  0.22700252803E+02  0.51100000000E-03 0. -1.
        -11    1    4    4    0    0 -0.17151731873E+01 -0.90196656803E+01 -0.17374900423E+02  0.19651548362E+02  0.51100000000E-03 0.  1.
         12    1    4    4    0    0 -0.33067936555E+00 -0.71396378134E+01  0.96583178990E+01  0.12015277008E+02  0.00000000000E+00 0. -1.
</event>
<event>
 8    1  0.1244838E-006  0.9118800E+02  0.7816164E-02  0.1184000E+00
        -11   -1    0    0    0    0  0.00000000000E+00  0.00000000000E+00  0.45593999997E+02  0.45594000000E+02  0.51100000000E-03 0.  1.
         11   -1    0    0    0    0 -0.00000000000E+00 -0.00000000000E+00 -0.45593999997E+02  0.45594000000E+02  0.51100000000E-03 0. -1.
         23    2    1    2    0    0  0.00000000000E+00  0.35527136788E-14  0.00000000000E+00  0.91188000000E+02  0.91188000000E+02 0.  0.
    9900012    2    3    3    0    0 -0.12840128466E+02 -0.17650840674E+02  0.29654025557E+02  0.54367050702E+02  0.39999923685E+02 0.  0.
         12    1    3    3    0    0  0.12840128466E+02  0.17650840674E+02 -0.29654025557E+02  0.36820949298E+02  0.00000000000E+00 0. -1.
         11    1    4    4    0    0 -0.58713172393E+01  0.36908879490E+01 -0.46569260950E+01  0.83535609707E+01  0.51100000000E-03 0. -1.
        -11    1    4    4    0    0 -0.69879696456E+01 -0.25078655304E+02  0.25496402295E+02  0.36439500571E+02  0.51100000000E-03 0.  1.
         12    1    4    4    0    0  0.19158419352E-01  0.37369266818E+01  0.88145493567E+01  0.95739891598E+01  0.00000000000E+00 0. -1.
</event>
<event>
 8    1  0.1244838E-006  0.9118800E+02  0.7816164E-02  0.1184000E+00
        -11   -1    0    0    0    0  0.00000000000E+00  0.00000000000E+00  0.45593999997E+02  0.45594000000E+02  0.51100000000E-03 0.  1.
         11   -1    0    0    0    0 -0.00000000000E+00 -0.00000000000E+00 -0.45593999997E+02  0.45594000000E+02  0.51100000000E-03 0. -1.
         23    2    1    2    0    0  0.35527136788E-14  0.71054273576E-14 -0.88817841970E-15  0.91188000000E+02  0.91188000000E+02 0.  0.
    9900012    2    3    3    0    0 -0.30531287461E+02 -0.18968445409E+02 -0.79887002191E+01  0.54367071624E+02  0.39999971382E+02 0.  0.
        -12    1    3    3    0    0  0.30531287461E+02  0.18968445409E+02  0.79887002191E+01  0.36820928376E+02  0.00000000000E+00 0.  1.
         11    1    4    4    0    0 -0.15031928714E+02  0.73127480798E+01  0.19776261007E+01  0.16832889550E+02  0.51100000000E-03 0. -1.
        -11    1    4    4    0    0 -0.52855598412E+00 -0.19437264709E+01 -0.87028244199E+01  0.89328941093E+01  0.51100000000E-03 0.  1.
         12    1    4    4    0    0 -0.14970802763E+02 -0.24337467018E+02 -0.12635018999E+01  0.28601287965E+02  0.00000000000E+00 0. -1.
</event>
<event>
 8    1  0.1244838E-006  0.9118800E+02  0.7816164E-02  0.1184000E+00
        -11   -1    0    0    0    0  0.00000000000E+00  0.00000000000E+00  0.45593999997E+02  0.45594000000E+02  0.51100000000E-03 0. -1.
         11   -1    0    0    0    0 -0.00000000000E+00 -0.00000000000E+00 -0.45593999997E+02  0.45594000000E+02  0.51100000000E-03 0.  1.
         23    2    1    2    0    0  0.00000000000E+00  0.17763568394E-14  0.35527136788E-14  0.91188000000E+02  0.91188000000E+02 0.  0.
    9900012    2    3    3    0    0  0.17185191897E+02  0.86835098597E+01 -0.31385420001E+02  0.54367098971E+02  0.40000033723E+02 0.  0.
         12    1    3    3    0    0 -0.17185191897E+02 -0.86835098597E+01  0.31385420001E+02  0.36820901029E+02  0.00000000000E+00 0. -1.
         11    1    4    4    0    0  0.24116381182E+02  0.58481596435E+01 -0.18266118360E+02  0.30813177257E+02  0.51100000000E-03 0. -1.
        -11    1    4    4    0    0  0.16052336141E+01 -0.41004649889E+01  0.20169690390E+01  0.48434236286E+01  0.51100000000E-03 0.  1.
        -12    1    4    4    0    0 -0.85364228990E+01  0.69358152051E+01 -0.15136270680E+02  0.18710498084E+02  0.00000000000E+00 0.  1.
</event>
<event>
 8    1  0.1244838E-006  0.9118800E+02  0.7816164E-02  0.1184000E+00
        -11   -1    0    0    0    0  0.00000000000E+00  0.00000000000E+00  0.45593999997E+02  0.45594000000E+02  0.51100000000E-03 0.  1.
         11   -1    0    0    0    0 -0.00000000000E+00 -0.00000000000E+00 -0.45593999997E+02  0.45594000000E+02  0.51100000000E-03 0. -1.
         23    2    1    2    0    0 -0.35527136788E-14  0.44408920985E-15  0.35527136788E-14  0.91188000000E+02  0.91188000000E+02 0.  0.
    9900012    2    3    3    0    0 -0.23072419165E+02  0.35992539389E+01  0.28469057801E+02  0.54367103662E+02  0.40000044419E+02 0.  0.
         12    1    3    3    0    0  0.23072419165E+02 -0.35992539389E+01 -0.28469057801E+02  0.36820896338E+02  0.00000000000E+00 0. -1.
         11    1    4    4    0    0  0.44902560641E+01 -0.11741741985E+02  0.98709854021E+01  0.15983343125E+02  0.51100000000E-03 0. -1.
        -11    1    4    4    0    0 -0.11215489482E+02  0.11626482771E+02  0.12916358480E+02  0.20683196624E+02  0.51100000000E-03 0.  1.
         12    1    4    4    0    0 -0.16347185747E+02  0.37145131533E+01  0.56817139187E+01  0.17700563913E+02  0.00000000000E+00 0. -1.
</event>
<event>
 8    1  0.1244838E-006  0.9118800E+02  0.7816164E-02  0.1184000E+00
        -11   -1    0    0    0    0  0.00000000000E+00  0.00000000000E+00  0.45593999997E+02  0.45594000000E+02  0.51100000000E-03 0. -1.
         11   -1    0    0    0    0 -0.00000000000E+00 -0.00000000000E+00 -0.45593999997E+02  0.45594000000E+02  0.51100000000E-03 0.  1.
         23    2    1    2    0    0  0.35527136788E-14  0.17763568394E-14 -0.35527136788E-14  0.91188000000E+02  0.91188000000E+02 0.  0.
    9900012    2    3    3    0    0 -0.26957288420E+02 -0.14892320307E+02  0.20181768451E+02  0.54367076860E+02  0.39999983318E+02 0.  0.
        -12    1    3    3    0    0  0.26957288420E+02  0.14892320307E+02 -0.20181768451E+02  0.36820923140E+02  0.00000000000E+00 0.  1.
         11    1    4    4    0    0 -0.17643031900E+02 -0.84700897528E+01  0.17839134975E+02  0.26481195819E+02  0.51100000000E-03 0. -1.
        -11    1    4    4    0    0 -0.12091359209E+02  0.17258625191E+01 -0.78694849559E+01  0.14529568565E+02  0.51100000000E-03 0.  1.
         12    1    4    4    0    0  0.27771026902E+01 -0.81480930736E+01  0.10212118432E+02  0.13356312476E+02  0.00000000000E+00 0. -1.
</event>
<event>
 8    1  0.1244838E-006  0.9118800E+02  0.7816164E-02  0.1184000E+00
        -11   -1    0    0    0    0  0.00000000000E+00  0.00000000000E+00  0.45593999997E+02  0.45594000000E+02  0.51100000000E-03 0. -1.
         11   -1    0    0    0    0 -0.00000000000E+00 -0.00000000000E+00 -0.45593999997E+02  0.45594000000E+02  0.51100000000E-03 0.  1.
         23    2    1    2    0    0  0.00000000000E+00  0.00000000000E+00  0.35527136788E-14  0.91188000000E+02  0.91188000000E+02 0.  0.
    9900012    2    3    3    0    0 -0.16539172433E+02  0.24495892969E+02 -0.21958760689E+02  0.54367079749E+02  0.39999989903E+02 0.  0.
         12    1    3    3    0    0  0.16539172433E+02 -0.24495892969E+02  0.21958760689E+02  0.36820920251E+02  0.00000000000E+00 0. -1.
         11    1    4    4    0    0  0.35521082348E+01 -0.79422657169E+01 -0.56469307314E+00  0.87187118405E+01  0.51100000000E-03 0. -1.
        -11    1    4    4    0    0  0.12750317895E+01  0.69195592534E+01 -0.34348775241E+01  0.78297120121E+01  0.51100000000E-03 0.  1.
         12    1    4    4    0    0 -0.21366312457E+02  0.25518599433E+02 -0.17959190092E+02  0.37818655896E+02  0.00000000000E+00 0. -1.
</event>
<event>
 8    1  0.1244838E-006  0.9118800E+02  0.7816164E-02  0.1184000E+00
        -11   -1    0    0    0    0  0.00000000000E+00  0.00000000000E+00  0.45593999997E+02  0.45594000000E+02  0.51100000000E-03 0. -1.
         11   -1    0    0    0    0 -0.00000000000E+00 -0.00000000000E+00 -0.45593999997E+02  0.45594000000E+02  0.51100000000E-03 0.  1.
         23    2    1    2    0    0  0.17763568394E-14  0.00000000000E+00  0.00000000000E+00  0.91188000000E+02  0.91188000000E+02 0.  0.
    9900012    2    3    3    0    0 -0.15776252673E+02 -0.21338852758E+02 -0.25525331407E+02  0.54367091145E+02  0.40000015883E+02 0.  0.
         12    1    3    3    0    0  0.15776252673E+02  0.21338852758E+02  0.25525331407E+02  0.36820908855E+02  0.00000000000E+00 0. -1.
         11    1    4    4    0    0 -0.12945933817E+00  0.38355302676E+00  0.32771367235E+01  0.33020445197E+01  0.51100000000E-03 0. -1.
        -11    1    4    4    0    0 -0.24835787758E+01 -0.27620986771E+02 -0.18412700692E+02  0.33288355633E+02  0.51100000000E-03 0.  1.
        -12    1    4    4    0    0 -0.13163214559E+02  0.58985809862E+01 -0.10389767439E+02  0.17776690992E+02  0.00000000000E+00 0.  1.
</event>
<event>
 8    1  0.1244838E-006  0.9118800E+02  0.7816164E-02  0.1184000E+00
        -11   -1    0    0    0    0  0.00000000000E+00  0.00000000000E+00  0.45593999997E+02  0.45594000000E+02  0.51100000000E-03 0.  1.
         11   -1    0    0    0    0 -0.00000000000E+00 -0.00000000000E+00 -0.45593999997E+02  0.45594000000E+02  0.51100000000E-03 0. -1.
         23    2    1    2    0    0  0.00000000000E+00  0.00000000000E+00 -0.17763568394E-14  0.91188000000E+02  0.91188000000E+02 0.  0.
    9900012    2    3    3    0    0 -0.88456473494E+01  0.33766925625E+02  0.11718742471E+02  0.54367086537E+02  0.40000005378E+02 0.  0.
         12    1    3    3    0    0  0.88456473494E+01 -0.33766925625E+02 -0.11718742471E+02  0.36820913463E+02  0.00000000000E+00 0. -1.
         11    1    4    4    0    0  0.98222224490E+01  0.95635104120E+01  0.14762955519E+02  0.20146504440E+02  0.51100000000E-03 0. -1.
        -11    1    4    4    0    0 -0.19322797214E+02  0.25667263269E+02 -0.17769740598E+01  0.32176645770E+02  0.51100000000E-03 0.  1.
        -12    1    4    4    0    0  0.65492741549E+00 -0.14638480570E+01 -0.12672389887E+01  0.20439363268E+01  0.00000000000E+00 0.  1.
</event>
<event>
 8    1  0.1244838E-006  0.9118800E+02  0.7816164E-02  0.1184000E+00
        -11   -1    0    0    0    0  0.00000000000E+00  0.00000000000E+00  0.45593999997E+02  0.45594000000E+02  0.51100000000E-03 0. -1.
         11   -1    0    0    0    0 -0.00000000000E+00 -0.00000000000E+00 -0.45593999997E+02  0.45594000000E+02  0.51100000000E-03 0.  1.
         23    2    1    2    0    0 -0.17763568394E-14  0.00000000000E+00  0.00000000000E+00  0.91188000000E+02  0.91188000000E+02 0.  0.
    9900012    2    3    3    0    0 -0.88284046922E+01 -0.15768866625E+02  0.32080860528E+02  0.54367088873E+02  0.40000010703E+02 0.  0.
        -12    1    3    3    0    0  0.88284046922E+01  0.15768866625E+02 -0.32080860528E+02  0.36820911127E+02  0.00000000000E+00 0.  1.
         11    1    4    4    0    0 -0.11844606210E+01  0.19260179824E+01 -0.27643904988E+01  0.35713229092E+01  0.51100000000E-03 0. -1.
        -11    1    4    4    0    0  0.64313828408E+01  0.62683356148E+01  0.64000366318E+01  0.11027927538E+02  0.51100000000E-03 0.  1.
         12    1    4    4    0    0 -0.14075326912E+02 -0.23963220222E+02  0.28445214395E+02  0.39767838426E+02  0.00000000000E+00 0. -1.
</event>
<event>
 8    1  0.1244838E-006  0.9118800E+02  0.7816164E-02  0.1184000E+00
        -11   -1    0    0    0    0  0.00000000000E+00  0.00000000000E+00  0.45593999997E+02  0.45594000000E+02  0.51100000000E-03 0.  1.
         11   -1    0    0    0    0 -0.00000000000E+00 -0.00000000000E+00 -0.45593999997E+02  0.45594000000E+02  0.51100000000E-03 0. -1.
         23    2    1    2    0    0 -0.71054273576E-14  0.35527136788E-14 -0.35527136788E-14  0.91188000000E+02  0.91188000000E+02 0.  0.
    9900012    2    3    3    0    0 -0.24000388910E+02  0.20981802301E+02 -0.18426235233E+02  0.54367070619E+02  0.39999969090E+02 0.  0.
        -12    1    3    3    0    0  0.24000388910E+02 -0.20981802301E+02  0.18426235233E+02  0.36820929381E+02  0.00000000000E+00 0.  1.
         11    1    4    4    0    0 -0.90080103231E+01  0.35591622015E+01 -0.60832418806E+01  0.11437557326E+02  0.51100000000E-03 0. -1.
        -11    1    4    4    0    0 -0.25145226683E+02  0.15213722991E+02 -0.41155861387E+01  0.29676216769E+02  0.51100000000E-03 0.  1.
         12    1    4    4    0    0  0.10152848097E+02  0.22089171081E+01 -0.82274072139E+01  0.13253296523E+02  0.00000000000E+00 0. -1.
</event>
<event>
 8    1  0.1244838E-006  0.9118800E+02  0.7816164E-02  0.1184000E+00
        -11   -1    0    0    0    0  0.00000000000E+00  0.00000000000E+00  0.45593999997E+02  0.45594000000E+02  0.51100000000E-03 0.  1.
         11   -1    0    0    0    0 -0.00000000000E+00 -0.00000000000E+00 -0.45593999997E+02  0.45594000000E+02  0.51100000000E-03 0. -1.
         23    2    1    2    0    0  0.00000000000E+00  0.00000000000E+00  0.71054273576E-14  0.91188000000E+02  0.91188000000E+02 0.  0.
    9900012    2    3    3    0    0 -0.20133781254E+02  0.16363571715E+02 -0.26127455944E+02  0.54367087722E+02  0.40000008080E+02 0.  0.
         12    1    3    3    0    0  0.20133781254E+02 -0.16363571715E+02  0.26127455944E+02  0.36820912278E+02  0.00000000000E+00 0. -1.
         11    1    4    4    0    0 -0.80151709864E+01  0.79160140561E+01  0.63460843462E+01  0.12929773056E+02  0.51100000000E-03 0. -1.
        -11    1    4    4    0    0 -0.13360879387E+02  0.82055022321E+01 -0.93015852328E+01  0.18230821511E+02  0.51100000000E-03 0.  1.
         12    1    4    4    0    0  0.12422691195E+01  0.24205542728E+00 -0.23171955057E+02  0.23206493155E+02  0.00000000000E+00 0. -1.
</event>
<event>
 8    1  0.1244838E-006  0.9118800E+02  0.7816164E-02  0.1184000E+00
        -11   -1    0    0    0    0  0.00000000000E+00  0.00000000000E+00  0.45593999997E+02  0.45594000000E+02  0.51100000000E-03 0. -1.
         11   -1    0    0    0    0 -0.00000000000E+00 -0.00000000000E+00 -0.45593999997E+02  0.45594000000E+02  0.51100000000E-03 0.  1.
         23    2    1    2    0    0  0.00000000000E+00 -0.35527136788E-14  0.00000000000E+00  0.91188000000E+02  0.91188000000E+02 0.  0.
    9900012    2    3    3    0    0  0.63773389152E+01 -0.23905863678E+02  0.27269402895E+02  0.54367067040E+02  0.39999960930E+02 0.  0.
        -12    1    3    3    0    0 -0.63773389152E+01  0.23905863678E+02 -0.27269402895E+02  0.36820932960E+02  0.00000000000E+00 0.  1.
         11    1    4    4    0    0  0.15238373457E+01  0.25593516026E+01  0.42797146607E+01  0.52142419123E+01  0.51100000000E-03 0. -1.
        -11    1    4    4    0    0 -0.91474944253E+01 -0.22991372204E+02  0.36292163846E+01  0.25009019611E+02  0.51100000000E-03 0.  1.
         12    1    4    4    0    0  0.14000995995E+02 -0.34738430768E+01  0.19360471850E+02  0.24143805516E+02  0.00000000000E+00 0. -1.
</event>
<event>
 8    1  0.1244838E-006  0.9118800E+02  0.7816164E-02  0.1184000E+00
        -11   -1    0    0    0    0  0.00000000000E+00  0.00000000000E+00  0.45593999997E+02  0.45594000000E+02  0.51100000000E-03 0.  1.
         11   -1    0    0    0    0 -0.00000000000E+00 -0.00000000000E+00 -0.45593999997E+02  0.45594000000E+02  0.51100000000E-03 0. -1.
         23    2    1    2    0    0  0.00000000000E+00  0.71054273576E-14  0.17763568394E-14  0.91188000000E+02  0.91188000000E+02 0.  0.
    9900012    2    3    3    0    0  0.10398297504E+02  0.35048485746E+02  0.43883725967E+01  0.54367098896E+02  0.40000033553E+02 0.  0.
         12    1    3    3    0    0 -0.10398297504E+02 -0.35048485746E+02 -0.43883725967E+01  0.36820901104E+02  0.00000000000E+00 0. -1.
         11    1    4    4    0    0  0.14389444655E+01  0.63376463913E+01 -0.80268829725E+01  0.10327980125E+02  0.51100000000E-03 0.  1.
        -11    1    4    4    0    0 -0.88059619420E+01  0.98297506381E+01  0.12407855595E+02  0.18114189026E+02  0.51100000000E-03 0. -1.
        -12    1    4    4    0    0  0.17765314981E+02  0.18881088717E+02  0.73999738118E-02  0.25924929744E+02  0.00000000000E+00 0.  1.
</event>
<event>
 8    1  0.1244838E-006  0.9118800E+02  0.7816164E-02  0.1184000E+00
        -11   -1    0    0    0    0  0.00000000000E+00  0.00000000000E+00  0.45593999997E+02  0.45594000000E+02  0.51100000000E-03 0.  1.
         11   -1    0    0    0    0 -0.00000000000E+00 -0.00000000000E+00 -0.45593999997E+02  0.45594000000E+02  0.51100000000E-03 0. -1.
         23    2    1    2    0    0 -0.17763568394E-14  0.00000000000E+00  0.17763568394E-14  0.91188000000E+02  0.91188000000E+02 0.  0.
    9900012    2    3    3    0    0 -0.90442032657E+01  0.32082365030E+02  0.15643020394E+02  0.54367084128E+02  0.39999999887E+02 0.  0.
         12    1    3    3    0    0  0.90442032657E+01 -0.32082365030E+02 -0.15643020394E+02  0.36820915872E+02  0.00000000000E+00 0. -1.
         11    1    4    4    0    0  0.26712538069E+01  0.12377811366E+02 -0.56907191282E+01  0.13882726518E+02  0.51100000000E-03 0. -1.
        -11    1    4    4    0    0 -0.12283362733E+02  0.17436244764E+02  0.26968787978E+02  0.34383413978E+02  0.51100000000E-03 0.  1.
        -12    1    4    4    0    0  0.56790566082E+00  0.22683089004E+01 -0.56350484559E+01  0.61009436325E+01  0.00000000000E+00 0.  1.
</event>
<event>
 8    1  0.1244838E-006  0.9118800E+02  0.7816164E-02  0.1184000E+00
        -11   -1    0    0    0    0  0.00000000000E+00  0.00000000000E+00  0.45593999997E+02  0.45594000000E+02  0.51100000000E-03 0. -1.
         11   -1    0    0    0    0 -0.00000000000E+00 -0.00000000000E+00 -0.45593999997E+02  0.45594000000E+02  0.51100000000E-03 0.  1.
         23    2    1    2    0    0  0.00000000000E+00 -0.35527136788E-14 -0.35527136788E-14  0.91188000000E+02  0.91188000000E+02 0.  0.
    9900012    2    3    3    0    0  0.17282776758E+02 -0.21861675914E+02 -0.24065605366E+02  0.54367073778E+02  0.39999976291E+02 0.  0.
         12    1    3    3    0    0 -0.17282776758E+02  0.21861675914E+02  0.24065605366E+02  0.36820926222E+02  0.00000000000E+00 0. -1.
         11    1    4    4    0    0  0.16980019544E+01 -0.43570554024E+01 -0.18410875695E+02  0.18995459629E+02  0.51100000000E-03 0.  1.
        -11    1    4    4    0    0  0.17639034331E+02 -0.35348211243E+00 -0.29406818666E+01  0.17885974724E+02  0.51100000000E-03 0. -1.
         12    1    4    4    0    0 -0.20542595271E+01 -0.17151138399E+02 -0.27140478045E+01  0.17485639425E+02  0.00000000000E+00 0. -1.
</event>
<event>
 8    1  0.1244838E-006  0.9118800E+02  0.7816164E-02  0.1184000E+00
        -11   -1    0    0    0    0  0.00000000000E+00  0.00000000000E+00  0.45593999997E+02  0.45594000000E+02  0.51100000000E-03 0.  1.
         11   -1    0    0    0    0 -0.00000000000E+00 -0.00000000000E+00 -0.45593999997E+02  0.45594000000E+02  0.51100000000E-03 0. -1.
         23    2    1    2    0    0  0.00000000000E+00  0.17763568394E-14  0.00000000000E+00  0.91188000000E+02  0.91188000000E+02 0.  0.
    9900012    2    3    3    0    0 -0.47034936563E+01  0.84081404344E+01  0.35538134255E+02  0.54367100168E+02  0.40000036452E+02 0.  0.
         12    1    3    3    0    0  0.47034936563E+01 -0.84081404344E+01 -0.35538134255E+02  0.36820899832E+02  0.00000000000E+00 0. -1.
         11    1    4    4    0    0  0.50139288265E+01 -0.41418034829E+01 -0.21675931823E+01  0.68551060410E+01  0.51100000000E-03 0. -1.
        -11    1    4    4    0    0 -0.12616044318E+02  0.17005916105E+02  0.20379333890E+02  0.29388484256E+02  0.51100000000E-03 0.  1.
        -12    1    4    4    0    0  0.28986218354E+01 -0.44559721876E+01  0.17326393547E+02  0.18123509870E+02  0.00000000000E+00 0.  1.
</event>
<event>
 8    1  0.1244838E-006  0.9118800E+02  0.7816164E-02  0.1184000E+00
        -11   -1    0    0    0    0  0.00000000000E+00  0.00000000000E+00  0.45593999997E+02  0.45594000000E+02  0.51100000000E-03 0.  1.
         11   -1    0    0    0    0 -0.00000000000E+00 -0.00000000000E+00 -0.45593999997E+02  0.45594000000E+02  0.51100000000E-03 0. -1.
         23    2    1    2    0    0  0.17763568394E-14  0.00000000000E+00 -0.17763568394E-14  0.91188000000E+02  0.91188000000E+02 0.  0.
    9900012    2    3    3    0    0  0.15035607251E+02  0.32261106670E+02  0.94302837000E+01  0.54367099147E+02  0.40000034125E+02 0.  0.
        -12    1    3    3    0    0 -0.15035607251E+02 -0.32261106670E+02 -0.94302837000E+01  0.36820900853E+02  0.00000000000E+00 0.  1.
         11    1    4    4    0    0  0.41024760272E+01  0.21470005581E+01 -0.12583600492E+01  0.47982696074E+01  0.51100000000E-03 0. -1.
        -11    1    4    4    0    0 -0.86488943687E+01  0.73229573556E+01 -0.82791932958E+01  0.14034746885E+02  0.51100000000E-03 0.  1.
        -12    1    4    4    0    0  0.19582025592E+02  0.22791148756E+02  0.18967837045E+02  0.35534082655E+02  0.00000000000E+00 0.  1.
</event>
<event>
 8    1  0.1244838E-006  0.9118800E+02  0.7816164E-02  0.1184000E+00
        -11   -1    0    0    0    0  0.00000000000E+00  0.00000000000E+00  0.45593999997E+02  0.45594000000E+02  0.51100000000E-03 0. -1.
         11   -1    0    0    0    0 -0.00000000000E+00 -0.00000000000E+00 -0.45593999997E+02  0.45594000000E+02  0.51100000000E-03 0.  1.
         23    2    1    2    0    0 -0.88817841970E-15  0.00000000000E+00  0.35527136788E-14  0.91188000000E+02  0.91188000000E+02 0.  0.
    9900012    2    3    3    0    0  0.73598370666E+01 -0.30628457214E+02  0.19066005868E+02  0.54367052528E+02  0.39999927847E+02 0.  0.
        -12    1    3    3    0    0 -0.73598370666E+01  0.30628457214E+02 -0.19066005868E+02  0.36820947472E+02  0.00000000000E+00 0.  1.
         11    1    4    4    0    0  0.17831173622E+01 -0.63728222711E+01  0.22176992037E+01  0.69792951826E+01  0.51100000000E-03 0. -1.
        -11    1    4    4    0    0 -0.94426149025E+01 -0.18336494788E+02 -0.40107279989E+01  0.21011329245E+02  0.51100000000E-03 0.  1.
        -12    1    4    4    0    0  0.15019334607E+02 -0.59191401551E+01  0.20859034664E+02  0.26376428100E+02  0.00000000000E+00 0.  1.
</event>
<event>
 8    1  0.1244838E-006  0.9118800E+02  0.7816164E-02  0.1184000E+00
        -11   -1    0    0    0    0  0.00000000000E+00  0.00000000000E+00  0.45593999997E+02  0.45594000000E+02  0.51100000000E-03 0. -1.
         11   -1    0    0    0    0 -0.00000000000E+00 -0.00000000000E+00 -0.45593999997E+02  0.45594000000E+02  0.51100000000E-03 0.  1.
         23    2    1    2    0    0  0.00000000000E+00  0.88817841970E-15  0.00000000000E+00  0.91188000000E+02  0.91188000000E+02 0.  0.
    9900012    2    3    3    0    0 -0.25495168787E+02  0.14051531968E+01  0.26529273466E+02  0.54367076089E+02  0.39999981560E+02 0.  0.
        -12    1    3    3    0    0  0.25495168787E+02 -0.14051531968E+01 -0.26529273466E+02  0.36820923911E+02  0.00000000000E+00 0.  1.
         11    1    4    4    0    0 -0.27618850093E+02  0.81593370747E+01  0.21418715794E+02  0.35890626192E+02  0.51100000000E-03 0. -1.
        -11    1    4    4    0    0 -0.21291159410E+01  0.46435913719E+01  0.35287146031E+01  0.62086957190E+01  0.51100000000E-03 0.  1.
         12    1    4    4    0    0  0.42527972466E+01 -0.11397775250E+02  0.15818430693E+01  0.12267754178E+02  0.00000000000E+00 0. -1.
</event>
<event>
 8    1  0.1244838E-006  0.9118800E+02  0.7816164E-02  0.1184000E+00
        -11   -1    0    0    0    0  0.00000000000E+00  0.00000000000E+00  0.45593999997E+02  0.45594000000E+02  0.51100000000E-03 0. -1.
         11   -1    0    0    0    0 -0.00000000000E+00 -0.00000000000E+00 -0.45593999997E+02  0.45594000000E+02  0.51100000000E-03 0.  1.
         23    2    1    2    0    0  0.44408920985E-15  0.88817841970E-15  0.71054273576E-14  0.91188000000E+02  0.91188000000E+02 0.  0.
    9900012    2    3    3    0    0 -0.31960065389E+01 -0.34239897308E+01 -0.36521815104E+02  0.54367066525E+02  0.39999959758E+02 0.  0.
         12    1    3    3    0    0  0.31960065389E+01  0.34239897308E+01  0.36521815104E+02  0.36820933475E+02  0.00000000000E+00 0. -1.
         11    1    4    4    0    0  0.45975619587E+01  0.21023593812E+01  0.52538285862E+01  0.72911045807E+01  0.51100000000E-03 0. -1.
        -11    1    4    4    0    0 -0.14285806668E+02 -0.35088466037E+01 -0.31347006968E+02  0.34627028789E+02  0.51100000000E-03 0.  1.
         12    1    4    4    0    0  0.64922381705E+01 -0.20175025083E+01 -0.10428636722E+02  0.12448933156E+02  0.00000000000E+00 0. -1.
</event>
<event>
 8    1  0.1244838E-006  0.9118800E+02  0.7816164E-02  0.1184000E+00
        -11   -1    0    0    0    0  0.00000000000E+00  0.00000000000E+00  0.45593999997E+02  0.45594000000E+02  0.51100000000E-03 0.  1.
         11   -1    0    0    0    0 -0.00000000000E+00 -0.00000000000E+00 -0.45593999997E+02  0.45594000000E+02  0.51100000000E-03 0. -1.
         23    2    1    2    0    0  0.00000000000E+00 -0.17763568394E-14  0.00000000000E+00  0.91188000000E+02  0.91188000000E+02 0.  0.
    9900012    2    3    3    0    0 -0.90450467858E+01 -0.11579698900E+02 -0.33762063357E+02  0.54367092623E+02  0.40000019253E+02 0.  0.
        -12    1    3    3    0    0  0.90450467858E+01  0.11579698900E+02  0.33762063357E+02  0.36820907377E+02  0.00000000000E+00 0.  1.
         11    1    4    4    0    0 -0.13932779438E+01  0.84835402585E+01 -0.41206048479E+01  0.95336804709E+01  0.51100000000E-03 0. -1.
        -11    1    4    4    0    0 -0.84152702666E+01 -0.12426466875E+02 -0.84479755186E+00  0.15031551345E+02  0.51100000000E-03 0.  1.
         12    1    4    4    0    0  0.76350142458E+00 -0.76367722837E+01 -0.28796660957E+02  0.29801860808E+02  0.00000000000E+00 0. -1.
</event>
<event>
 8    1  0.1244838E-006  0.9118800E+02  0.7816164E-02  0.1184000E+00
        -11   -1    0    0    0    0  0.00000000000E+00  0.00000000000E+00  0.45593999997E+02  0.45594000000E+02  0.51100000000E-03 0.  1.
         11   -1    0    0    0    0 -0.00000000000E+00 -0.00000000000E+00 -0.45593999997E+02  0.45594000000E+02  0.51100000000E-03 0. -1.
         23    2    1    2    0    0 -0.35527136788E-14  0.35527136788E-14  0.00000000000E+00  0.91188000000E+02  0.91188000000E+02 0.  0.
    9900012    2    3    3    0    0 -0.22291914107E+02 -0.18454393776E+02  0.22765861593E+02  0.54367101881E+02  0.40000040358E+02 0.  0.
         12    1    3    3    0    0  0.22291914107E+02  0.18454393776E+02 -0.22765861593E+02  0.36820898119E+02  0.00000000000E+00 0. -1.
         11    1    4    4    0    0 -0.12549774119E+02  0.10401825522E+01  0.22486718078E+02  0.25772685160E+02  0.51100000000E-03 0. -1.
        -11    1    4    4    0    0 -0.13434495228E+02 -0.12182412551E+02  0.54141750226E+01  0.18926439946E+02  0.51100000000E-03 0.  1.
         12    1    4    4    0    0  0.36923552404E+01 -0.73121637777E+01 -0.51350315076E+01  0.96679767748E+01  0.00000000000E+00 0. -1.
</event>
<event>
 8    1  0.1244838E-006  0.9118800E+02  0.7816164E-02  0.1184000E+00
        -11   -1    0    0    0    0  0.00000000000E+00  0.00000000000E+00  0.45593999997E+02  0.45594000000E+02  0.51100000000E-03 0. -1.
         11   -1    0    0    0    0 -0.00000000000E+00 -0.00000000000E+00 -0.45593999997E+02  0.45594000000E+02  0.51100000000E-03 0.  1.
         23    2    1    2    0    0  0.44408920985E-15  0.66613381478E-15  0.00000000000E+00  0.91188000000E+02  0.91188000000E+02 0.  0.
    9900012    2    3    3    0    0 -0.37745787486E+01 -0.14172146842E+01  0.36599499492E+02  0.54367091467E+02  0.40000016616E+02 0.  0.
        -12    1    3    3    0    0  0.37745787486E+01  0.14172146842E+01 -0.36599499492E+02  0.36820908533E+02  0.00000000000E+00 0.  1.
         11    1    4    4    0    0  0.10493458153E+01 -0.25302309373E+01  0.53593912344E+01  0.60188262893E+01  0.51100000000E-03 0. -1.
        -11    1    4    4    0    0 -0.13004786419E+01  0.16585847676E+02  0.44677540913E+01  0.17226213012E+02  0.51100000000E-03 0.  1.
        -12    1    4    4    0    0 -0.35234459220E+01 -0.15472831423E+02  0.26772354166E+02  0.31122052166E+02  0.00000000000E+00 0.  1.
</event>
<event>
 8    1  0.1244838E-006  0.9118800E+02  0.7816164E-02  0.1184000E+00
        -11   -1    0    0    0    0  0.00000000000E+00  0.00000000000E+00  0.45593999997E+02  0.45594000000E+02  0.51100000000E-03 0.  1.
         11   -1    0    0    0    0 -0.00000000000E+00 -0.00000000000E+00 -0.45593999997E+02  0.45594000000E+02  0.51100000000E-03 0. -1.
         23    2    1    2    0    0  0.00000000000E+00  0.35527136788E-14  0.00000000000E+00  0.91188000000E+02  0.91188000000E+02 0.  0.
    9900012    2    3    3    0    0  0.34360314805E+02  0.12384735464E+02 -0.46655174210E+01  0.54367082591E+02  0.39999996383E+02 0.  0.
        -12    1    3    3    0    0 -0.34360314805E+02 -0.12384735464E+02  0.46655174210E+01  0.36820917409E+02  0.00000000000E+00 0.  1.
         11    1    4    4    0    0  0.18965438051E+02  0.37047844800E+01 -0.79525019614E+01  0.20896304846E+02  0.51100000000E-03 0. -1.
        -11    1    4    4    0    0 -0.27469107414E+01 -0.75287886356E+01 -0.26279620141E+01  0.84341188959E+01  0.51100000000E-03 0.  1.
        -12    1    4    4    0    0  0.18141787496E+02  0.16208739620E+02  0.59149465545E+01  0.25036658850E+02  0.00000000000E+00 0.  1.
</event>
<event>
 8    1  0.1244838E-006  0.9118800E+02  0.7816164E-02  0.1184000E+00
        -11   -1    0    0    0    0  0.00000000000E+00  0.00000000000E+00  0.45593999997E+02  0.45594000000E+02  0.51100000000E-03 0.  1.
         11   -1    0    0    0    0 -0.00000000000E+00 -0.00000000000E+00 -0.45593999997E+02  0.45594000000E+02  0.51100000000E-03 0. -1.
         23    2    1    2    0    0  0.00000000000E+00  0.00000000000E+00  0.00000000000E+00  0.91188000000E+02  0.91188000000E+02 0.  0.
    9900012    2    3    3    0    0 -0.24961876361E+02 -0.24842832397E+02  0.10747936633E+02  0.54367085633E+02  0.40000003317E+02 0.  0.
         12    1    3    3    0    0  0.24961876361E+02  0.24842832397E+02 -0.10747936633E+02  0.36820914367E+02  0.00000000000E+00 0. -1.
         11    1    4    4    0    0 -0.15837375927E+02 -0.14720556564E+02  0.52138222430E+01  0.22241879517E+02  0.51100000000E-03 0. -1.
        -11    1    4    4    0    0 -0.11402512338E+02  0.12877996802E+01  0.13729497533E+02  0.17893429476E+02  0.51100000000E-03 0.  1.
         12    1    4    4    0    0  0.22780119046E+01 -0.11410075513E+02 -0.81953831428E+01  0.14231776640E+02  0.00000000000E+00 0. -1.
</event>
<event>
 8    1  0.1244838E-006  0.9118800E+02  0.7816164E-02  0.1184000E+00
        -11   -1    0    0    0    0  0.00000000000E+00  0.00000000000E+00  0.45593999997E+02  0.45594000000E+02  0.51100000000E-03 0.  1.
         11   -1    0    0    0    0 -0.00000000000E+00 -0.00000000000E+00 -0.45593999997E+02  0.45594000000E+02  0.51100000000E-03 0. -1.
         23    2    1    2    0    0  0.35527136788E-14  0.00000000000E+00  0.00000000000E+00  0.91188000000E+02  0.91188000000E+02 0.  0.
    9900012    2    3    3    0    0  0.26561219484E+02 -0.90840393362E+01  0.23827745161E+02  0.54367087591E+02  0.40000007782E+02 0.  0.
         12    1    3    3    0    0 -0.26561219484E+02  0.90840393362E+01 -0.23827745161E+02  0.36820912409E+02  0.00000000000E+00 0. -1.
         11    1    4    4    0    0  0.64884335014E+01  0.46704294132E+01 -0.46041838680E-01  0.79946732465E+01  0.51100000000E-03 0. -1.
        -11    1    4    4    0    0  0.23311653422E+02 -0.18678754006E+02  0.10339879119E+02  0.31610791463E+02  0.51100000000E-03 0.  1.
        -12    1    4    4    0    0 -0.32388674387E+01  0.49242852567E+01  0.13533907881E+02  0.14761622882E+02  0.00000000000E+00 0.  1.
</event>
<event>
 8    1  0.1244838E-006  0.9118800E+02  0.7816164E-02  0.1184000E+00
        -11   -1    0    0    0    0  0.00000000000E+00  0.00000000000E+00  0.45593999997E+02  0.45594000000E+02  0.51100000000E-03 0.  1.
         11   -1    0    0    0    0 -0.00000000000E+00 -0.00000000000E+00 -0.45593999997E+02  0.45594000000E+02  0.51100000000E-03 0. -1.
         23    2    1    2    0    0  0.00000000000E+00 -0.35527136788E-14  0.00000000000E+00  0.91188000000E+02  0.91188000000E+02 0.  0.
    9900012    2    3    3    0    0  0.27383544171E+02  0.16223191783E+02 -0.18512958572E+02  0.54367080972E+02  0.39999992692E+02 0.  0.
        -12    1    3    3    0    0 -0.27383544171E+02 -0.16223191783E+02  0.18512958572E+02  0.36820919028E+02  0.00000000000E+00 0.  1.
         11    1    4    4    0    0  0.57968543540E+01  0.37615625697E+01 -0.71195854843E+01  0.99217624995E+01  0.51100000000E-03 0. -1.
        -11    1    4    4    0    0  0.42942016134E+01 -0.54654762883E+01  0.96125183301E+01  0.11862213430E+02  0.51100000000E-03 0.  1.
        -12    1    4    4    0    0  0.17292488203E+02  0.17927105502E+02 -0.21005891418E+02  0.32583105042E+02  0.00000000000E+00 0.  1.
</event>
<event>
 8    1  0.1244838E-006  0.9118800E+02  0.7816164E-02  0.1184000E+00
        -11   -1    0    0    0    0  0.00000000000E+00  0.00000000000E+00  0.45593999997E+02  0.45594000000E+02  0.51100000000E-03 0.  1.
         11   -1    0    0    0    0 -0.00000000000E+00 -0.00000000000E+00 -0.45593999997E+02  0.45594000000E+02  0.51100000000E-03 0. -1.
         23    2    1    2    0    0  0.17763568394E-14  0.35527136788E-14  0.00000000000E+00  0.91188000000E+02  0.91188000000E+02 0.  0.
    9900012    2    3    3    0    0 -0.13460380922E+02 -0.20726009408E+02  0.27295277347E+02  0.54367061854E+02  0.39999949108E+02 0.  0.
         12    1    3    3    0    0  0.13460380922E+02  0.20726009408E+02 -0.27295277347E+02  0.36820938146E+02  0.00000000000E+00 0. -1.
         11    1    4    4    0    0 -0.17624295249E+02  0.28845322938E+00  0.75362738631E+01  0.19170143773E+02  0.51100000000E-03 0. -1.
        -11    1    4    4    0    0 -0.63192411858E+01 -0.42469345527E+01  0.11443179113E+02  0.13744657534E+02  0.51100000000E-03 0.  1.
        -12    1    4    4    0    0  0.10483155513E+02 -0.16767528085E+02  0.83158243705E+01  0.21452260546E+02  0.00000000000E+00 0.  1.
</event>
<event>
 8    1  0.1244838E-006  0.9118800E+02  0.7816164E-02  0.1184000E+00
        -11   -1    0    0    0    0  0.00000000000E+00  0.00000000000E+00  0.45593999997E+02  0.45594000000E+02  0.51100000000E-03 0.  1.
         11   -1    0    0    0    0 -0.00000000000E+00 -0.00000000000E+00 -0.45593999997E+02  0.45594000000E+02  0.51100000000E-03 0. -1.
         23    2    1    2    0    0  0.00000000000E+00  0.88817841970E-15  0.00000000000E+00  0.91188000000E+02  0.91188000000E+02 0.  0.
    9900012    2    3    3    0    0 -0.33339958265E+02  0.19702549312E+01 -0.15503470755E+02  0.54366914641E+02  0.39999613505E+02 0.  0.
        -12    1    3    3    0    0  0.33339958265E+02 -0.19702549312E+01  0.15503470755E+02  0.36821085359E+02  0.00000000000E+00 0.  1.
         11    1    4    4    0    0 -0.16911609842E+02  0.77942596868E+01 -0.17659641602E+02  0.25663514437E+02  0.51100000000E-03 0. -1.
        -11    1    4    4    0    0 -0.11384909158E+02  0.64455365699E+01  0.66774506817E+01  0.14688411966E+02  0.51100000000E-03 0.  1.
         12    1    4    4    0    0 -0.50434392653E+01 -0.12269541326E+02 -0.45212798345E+01  0.14014988238E+02  0.00000000000E+00 0. -1.
</event>
<event>
 8    1  0.1244838E-006  0.9118800E+02  0.7816164E-02  0.1184000E+00
        -11   -1    0    0    0    0  0.00000000000E+00  0.00000000000E+00  0.45593999997E+02  0.45594000000E+02  0.51100000000E-03 0. -1.
         11   -1    0    0    0    0 -0.00000000000E+00 -0.00000000000E+00 -0.45593999997E+02  0.45594000000E+02  0.51100000000E-03 0.  1.
         23    2    1    2    0    0 -0.28865798640E-14  0.00000000000E+00  0.00000000000E+00  0.91188000000E+02  0.91188000000E+02 0.  0.
    9900012    2    3    3    0    0 -0.11400538774E+01  0.74748685822E+01 -0.36036139924E+02  0.54367125978E+02  0.40000095291E+02 0.  0.
         12    1    3    3    0    0  0.11400538774E+01 -0.74748685822E+01  0.36036139924E+02  0.36820874022E+02  0.00000000000E+00 0. -1.
         11    1    4    4    0    0 -0.83336229132E+01  0.82309196610E+01 -0.76791316884E+01  0.14005940635E+02  0.51100000000E-03 0. -1.
        -11    1    4    4    0    0  0.13257043173E+02  0.88881024818E+01 -0.10249925188E+02  0.18968619508E+02  0.51100000000E-03 0.  1.
        -12    1    4    4    0    0 -0.60634741371E+01 -0.96441535606E+01 -0.18107083047E+02  0.21392565835E+02  0.00000000000E+00 0.  1.
</event>
<event>
 8    1  0.1244838E-006  0.9118800E+02  0.7816164E-02  0.1184000E+00
        -11   -1    0    0    0    0  0.00000000000E+00  0.00000000000E+00  0.45593999997E+02  0.45594000000E+02  0.51100000000E-03 0. -1.
         11   -1    0    0    0    0 -0.00000000000E+00 -0.00000000000E+00 -0.45593999997E+02  0.45594000000E+02  0.51100000000E-03 0.  1.
         23    2    1    2    0    0  0.00000000000E+00  0.00000000000E+00  0.00000000000E+00  0.91188000000E+02  0.91188000000E+02 0.  0.
    9900012    2    3    3    0    0 -0.19032781761E+02  0.21390544784E+02 -0.23151202923E+02  0.54367076811E+02  0.39999983205E+02 0.  0.
         12    1    3    3    0    0  0.19032781761E+02 -0.21390544784E+02  0.23151202923E+02  0.36820923189E+02  0.00000000000E+00 0. -1.
         11    1    4    4    0    0 -0.10992365155E+02  0.91538413125E+00  0.59796393944E+01  0.12546956099E+02  0.51100000000E-03 0. -1.
        -11    1    4    4    0    0 -0.11937971958E+02  0.59491607404E+01 -0.20565814920E+02  0.24512454621E+02  0.51100000000E-03 0.  1.
        -12    1    4    4    0    0  0.38975553513E+01  0.14525999912E+02 -0.85650273978E+01  0.17307666090E+02  0.00000000000E+00 0.  1.
</event>
<event>
 8    1  0.1244838E-006  0.9118800E+02  0.7816164E-02  0.1184000E+00
        -11   -1    0    0    0    0  0.00000000000E+00  0.00000000000E+00  0.45593999997E+02  0.45594000000E+02  0.51100000000E-03 0.  1.
         11   -1    0    0    0    0 -0.00000000000E+00 -0.00000000000E+00 -0.45593999997E+02  0.45594000000E+02  0.51100000000E-03 0. -1.
         23    2    1    2    0    0  0.00000000000E+00  0.71054273576E-14 -0.17763568394E-14  0.91188000000E+02  0.91188000000E+02 0.  0.
    9900012    2    3    3    0    0  0.85824355640E+01 -0.34239131891E+02  0.10478730522E+02  0.54367080047E+02  0.39999990583E+02 0.  0.
         12    1    3    3    0    0 -0.85824355640E+01  0.34239131891E+02 -0.10478730522E+02  0.36820919953E+02  0.00000000000E+00 0. -1.
         11    1    4    4    0    0  0.10005595642E+02  0.18443115777E+01  0.54688773241E-01  0.10174301965E+02  0.51100000000E-03 0. -1.
        -11    1    4    4    0    0 -0.85273948966E+01 -0.71413251692E+01 -0.29811895776E+01  0.11515315039E+02  0.51100000000E-03 0.  1.
         12    1    4    4    0    0  0.71042348185E+01 -0.28942118299E+02  0.13405231327E+02  0.32677463043E+02  0.00000000000E+00 0. -1.
</event>
<event>
 8    1  0.1244838E-006  0.9118800E+02  0.7816164E-02  0.1184000E+00
        -11   -1    0    0    0    0  0.00000000000E+00  0.00000000000E+00  0.45593999997E+02  0.45594000000E+02  0.51100000000E-03 0. -1.
         11   -1    0    0    0    0 -0.00000000000E+00 -0.00000000000E+00 -0.45593999997E+02  0.45594000000E+02  0.51100000000E-03 0.  1.
         23    2    1    2    0    0  0.00000000000E+00  0.17763568394E-14  0.35527136788E-14  0.91188000000E+02  0.91188000000E+02 0.  0.
    9900012    2    3    3    0    0  0.29238228697E+02  0.90347637105E+01  0.20476269908E+02  0.54367101016E+02  0.40000038387E+02 0.  0.
        -12    1    3    3    0    0 -0.29238228697E+02 -0.90347637105E+01 -0.20476269908E+02  0.36820898984E+02  0.00000000000E+00 0.  1.
         11    1    4    4    0    0  0.10251232121E+02  0.47615615942E+01 -0.58594622098E+01  0.12731595597E+02  0.51100000000E-03 0. -1.
        -11    1    4    4    0    0  0.47884146161E+01 -0.63636798028E+01 -0.19934349710E+01  0.82096966090E+01  0.51100000000E-03 0.  1.
         12    1    4    4    0    0  0.14198581960E+02  0.10636881919E+02  0.28329167089E+02  0.33425808810E+02  0.00000000000E+00 0. -1.
</event>
<event>
 8    1  0.1244838E-006  0.9118800E+02  0.7816164E-02  0.1184000E+00
        -11   -1    0    0    0    0  0.00000000000E+00  0.00000000000E+00  0.45593999997E+02  0.45594000000E+02  0.51100000000E-03 0. -1.
         11   -1    0    0    0    0 -0.00000000000E+00 -0.00000000000E+00 -0.45593999997E+02  0.45594000000E+02  0.51100000000E-03 0.  1.
         23    2    1    2    0    0  0.00000000000E+00 -0.35527136788E-14 -0.35527136788E-14  0.91188000000E+02  0.91188000000E+02 0.  0.
    9900012    2    3    3    0    0  0.86164569661E+01  0.25149519198E+02  0.25476265193E+02  0.54367058475E+02  0.39999941407E+02 0.  0.
        -12    1    3    3    0    0 -0.86164569661E+01 -0.25149519198E+02 -0.25476265193E+02  0.36820941525E+02  0.00000000000E+00 0.  1.
         11    1    4    4    0    0  0.93280168006E+00  0.22219606624E+02  0.11361885279E+02  0.24973455405E+02  0.51100000000E-03 0. -1.
        -11    1    4    4    0    0  0.62577043167E+01  0.13586377409E+02  0.92988968296E+01  0.17613006470E+02  0.51100000000E-03 0.  1.
        -12    1    4    4    0    0  0.14259509693E+01 -0.10656464834E+02  0.48154830847E+01  0.11780596601E+02  0.00000000000E+00 0.  1.
</event>
<event>
 8    1  0.1244838E-006  0.9118800E+02  0.7816164E-02  0.1184000E+00
        -11   -1    0    0    0    0  0.00000000000E+00  0.00000000000E+00  0.45593999997E+02  0.45594000000E+02  0.51100000000E-03 0. -1.
         11   -1    0    0    0    0 -0.00000000000E+00 -0.00000000000E+00 -0.45593999997E+02  0.45594000000E+02  0.51100000000E-03 0.  1.
         23    2    1    2    0    0  0.00000000000E+00 -0.26645352591E-14  0.00000000000E+00  0.91188000000E+02  0.91188000000E+02 0.  0.
    9900012    2    3    3    0    0  0.14600406642E+02 -0.55056850563E+01 -0.33351131114E+02  0.54367049597E+02  0.39999921165E+02 0.  0.
         12    1    3    3    0    0 -0.14600406642E+02  0.55056850563E+01  0.33351131114E+02  0.36820950403E+02  0.00000000000E+00 0. -1.
         11    1    4    4    0    0 -0.20446479471E+01 -0.55002148535E+01  0.36031672663E+01  0.68859104897E+01  0.51100000000E-03 0. -1.
        -11    1    4    4    0    0  0.13091118509E+02  0.10786413285E+02 -0.29051661311E+02  0.33641092738E+02  0.51100000000E-03 0.  1.
        -12    1    4    4    0    0  0.35539360798E+01 -0.10791883488E+02 -0.79026370685E+01  0.13840046369E+02  0.00000000000E+00 0.  1.
</event>
<event>
 8    1  0.1244838E-006  0.9118800E+02  0.7816164E-02  0.1184000E+00
        -11   -1    0    0    0    0  0.00000000000E+00  0.00000000000E+00  0.45593999997E+02  0.45594000000E+02  0.51100000000E-03 0.  1.
         11   -1    0    0    0    0 -0.00000000000E+00 -0.00000000000E+00 -0.45593999997E+02  0.45594000000E+02  0.51100000000E-03 0. -1.
         23    2    1    2    0    0  0.00000000000E+00  0.17763568394E-14  0.00000000000E+00  0.91188000000E+02  0.91188000000E+02 0.  0.
    9900012    2    3    3    0    0  0.24373245398E+02  0.12337161863E+02 -0.24688440618E+02  0.54367085370E+02  0.40000002718E+02 0.  0.
        -12    1    3    3    0    0 -0.24373245398E+02 -0.12337161863E+02  0.24688440618E+02  0.36820914630E+02  0.00000000000E+00 0.  1.
         11    1    4    4    0    0  0.11042704725E+02  0.74663541856E-01 -0.67677079035E+01  0.12951786472E+02  0.51100000000E-03 0. -1.
        -11    1    4    4    0    0  0.13470243729E+02 -0.89174546243E+01 -0.79856276089E+01  0.18020508086E+02  0.51100000000E-03 0.  1.
        -12    1    4    4    0    0 -0.13970305573E+00  0.21179952945E+02 -0.99351051055E+01  0.23394790813E+02  0.00000000000E+00 0.  1.
</event>
<event>
 8    1  0.1244838E-006  0.9118800E+02  0.7816164E-02  0.1184000E+00
        -11   -1    0    0    0    0  0.00000000000E+00  0.00000000000E+00  0.45593999997E+02  0.45594000000E+02  0.51100000000E-03 0.  1.
         11   -1    0    0    0    0 -0.00000000000E+00 -0.00000000000E+00 -0.45593999997E+02  0.45594000000E+02  0.51100000000E-03 0. -1.
         23    2    1    2    0    0 -0.17763568394E-14  0.00000000000E+00  0.00000000000E+00  0.91188000000E+02  0.91188000000E+02 0.  0.
    9900012    2    3    3    0    0 -0.18725845146E+01  0.21763389596E+02  0.29641696746E+02  0.54367056429E+02  0.39999936741E+02 0.  0.
         12    1    3    3    0    0  0.18725845146E+01 -0.21763389596E+02 -0.29641696746E+02  0.36820943571E+02  0.00000000000E+00 0. -1.
         11    1    4    4    0    0 -0.45197069052E+01 -0.42731601459E+01  0.79863032814E+01  0.10122681883E+02  0.51100000000E-03 0. -1.
        -11    1    4    4    0    0  0.94376080911E+01  0.54047835010E+01 -0.31020521192E+01  0.11309414608E+02  0.51100000000E-03 0.  1.
        -12    1    4    4    0    0 -0.67904857006E+01  0.20631766241E+02  0.24757445584E+02  0.32934959938E+02  0.00000000000E+00 0.  1.
</event>
<event>
 8    1  0.1244838E-006  0.9118800E+02  0.7816164E-02  0.1184000E+00
        -11   -1    0    0    0    0  0.00000000000E+00  0.00000000000E+00  0.45593999997E+02  0.45594000000E+02  0.51100000000E-03 0. -1.
         11   -1    0    0    0    0 -0.00000000000E+00 -0.00000000000E+00 -0.45593999997E+02  0.45594000000E+02  0.51100000000E-03 0.  1.
         23    2    1    2    0    0  0.71054273576E-14  0.00000000000E+00 -0.88817841970E-15  0.91188000000E+02  0.91188000000E+02 0.  0.
    9900012    2    3    3    0    0  0.35169908198E+02 -0.75368778221E+01  0.78773288678E+01  0.54367091808E+02  0.40000017396E+02 0.  0.
        -12    1    3    3    0    0 -0.35169908198E+02  0.75368778221E+01 -0.78773288678E+01  0.36820908192E+02  0.00000000000E+00 0.  1.
         11    1    4    4    0    0 -0.34836787765E+01 -0.54766399945E+00 -0.20776256835E+01  0.40929796501E+01  0.51100000000E-03 0. -1.
        -11    1    4    4    0    0  0.33030565083E+01  0.95130299963E+01  0.38779134963E+01  0.10791021052E+02  0.51100000000E-03 0.  1.
         12    1    4    4    0    0  0.35350530466E+02 -0.16502243819E+02  0.60770410549E+01  0.39483091106E+02  0.00000000000E+00 0. -1.
</event>
<event>
 8    1  0.1244838E-006  0.9118800E+02  0.7816164E-02  0.1184000E+00
        -11   -1    0    0    0    0  0.00000000000E+00  0.00000000000E+00  0.45593999997E+02  0.45594000000E+02  0.51100000000E-03 0.  1.
         11   -1    0    0    0    0 -0.00000000000E+00 -0.00000000000E+00 -0.45593999997E+02  0.45594000000E+02  0.51100000000E-03 0. -1.
         23    2    1    2    0    0 -0.17763568394E-14  0.00000000000E+00 -0.44408920985E-15  0.91188000000E+02  0.91188000000E+02 0.  0.
    9900012    2    3    3    0    0  0.10122236262E+02 -0.35198079382E+02  0.37968077758E+01  0.54367079202E+02  0.39999988657E+02 0.  0.
        -12    1    3    3    0    0 -0.10122236262E+02  0.35198079382E+02 -0.37968077758E+01  0.36820920798E+02  0.00000000000E+00 0.  1.
         11    1    4    4    0    0  0.58238127666E+00 -0.64287523498E+01  0.70253586590E+01  0.95406335888E+01  0.51100000000E-03 0. -1.
        -11    1    4    4    0    0  0.37801357169E+01  0.68997196716E+01  0.24760140893E+01  0.82477999258E+01  0.51100000000E-03 0.  1.
         12    1    4    4    0    0  0.57597192682E+01 -0.35669046704E+02 -0.57045649725E+01  0.36578645687E+02  0.00000000000E+00 0. -1.
</event>
<event>
 8    1  0.1244838E-006  0.9118800E+02  0.7816164E-02  0.1184000E+00
        -11   -1    0    0    0    0  0.00000000000E+00  0.00000000000E+00  0.45593999997E+02  0.45594000000E+02  0.51100000000E-03 0.  1.
         11   -1    0    0    0    0 -0.00000000000E+00 -0.00000000000E+00 -0.45593999997E+02  0.45594000000E+02  0.51100000000E-03 0. -1.
         23    2    1    2    0    0  0.00000000000E+00  0.00000000000E+00  0.00000000000E+00  0.91188000000E+02  0.91188000000E+02 0.  0.
    9900012    2    3    3    0    0  0.18945872124E+02  0.13532065516E+02 -0.28525716211E+02  0.54367090818E+02  0.40000015138E+02 0.  0.
        -12    1    3    3    0    0 -0.18945872124E+02 -0.13532065516E+02  0.28525716211E+02  0.36820909182E+02  0.00000000000E+00 0.  1.
         11    1    4    4    0    0  0.18094238392E+02  0.15145384696E+02 -0.16037534556E+02  0.28530451372E+02  0.51100000000E-03 0. -1.
        -11    1    4    4    0    0 -0.82583137666E+01  0.44486454212E+01 -0.19988727641E+00  0.93824382511E+01  0.51100000000E-03 0.  1.
         12    1    4    4    0    0  0.91099474985E+01 -0.60619646011E+01 -0.12288294378E+02  0.16454201195E+02  0.00000000000E+00 0. -1.
</event>
<event>
 8    1  0.1244838E-006  0.9118800E+02  0.7816164E-02  0.1184000E+00
        -11   -1    0    0    0    0  0.00000000000E+00  0.00000000000E+00  0.45593999997E+02  0.45594000000E+02  0.51100000000E-03 0. -1.
         11   -1    0    0    0    0 -0.00000000000E+00 -0.00000000000E+00 -0.45593999997E+02  0.45594000000E+02  0.51100000000E-03 0.  1.
         23    2    1    2    0    0  0.35527136788E-14  0.00000000000E+00 -0.35527136788E-14  0.91188000000E+02  0.91188000000E+02 0.  0.
    9900012    2    3    3    0    0  0.27539277007E+02  0.23912064947E+02  0.50577336179E+01  0.54367091572E+02  0.40000016857E+02 0.  0.
        -12    1    3    3    0    0 -0.27539277007E+02 -0.23912064947E+02 -0.50577336179E+01  0.36820908428E+02  0.00000000000E+00 0.  1.
         11    1    4    4    0    0  0.67100189481E+01  0.60984262850E+01 -0.10168889361E+01  0.91241010958E+01  0.51100000000E-03 0. -1.
        -11    1    4    4    0    0  0.54337844186E+00  0.89567530207E+00  0.16728101346E+02  0.16760873166E+02  0.51100000000E-03 0.  1.
        -12    1    4    4    0    0  0.20285879617E+02  0.16917963360E+02 -0.10653478792E+02  0.28482117310E+02  0.00000000000E+00 0.  1.
</event>
<event>
 8    1  0.1244838E-006  0.9118800E+02  0.7816164E-02  0.1184000E+00
        -11   -1    0    0    0    0  0.00000000000E+00  0.00000000000E+00  0.45593999997E+02  0.45594000000E+02  0.51100000000E-03 0.  1.
         11   -1    0    0    0    0 -0.00000000000E+00 -0.00000000000E+00 -0.45593999997E+02  0.45594000000E+02  0.51100000000E-03 0. -1.
         23    2    1    2    0    0  0.88817841970E-15  0.00000000000E+00 -0.71054273576E-14  0.91188000000E+02  0.91188000000E+02 0.  0.
    9900012    2    3    3    0    0  0.50883918731E+01  0.91408593493E+01  0.35303464313E+02  0.54367059843E+02  0.39999944525E+02 0.  0.
         12    1    3    3    0    0 -0.50883918731E+01 -0.91408593493E+01 -0.35303464313E+02  0.36820940157E+02  0.00000000000E+00 0. -1.
         11    1    4    4    0    0  0.35286130014E+01  0.10741688423E+02 -0.25979199078E+01  0.11601041677E+02  0.51100000000E-03 0.  1.
        -11    1    4    4    0    0 -0.78515066062E+01  0.34806327573E+01  0.21853759278E+02  0.23480795455E+02  0.51100000000E-03 0. -1.
        -12    1    4    4    0    0  0.94112854779E+01 -0.50814618309E+01  0.16047624943E+02  0.19285222711E+02  0.00000000000E+00 0.  1.
</event>
<event>
 8    1  0.1244838E-006  0.9118800E+02  0.7816164E-02  0.1184000E+00
        -11   -1    0    0    0    0  0.00000000000E+00  0.00000000000E+00  0.45593999997E+02  0.45594000000E+02  0.51100000000E-03 0. -1.
         11   -1    0    0    0    0 -0.00000000000E+00 -0.00000000000E+00 -0.45593999997E+02  0.45594000000E+02  0.51100000000E-03 0.  1.
         23    2    1    2    0    0  0.00000000000E+00  0.00000000000E+00  0.00000000000E+00  0.91188000000E+02  0.91188000000E+02 0.  0.
    9900012    2    3    3    0    0 -0.84924431648E+01  0.35648061323E+02 -0.35880846807E+01  0.54367079063E+02  0.39999988340E+02 0.  0.
         12    1    3    3    0    0  0.84924431648E+01 -0.35648061323E+02  0.35880846807E+01  0.36820920937E+02  0.00000000000E+00 0. -1.
         11    1    4    4    0    0 -0.65452252950E+01  0.60825214037E+01 -0.70943382900E+01  0.11409061172E+02  0.51100000000E-03 0. -1.
        -11    1    4    4    0    0 -0.73155434973E+00  0.35625525615E+02  0.62821216232E+01  0.36182569001E+02  0.51100000000E-03 0.  1.
        -12    1    4    4    0    0 -0.12156635201E+01 -0.60599856966E+01 -0.27758680139E+01  0.67754488905E+01  0.00000000000E+00 0.  1.
</event>
<event>
 8    1  0.1244838E-006  0.9118800E+02  0.7816164E-02  0.1184000E+00
        -11   -1    0    0    0    0  0.00000000000E+00  0.00000000000E+00  0.45593999997E+02  0.45594000000E+02  0.51100000000E-03 0. -1.
         11   -1    0    0    0    0 -0.00000000000E+00 -0.00000000000E+00 -0.45593999997E+02  0.45594000000E+02  0.51100000000E-03 0.  1.
         23    2    1    2    0    0  0.00000000000E+00  0.00000000000E+00  0.00000000000E+00  0.91188000000E+02  0.91188000000E+02 0.  0.
    9900012    2    3    3    0    0 -0.25376488652E+02 -0.17680691864E+02  0.19980148775E+02  0.54367090368E+02  0.40000014111E+02 0.  0.
         12    1    3    3    0    0  0.25376488652E+02  0.17680691864E+02 -0.19980148775E+02  0.36820909632E+02  0.00000000000E+00 0. -1.
         11    1    4    4    0    0 -0.14498157397E+02 -0.11662084847E+02  0.53651325395E+01  0.19364540747E+02  0.51100000000E-03 0. -1.
        -11    1    4    4    0    0 -0.99234987364E+01 -0.16515980498E+02  0.33177297839E+01  0.19551490229E+02  0.51100000000E-03 0.  1.
         12    1    4    4    0    0 -0.95483251837E+00  0.10497373482E+02  0.11297286451E+02  0.15451059392E+02  0.00000000000E+00 0. -1.
</event>
<event>
 8    1  0.1244838E-006  0.9118800E+02  0.7816164E-02  0.1184000E+00
        -11   -1    0    0    0    0  0.00000000000E+00  0.00000000000E+00  0.45593999997E+02  0.45594000000E+02  0.51100000000E-03 0. -1.
         11   -1    0    0    0    0 -0.00000000000E+00 -0.00000000000E+00 -0.45593999997E+02  0.45594000000E+02  0.51100000000E-03 0.  1.
         23    2    1    2    0    0  0.71054273576E-14  0.00000000000E+00  0.00000000000E+00  0.91188000000E+02  0.91188000000E+02 0.  0.
    9900012    2    3    3    0    0  0.32914195820E+02 -0.15901521286E+02  0.44246178043E+01  0.54367083276E+02  0.39999997944E+02 0.  0.
         12    1    3    3    0    0 -0.32914195820E+02  0.15901521286E+02 -0.44246178043E+01  0.36820916724E+02  0.00000000000E+00 0. -1.
         11    1    4    4    0    0  0.11657151951E+02  0.31952229770E+01 -0.12530100467E+01  0.12151900095E+02  0.51100000000E-03 0. -1.
        -11    1    4    4    0    0  0.24399574761E+02 -0.32022352693E+01  0.79350261656E+01  0.25856492410E+02  0.51100000000E-03 0.  1.
         12    1    4    4    0    0 -0.31425308929E+01 -0.15894508994E+02 -0.22573983146E+01  0.16358690770E+02  0.00000000000E+00 0. -1.
</event>
<event>
 8    1  0.1244838E-006  0.9118800E+02  0.7816164E-02  0.1184000E+00
        -11   -1    0    0    0    0  0.00000000000E+00  0.00000000000E+00  0.45593999997E+02  0.45594000000E+02  0.51100000000E-03 0.  1.
         11   -1    0    0    0    0 -0.00000000000E+00 -0.00000000000E+00 -0.45593999997E+02  0.45594000000E+02  0.51100000000E-03 0. -1.
         23    2    1    2    0    0  0.00000000000E+00  0.11102230246E-14  0.00000000000E+00  0.91188000000E+02  0.91188000000E+02 0.  0.
    9900012    2    3    3    0    0 -0.15096540993E+02 -0.13994730005E+01  0.33554683237E+02  0.54367070602E+02  0.39999969050E+02 0.  0.
         12    1    3    3    0    0  0.15096540993E+02  0.13994730005E+01 -0.33554683237E+02  0.36820929398E+02  0.00000000000E+00 0. -1.
         11    1    4    4    0    0 -0.15824086721E+02 -0.12273397167E+02  0.82422058116E+01  0.21655760330E+02  0.51100000000E-03 0. -1.
        -11    1    4    4    0    0 -0.67628759252E+01  0.85246596374E+01  0.74144758623E+01  0.13167413007E+02  0.51100000000E-03 0.  1.
         12    1    4    4    0    0  0.74904216529E+01  0.23492645290E+01  0.17898001563E+02  0.19543897265E+02  0.00000000000E+00 0. -1.
</event>
<event>
 8    1  0.1244838E-006  0.9118800E+02  0.7816164E-02  0.1184000E+00
        -11   -1    0    0    0    0  0.00000000000E+00  0.00000000000E+00  0.45593999997E+02  0.45594000000E+02  0.51100000000E-03 0.  1.
         11   -1    0    0    0    0 -0.00000000000E+00 -0.00000000000E+00 -0.45593999997E+02  0.45594000000E+02  0.51100000000E-03 0. -1.
         23    2    1    2    0    0  0.26645352591E-14  0.00000000000E+00  0.00000000000E+00  0.91188000000E+02  0.91188000000E+02 0.  0.
    9900012    2    3    3    0    0 -0.43122619274E+01 -0.34360177571E+02  0.12512500910E+02  0.54367080883E+02  0.39999992488E+02 0.  0.
         12    1    3    3    0    0  0.43122619274E+01  0.34360177571E+02 -0.12512500910E+02  0.36820919117E+02  0.00000000000E+00 0. -1.
         11    1    4    4    0    0  0.91166788313E+01 -0.18239494854E+01 -0.81014814746E+00  0.93325754710E+01  0.51100000000E-03 0. -1.
        -11    1    4    4    0    0 -0.58519949418E+00 -0.64707598926E+01  0.14566546967E+02  0.15949842722E+02  0.51100000000E-03 0.  1.
         12    1    4    4    0    0 -0.12843741265E+02 -0.26065468193E+02 -0.12438979097E+01  0.29084662690E+02  0.00000000000E+00 0. -1.
</event>
<event>
 8    1  0.1244838E-006  0.9118800E+02  0.7816164E-02  0.1184000E+00
        -11   -1    0    0    0    0  0.00000000000E+00  0.00000000000E+00  0.45593999997E+02  0.45594000000E+02  0.51100000000E-03 0.  1.
         11   -1    0    0    0    0 -0.00000000000E+00 -0.00000000000E+00 -0.45593999997E+02  0.45594000000E+02  0.51100000000E-03 0. -1.
         23    2    1    2    0    0  0.17763568394E-14  0.00000000000E+00  0.00000000000E+00  0.91188000000E+02  0.91188000000E+02 0.  0.
    9900012    2    3    3    0    0  0.13124745829E+02  0.11504136583E+02 -0.32421894056E+02  0.54367036870E+02  0.39999892153E+02 0.  0.
        -12    1    3    3    0    0 -0.13124745829E+02 -0.11504136583E+02  0.32421894056E+02  0.36820963130E+02  0.00000000000E+00 0.  1.
         11    1    4    4    0    0  0.20766830974E+01  0.16436160359E+02 -0.12035720362E+02  0.20477268981E+02  0.51100000000E-03 0. -1.
        -11    1    4    4    0    0  0.48973279714E+01  0.67380831594E+01 -0.18850505183E+02  0.20608909041E+02  0.51100000000E-03 0.  1.
        -12    1    4    4    0    0  0.61507347604E+01 -0.11670106935E+02 -0.15356685111E+01  0.13280858848E+02  0.00000000000E+00 0.  1.
</event>
<event>
 8    1  0.1244838E-006  0.9118800E+02  0.7816164E-02  0.1184000E+00
        -11   -1    0    0    0    0  0.00000000000E+00  0.00000000000E+00  0.45593999997E+02  0.45594000000E+02  0.51100000000E-03 0.  1.
         11   -1    0    0    0    0 -0.00000000000E+00 -0.00000000000E+00 -0.45593999997E+02  0.45594000000E+02  0.51100000000E-03 0. -1.
         23    2    1    2    0    0  0.88817841970E-15 -0.88817841970E-15 -0.71054273576E-14  0.91188000000E+02  0.91188000000E+02 0.  0.
    9900012    2    3    3    0    0  0.54216810274E+01  0.42938423911E+01  0.36165567621E+02  0.54367082181E+02  0.39999995449E+02 0.  0.
         12    1    3    3    0    0 -0.54216810274E+01 -0.42938423911E+01 -0.36165567621E+02  0.36820917819E+02  0.00000000000E+00 0. -1.
         11    1    4    4    0    0  0.61733939841E+01 -0.10202176343E+01  0.11346250463E+01  0.63591675211E+01  0.51100000000E-03 0. -1.
        -11    1    4    4    0    0  0.13072323126E+02 -0.64206636632E+01  0.17737205993E+02  0.22950360138E+02  0.51100000000E-03 0.  1.
        -12    1    4    4    0    0 -0.13824036083E+02  0.11734723689E+02  0.17293736582E+02  0.25057554522E+02  0.00000000000E+00 0.  1.
</event>
<event>
 8    1  0.1244838E-006  0.9118800E+02  0.7816164E-02  0.1184000E+00
        -11   -1    0    0    0    0  0.00000000000E+00  0.00000000000E+00  0.45593999997E+02  0.45594000000E+02  0.51100000000E-03 0.  1.
         11   -1    0    0    0    0 -0.00000000000E+00 -0.00000000000E+00 -0.45593999997E+02  0.45594000000E+02  0.51100000000E-03 0. -1.
         23    2    1    2    0    0 -0.17763568394E-14 -0.71054273576E-14  0.88817841970E-15  0.91188000000E+02  0.91188000000E+02 0.  0.
    9900012    2    3    3    0    0  0.12788483289E+02 -0.34224925770E+02 -0.45704636870E+01  0.54367082207E+02  0.39999995507E+02 0.  0.
         12    1    3    3    0    0 -0.12788483289E+02  0.34224925770E+02  0.45704636870E+01  0.36820917793E+02  0.00000000000E+00 0. -1.
         11    1    4    4    0    0  0.18130270566E+02 -0.18539426118E+02 -0.44464819781E+01  0.26309470421E+02  0.51100000000E-03 0. -1.
        -11    1    4    4    0    0 -0.10133380688E+02 -0.55278787774E+01  0.81308103411E+01  0.14119239534E+02  0.51100000000E-03 0.  1.
        -12    1    4    4    0    0  0.47915934118E+01 -0.10157620875E+02 -0.82547920500E+01  0.13938372252E+02  0.00000000000E+00 0.  1.
</event>
<event>
 8    1  0.1244838E-006  0.9118800E+02  0.7816164E-02  0.1184000E+00
        -11   -1    0    0    0    0  0.00000000000E+00  0.00000000000E+00  0.45593999997E+02  0.45594000000E+02  0.51100000000E-03 0.  1.
         11   -1    0    0    0    0 -0.00000000000E+00 -0.00000000000E+00 -0.45593999997E+02  0.45594000000E+02  0.51100000000E-03 0. -1.
         23    2    1    2    0    0  0.22204460493E-15 -0.44408920985E-15  0.00000000000E+00  0.91188000000E+02  0.91188000000E+02 0.  0.
    9900012    2    3    3    0    0 -0.66207424035E+00  0.29178280995E+01  0.36699118627E+02  0.54367117730E+02  0.40000076490E+02 0.  0.
         12    1    3    3    0    0  0.66207424035E+00 -0.29178280995E+01 -0.36699118627E+02  0.36820882270E+02  0.00000000000E+00 0. -1.
         11    1    4    4    0    0 -0.29458888250E+01  0.12362299409E+02  0.32308335648E+02  0.34717909791E+02  0.51100000000E-03 0.  1.
        -11    1    4    4    0    0 -0.64573279183E+01 -0.10199403202E+01 -0.51012876789E+00  0.65572550448E+01  0.51100000000E-03 0. -1.
         12    1    4    4    0    0  0.87411425030E+01 -0.84245309893E+01  0.49009117467E+01  0.13091952895E+02  0.00000000000E+00 0. -1.
</event>
<event>
 8    1  0.1244838E-006  0.9118800E+02  0.7816164E-02  0.1184000E+00
        -11   -1    0    0    0    0  0.00000000000E+00  0.00000000000E+00  0.45593999997E+02  0.45594000000E+02  0.51100000000E-03 0.  1.
         11   -1    0    0    0    0 -0.00000000000E+00 -0.00000000000E+00 -0.45593999997E+02  0.45594000000E+02  0.51100000000E-03 0. -1.
         23    2    1    2    0    0 -0.23869795029E-14  0.35527136788E-14  0.35527136788E-14  0.91188000000E+02  0.91188000000E+02 0.  0.
    9900012    2    3    3    0    0 -0.30448163687E+00  0.31544133827E+02  0.18990893599E+02  0.54367093877E+02  0.40000022112E+02 0.  0.
         12    1    3    3    0    0  0.30448163687E+00 -0.31544133827E+02 -0.18990893599E+02  0.36820906123E+02  0.00000000000E+00 0. -1.
         11    1    4    4    0    0 -0.13685045175E+02  0.23757119946E+02  0.28183966092E+00  0.27418253836E+02  0.51100000000E-03 0. -1.
        -11    1    4    4    0    0  0.30702691270E+01  0.83956375071E+01  0.10233640618E+02  0.13588255304E+02  0.51100000000E-03 0.  1.
         12    1    4    4    0    0  0.10310294411E+02 -0.60862362594E+00  0.84754133209E+01  0.13360584737E+02  0.00000000000E+00 0. -1.
</event>
<event>
 8    1  0.1244838E-006  0.9118800E+02  0.7816164E-02  0.1184000E+00
        -11   -1    0    0    0    0  0.00000000000E+00  0.00000000000E+00  0.45593999997E+02  0.45594000000E+02  0.51100000000E-03 0. -1.
         11   -1    0    0    0    0 -0.00000000000E+00 -0.00000000000E+00 -0.45593999997E+02  0.45594000000E+02  0.51100000000E-03 0.  1.
         23    2    1    2    0    0  0.00000000000E+00  0.00000000000E+00  0.00000000000E+00  0.91188000000E+02  0.91188000000E+02 0.  0.
    9900012    2    3    3    0    0 -0.83646369717E+01 -0.12672045071E+02 -0.33544491863E+02  0.54367071002E+02  0.39999969962E+02 0.  0.
         12    1    3    3    0    0  0.83646369717E+01  0.12672045071E+02  0.33544491863E+02  0.36820928998E+02  0.00000000000E+00 0. -1.
         11    1    4    4    0    0  0.11836744990E+01 -0.29552564823E+01  0.63756367994E+00  0.32467081641E+01  0.51100000000E-03 0. -1.
        -11    1    4    4    0    0 -0.17484547248E+02  0.10633671948E+01 -0.38061190615E+01  0.17925587433E+02  0.51100000000E-03 0.  1.
        -12    1    4    4    0    0  0.79362357769E+01 -0.10780155784E+02 -0.30375936482E+02  0.33194775405E+02  0.00000000000E+00 0.  1.
</event>
<event>
 8    1  0.1244838E-006  0.9118800E+02  0.7816164E-02  0.1184000E+00
        -11   -1    0    0    0    0  0.00000000000E+00  0.00000000000E+00  0.45593999997E+02  0.45594000000E+02  0.51100000000E-03 0.  1.
         11   -1    0    0    0    0 -0.00000000000E+00 -0.00000000000E+00 -0.45593999997E+02  0.45594000000E+02  0.51100000000E-03 0. -1.
         23    2    1    2    0    0  0.00000000000E+00  0.71054273576E-14  0.17763568394E-14  0.91188000000E+02  0.91188000000E+02 0.  0.
    9900012    2    3    3    0    0  0.12363789531E+02  0.32679578349E+02  0.11617236920E+02  0.54367104760E+02  0.40000046921E+02 0.  0.
         12    1    3    3    0    0 -0.12363789531E+02 -0.32679578349E+02 -0.11617236920E+02  0.36820895240E+02  0.00000000000E+00 0. -1.
         11    1    4    4    0    0  0.79623288439E+01  0.86530351083E+01  0.16984116060E+02  0.20657538474E+02  0.51100000000E-03 0. -1.
        -11    1    4    4    0    0 -0.40870358988E+01  0.28799947855E+00  0.49882409964E+01  0.64551804496E+01  0.51100000000E-03 0.  1.
         12    1    4    4    0    0  0.84884965861E+01  0.23738543762E+02 -0.10355120137E+02  0.27254385836E+02  0.00000000000E+00 0. -1.
</event>
<event>
 8    1  0.1244838E-006  0.9118800E+02  0.7816164E-02  0.1184000E+00
        -11   -1    0    0    0    0  0.00000000000E+00  0.00000000000E+00  0.45593999997E+02  0.45594000000E+02  0.51100000000E-03 0.  1.
         11   -1    0    0    0    0 -0.00000000000E+00 -0.00000000000E+00 -0.45593999997E+02  0.45594000000E+02  0.51100000000E-03 0. -1.
         23    2    1    2    0    0 -0.88817841970E-15 -0.17763568394E-14  0.00000000000E+00  0.91188000000E+02  0.91188000000E+02 0.  0.
    9900012    2    3    3    0    0 -0.51406318322E+01  0.82607360372E+01 -0.35512203629E+02  0.54367048598E+02  0.39999918889E+02 0.  0.
        -12    1    3    3    0    0  0.51406318322E+01 -0.82607360372E+01  0.35512203629E+02  0.36820951402E+02  0.00000000000E+00 0.  1.
         11    1    4    4    0    0  0.20673587738E+01 -0.33687652801E+01 -0.14348246976E+02  0.14882699465E+02  0.51100000000E-03 0. -1.
        -11    1    4    4    0    0 -0.98445122798E+01  0.18905714501E+02 -0.23176350601E+02  0.31487834003E+02  0.51100000000E-03 0.  1.
        -12    1    4    4    0    0  0.26365216738E+01 -0.72762131832E+01  0.20123939474E+01  0.79965151299E+01  0.00000000000E+00 0.  1.
</event>
<event>
 8    1  0.1244838E-006  0.9118800E+02  0.7816164E-02  0.1184000E+00
        -11   -1    0    0    0    0  0.00000000000E+00  0.00000000000E+00  0.45593999997E+02  0.45594000000E+02  0.51100000000E-03 0. -1.
         11   -1    0    0    0    0 -0.00000000000E+00 -0.00000000000E+00 -0.45593999997E+02  0.45594000000E+02  0.51100000000E-03 0.  1.
         23    2    1    2    0    0  0.00000000000E+00  0.00000000000E+00  0.00000000000E+00  0.91188000000E+02  0.91188000000E+02 0.  0.
    9900012    2    3    3    0    0 -0.29378461315E+02  0.22182119017E+02 -0.79805208956E+00  0.54367118961E+02  0.40000079296E+02 0.  0.
         12    1    3    3    0    0  0.29378461315E+02 -0.22182119017E+02  0.79805208956E+00  0.36820881039E+02  0.00000000000E+00 0. -1.
         11    1    4    4    0    0 -0.75638274925E+01  0.21847763663E+02 -0.65689961043E+01  0.24035140388E+02  0.51100000000E-03 0.  1.
        -11    1    4    4    0    0 -0.16222979934E+02  0.65796940550E+01 -0.34788533316E+01  0.17848805914E+02  0.51100000000E-03 0. -1.
         12    1    4    4    0    0 -0.55916538890E+01 -0.62453387005E+01  0.92497973464E+01  0.12483172660E+02  0.00000000000E+00 0. -1.
</event>
<event>
 8    1  0.1244838E-006  0.9118800E+02  0.7816164E-02  0.1184000E+00
        -11   -1    0    0    0    0  0.00000000000E+00  0.00000000000E+00  0.45593999997E+02  0.45594000000E+02  0.51100000000E-03 0.  1.
         11   -1    0    0    0    0 -0.00000000000E+00 -0.00000000000E+00 -0.45593999997E+02  0.45594000000E+02  0.51100000000E-03 0. -1.
         23    2    1    2    0    0 -0.88817841970E-15  0.00000000000E+00  0.88817841970E-15  0.91188000000E+02  0.91188000000E+02 0.  0.
    9900012    2    3    3    0    0  0.37725535126E+01 -0.36321942746E+02  0.47181575051E+01  0.54367126911E+02  0.40000097418E+02 0.  0.
         12    1    3    3    0    0 -0.37725535126E+01  0.36321942746E+02 -0.47181575051E+01  0.36820873089E+02  0.00000000000E+00 0. -1.
         11    1    4    4    0    0 -0.22617616063E+01  0.20900924437E+01  0.31539697689E+01  0.44081263084E+01  0.51100000000E-03 0. -1.
        -11    1    4    4    0    0  0.16912529995E+02 -0.29745474034E+02 -0.49975985043E+01  0.34580382985E+02  0.51100000000E-03 0.  1.
        -12    1    4    4    0    0 -0.10878214876E+02 -0.86665611552E+01  0.65617862405E+01  0.15378617617E+02  0.00000000000E+00 0.  1.
</event>
<event>
 8    1  0.1244838E-006  0.9118800E+02  0.7816164E-02  0.1184000E+00
        -11   -1    0    0    0    0  0.00000000000E+00  0.00000000000E+00  0.45593999997E+02  0.45594000000E+02  0.51100000000E-03 0.  1.
         11   -1    0    0    0    0 -0.00000000000E+00 -0.00000000000E+00 -0.45593999997E+02  0.45594000000E+02  0.51100000000E-03 0. -1.
         23    2    1    2    0    0  0.17763568394E-14  0.00000000000E+00  0.00000000000E+00  0.91188000000E+02  0.91188000000E+02 0.  0.
    9900012    2    3    3    0    0  0.13103376542E+02  0.30893211886E+02 -0.15155537804E+02  0.54367090946E+02  0.40000015429E+02 0.  0.
        -12    1    3    3    0    0 -0.13103376542E+02 -0.30893211886E+02  0.15155537804E+02  0.36820909054E+02  0.00000000000E+00 0.  1.
         11    1    4    4    0    0  0.79490929713E+01  0.71150076636E+01 -0.17535153422E+02  0.20525423720E+02  0.51100000000E-03 0. -1.
        -11    1    4    4    0    0 -0.43747460526E+00  0.14790880050E+02 -0.97670750127E+01  0.17730123273E+02  0.51100000000E-03 0.  1.
        -12    1    4    4    0    0  0.55917581759E+01  0.89873241721E+01  0.12146690630E+02  0.16111543953E+02  0.00000000000E+00 0.  1.
</event>
<event>
 8    1  0.1244838E-006  0.9118800E+02  0.7816164E-02  0.1184000E+00
        -11   -1    0    0    0    0  0.00000000000E+00  0.00000000000E+00  0.45593999997E+02  0.45594000000E+02  0.51100000000E-03 0.  1.
         11   -1    0    0    0    0 -0.00000000000E+00 -0.00000000000E+00 -0.45593999997E+02  0.45594000000E+02  0.51100000000E-03 0. -1.
         23    2    1    2    0    0  0.00000000000E+00  0.00000000000E+00 -0.35527136788E-14  0.91188000000E+02  0.91188000000E+02 0.  0.
    9900012    2    3    3    0    0 -0.16916945903E+02 -0.13803783887E+02 -0.29648811115E+02  0.54367088702E+02  0.40000010315E+02 0.  0.
        -12    1    3    3    0    0  0.16916945903E+02  0.13803783887E+02  0.29648811115E+02  0.36820911298E+02  0.00000000000E+00 0.  1.
         11    1    4    4    0    0 -0.14664620829E+02 -0.46308138149E+01 -0.55449985756E+00  0.15388405083E+02  0.51100000000E-03 0.  1.
        -11    1    4    4    0    0 -0.10144436729E+02 -0.66815816333E+00 -0.32893003363E+01  0.10685294981E+02  0.51100000000E-03 0. -1.
         12    1    4    4    0    0  0.78921116548E+01 -0.85048119084E+01 -0.25805010921E+02  0.28293388638E+02  0.00000000000E+00 0. -1.
</event>
<event>
 8    1  0.1244838E-006  0.9118800E+02  0.7816164E-02  0.1184000E+00
        -11   -1    0    0    0    0  0.00000000000E+00  0.00000000000E+00  0.45593999997E+02  0.45594000000E+02  0.51100000000E-03 0.  1.
         11   -1    0    0    0    0 -0.00000000000E+00 -0.00000000000E+00 -0.45593999997E+02  0.45594000000E+02  0.51100000000E-03 0. -1.
         23    2    1    2    0    0  0.00000000000E+00  0.35527136788E-14  0.35527136788E-14  0.91188000000E+02  0.91188000000E+02 0.  0.
    9900012    2    3    3    0    0  0.14728975048E+02 -0.29260023720E+02 -0.16813356252E+02  0.54367073307E+02  0.39999975219E+02 0.  0.
        -12    1    3    3    0    0 -0.14728975048E+02  0.29260023720E+02  0.16813356252E+02  0.36820926693E+02  0.00000000000E+00 0.  1.
         11    1    4    4    0    0  0.23926921819E+02 -0.17178697165E+02 -0.13691575628E+02  0.32481755917E+02  0.51100000000E-03 0. -1.
        -11    1    4    4    0    0 -0.45754203028E+01 -0.99418586945E+01  0.52091164586E+01  0.12120640238E+02  0.51100000000E-03 0.  1.
         12    1    4    4    0    0 -0.46225264683E+01 -0.21394678601E+01 -0.83308970826E+01  0.97646771516E+01  0.00000000000E+00 0. -1.
</event>
<event>
 8    1  0.1244838E-006  0.9118800E+02  0.7816164E-02  0.1184000E+00
        -11   -1    0    0    0    0  0.00000000000E+00  0.00000000000E+00  0.45593999997E+02  0.45594000000E+02  0.51100000000E-03 0. -1.
         11   -1    0    0    0    0 -0.00000000000E+00 -0.00000000000E+00 -0.45593999997E+02  0.45594000000E+02  0.51100000000E-03 0.  1.
         23    2    1    2    0    0  0.00000000000E+00  0.00000000000E+00  0.00000000000E+00  0.91188000000E+02  0.91188000000E+02 0.  0.
    9900012    2    3    3    0    0  0.23723506064E+02  0.19286033457E+02  0.20518864659E+02  0.54367087011E+02  0.40000006460E+02 0.  0.
        -12    1    3    3    0    0 -0.23723506064E+02 -0.19286033457E+02 -0.20518864659E+02  0.36820912989E+02  0.00000000000E+00 0.  1.
         11    1    4    4    0    0  0.21888574334E+02  0.27303062904E+02  0.16083264257E+02  0.38512833183E+02  0.51100000000E-03 0. -1.
        -11    1    4    4    0    0  0.28451243562E+01 -0.10433827386E+02  0.13131753301E+00  0.10815578167E+02  0.51100000000E-03 0.  1.
         12    1    4    4    0    0 -0.10101926266E+01  0.24167979386E+01  0.43042828683E+01  0.50386756622E+01  0.00000000000E+00 0. -1.
</event>
<event>
 8    1  0.1244838E-006  0.9118800E+02  0.7816164E-02  0.1184000E+00
        -11   -1    0    0    0    0  0.00000000000E+00  0.00000000000E+00  0.45593999997E+02  0.45594000000E+02  0.51100000000E-03 0.  1.
         11   -1    0    0    0    0 -0.00000000000E+00 -0.00000000000E+00 -0.45593999997E+02  0.45594000000E+02  0.51100000000E-03 0. -1.
         23    2    1    2    0    0  0.00000000000E+00  0.00000000000E+00  0.00000000000E+00  0.91188000000E+02  0.91188000000E+02 0.  0.
    9900012    2    3    3    0    0  0.19385893010E+02 -0.17287499449E+02  0.26098088003E+02  0.54367072766E+02  0.39999973984E+02 0.  0.
         12    1    3    3    0    0 -0.19385893010E+02  0.17287499449E+02 -0.26098088003E+02  0.36820927234E+02  0.00000000000E+00 0. -1.
         11    1    4    4    0    0  0.20932255075E+01 -0.65060052206E+01  0.30528539324E+02  0.31284203849E+02  0.51100000000E-03 0. -1.
        -11    1    4    4    0    0  0.14073003806E+02 -0.70818454776E+01  0.97437263603E+00  0.15784529571E+02  0.51100000000E-03 0.  1.
         12    1    4    4    0    0  0.32196636961E+01 -0.36996487506E+01 -0.54048239568E+01  0.72983393452E+01  0.00000000000E+00 0. -1.
</event>
<event>
 8    1  0.1244838E-006  0.9118800E+02  0.7816164E-02  0.1184000E+00
        -11   -1    0    0    0    0  0.00000000000E+00  0.00000000000E+00  0.45593999997E+02  0.45594000000E+02  0.51100000000E-03 0. -1.
         11   -1    0    0    0    0 -0.00000000000E+00 -0.00000000000E+00 -0.45593999997E+02  0.45594000000E+02  0.51100000000E-03 0.  1.
         23    2    1    2    0    0  0.00000000000E+00 -0.35527136788E-14  0.00000000000E+00  0.91188000000E+02  0.91188000000E+02 0.  0.
    9900012    2    3    3    0    0 -0.43070670654E+01 -0.30439714590E+02 -0.20264634844E+02  0.54367048404E+02  0.39999918447E+02 0.  0.
         12    1    3    3    0    0  0.43070670654E+01  0.30439714590E+02  0.20264634844E+02  0.36820951596E+02  0.00000000000E+00 0. -1.
         11    1    4    4    0    0  0.28858447198E+01 -0.80784057568E+01  0.59155101012E+00  0.85987599209E+01  0.51100000000E-03 0. -1.
        -11    1    4    4    0    0 -0.57784223297E+01  0.67828649505E+01 -0.12621815885E+02  0.15450166926E+02  0.51100000000E-03 0.  1.
        -12    1    4    4    0    0 -0.14144894555E+01 -0.29144173784E+02 -0.82343699695E+01  0.30318121557E+02  0.00000000000E+00 0.  1.
</event>
<event>
 8    1  0.1244838E-006  0.9118800E+02  0.7816164E-02  0.1184000E+00
        -11   -1    0    0    0    0  0.00000000000E+00  0.00000000000E+00  0.45593999997E+02  0.45594000000E+02  0.51100000000E-03 0. -1.
         11   -1    0    0    0    0 -0.00000000000E+00 -0.00000000000E+00 -0.45593999997E+02  0.45594000000E+02  0.51100000000E-03 0.  1.
         23    2    1    2    0    0 -0.35527136788E-14  0.44408920985E-15 -0.35527136788E-14  0.91188000000E+02  0.91188000000E+02 0.  0.
    9900012    2    3    3    0    0 -0.26563374823E+02  0.35877702454E+01 -0.25244690768E+02  0.54367090325E+02  0.40000014015E+02 0.  0.
         12    1    3    3    0    0  0.26563374823E+02 -0.35877702454E+01  0.25244690768E+02  0.36820909675E+02  0.00000000000E+00 0. -1.
         11    1    4    4    0    0  0.51197749113E+01  0.57000258690E+01 -0.12339500599E+02  0.14524657151E+02  0.51100000000E-03 0. -1.
        -11    1    4    4    0    0 -0.26858958683E+02  0.63051685528E+01 -0.12040803051E+02  0.30102155245E+02  0.51100000000E-03 0.  1.
         12    1    4    4    0    0 -0.48241910513E+01 -0.84174241764E+01 -0.86438711775E+00  0.97402779300E+01  0.00000000000E+00 0. -1.
</event>
<event>
 8    1  0.1244838E-006  0.9118800E+02  0.7816164E-02  0.1184000E+00
        -11   -1    0    0    0    0  0.00000000000E+00  0.00000000000E+00  0.45593999997E+02  0.45594000000E+02  0.51100000000E-03 0. -1.
         11   -1    0    0    0    0 -0.00000000000E+00 -0.00000000000E+00 -0.45593999997E+02  0.45594000000E+02  0.51100000000E-03 0.  1.
         23    2    1    2    0    0  0.00000000000E+00  0.00000000000E+00  0.00000000000E+00  0.91188000000E+02  0.91188000000E+02 0.  0.
    9900012    2    3    3    0    0  0.10175922505E+02  0.29956003086E+02  0.18837934875E+02  0.54367091400E+02  0.40000016465E+02 0.  0.
        -12    1    3    3    0    0 -0.10175922505E+02 -0.29956003086E+02 -0.18837934875E+02  0.36820908600E+02  0.00000000000E+00 0.  1.
         11    1    4    4    0    0  0.10751902026E+02  0.50670185827E+01  0.20044874962E+02  0.23303971485E+02  0.51100000000E-03 0. -1.
        -11    1    4    4    0    0 -0.88347221950E+01  0.16808382483E+02 -0.34321001725E+01  0.19296459515E+02  0.51100000000E-03 0.  1.
         12    1    4    4    0    0  0.82587426736E+01  0.80806020205E+01  0.22251600864E+01  0.11766660400E+02  0.00000000000E+00 0. -1.
</event>
<event>
 8    1  0.1244838E-006  0.9118800E+02  0.7816164E-02  0.1184000E+00
        -11   -1    0    0    0    0  0.00000000000E+00  0.00000000000E+00  0.45593999997E+02  0.45594000000E+02  0.51100000000E-03 0. -1.
         11   -1    0    0    0    0 -0.00000000000E+00 -0.00000000000E+00 -0.45593999997E+02  0.45594000000E+02  0.51100000000E-03 0.  1.
         23    2    1    2    0    0  0.00000000000E+00  0.00000000000E+00  0.00000000000E+00  0.91188000000E+02  0.91188000000E+02 0.  0.
    9900012    2    3    3    0    0 -0.12170507057E+02 -0.33175548452E+02 -0.10346115694E+02  0.54367077048E+02  0.39999983746E+02 0.  0.
         12    1    3    3    0    0  0.12170507057E+02  0.33175548452E+02  0.10346115694E+02  0.36820922952E+02  0.00000000000E+00 0. -1.
         11    1    4    4    0    0  0.31782315909E+01  0.47823622316E+01 -0.39031037814E+01  0.69430802926E+01  0.51100000000E-03 0. -1.
        -11    1    4    4    0    0  0.17506708753E+01 -0.25942064055E+02 -0.21604297636E+01  0.26090668695E+02  0.51100000000E-03 0.  1.
        -12    1    4    4    0    0 -0.17099409523E+02 -0.12015846629E+02 -0.42825821486E+01  0.21333328060E+02  0.00000000000E+00 0.  1.
</event>
<event>
 8    1  0.1244838E-006  0.9118800E+02  0.7816164E-02  0.1184000E+00
        -11   -1    0    0    0    0  0.00000000000E+00  0.00000000000E+00  0.45593999997E+02  0.45594000000E+02  0.51100000000E-03 0.  1.
         11   -1    0    0    0    0 -0.00000000000E+00 -0.00000000000E+00 -0.45593999997E+02  0.45594000000E+02  0.51100000000E-03 0. -1.
         23    2    1    2    0    0  0.00000000000E+00  0.00000000000E+00  0.00000000000E+00  0.91188000000E+02  0.91188000000E+02 0.  0.
    9900012    2    3    3    0    0  0.29123867988E+02  0.14046833712E+02 -0.17614371924E+02  0.54367091236E+02  0.40000016091E+02 0.  0.
         12    1    3    3    0    0 -0.29123867988E+02 -0.14046833712E+02  0.17614371924E+02  0.36820908764E+02  0.00000000000E+00 0. -1.
         11    1    4    4    0    0  0.12021633470E+01 -0.77929184766E+00 -0.13039084425E+02  0.13117553713E+02  0.51100000000E-03 0. -1.
        -11    1    4    4    0    0  0.27603781558E+02  0.12227634310E+02 -0.12670321134E+02  0.32741729262E+02  0.51100000000E-03 0.  1.
        -12    1    4    4    0    0  0.31792308248E+00  0.25984912498E+01  0.80950336354E+01  0.85078082618E+01  0.00000000000E+00 0.  1.
</event>
<event>
 8    1  0.1244838E-006  0.9118800E+02  0.7816164E-02  0.1184000E+00
        -11   -1    0    0    0    0  0.00000000000E+00  0.00000000000E+00  0.45593999997E+02  0.45594000000E+02  0.51100000000E-03 0. -1.
         11   -1    0    0    0    0 -0.00000000000E+00 -0.00000000000E+00 -0.45593999997E+02  0.45594000000E+02  0.51100000000E-03 0.  1.
         23    2    1    2    0    0  0.00000000000E+00  0.88817841970E-15  0.17763568394E-14  0.91188000000E+02  0.91188000000E+02 0.  0.
    9900012    2    3    3    0    0  0.35052465358E+02  0.63352388227E+01  0.93256724273E+01  0.54367099077E+02  0.40000033965E+02 0.  0.
        -12    1    3    3    0    0 -0.35052465358E+02 -0.63352388227E+01 -0.93256724273E+01  0.36820900923E+02  0.00000000000E+00 0.  1.
         11    1    4    4    0    0  0.13108709253E+02 -0.12059150678E+02 -0.28611213079E+01  0.18040160441E+02  0.51100000000E-03 0. -1.
        -11    1    4    4    0    0  0.34260584033E+01  0.11424055181E+02 -0.18474066474E+01  0.12068961204E+02  0.51100000000E-03 0.  1.
        -12    1    4    4    0    0  0.18517697701E+02  0.69703343190E+01  0.14034200383E+02  0.24257977431E+02  0.00000000000E+00 0.  1.
</event>
<event>
 8    1  0.1244838E-006  0.9118800E+02  0.7816164E-02  0.1184000E+00
        -11   -1    0    0    0    0  0.00000000000E+00  0.00000000000E+00  0.45593999997E+02  0.45594000000E+02  0.51100000000E-03 0. -1.
         11   -1    0    0    0    0 -0.00000000000E+00 -0.00000000000E+00 -0.45593999997E+02  0.45594000000E+02  0.51100000000E-03 0.  1.
         23    2    1    2    0    0  0.00000000000E+00  0.00000000000E+00  0.00000000000E+00  0.91188000000E+02  0.91188000000E+02 0.  0.
    9900012    2    3    3    0    0 -0.33423169494E+02 -0.15214785416E+02  0.26800264027E+01  0.54367075299E+02  0.39999979760E+02 0.  0.
         12    1    3    3    0    0  0.33423169494E+02  0.15214785416E+02 -0.26800264027E+01  0.36820924701E+02  0.00000000000E+00 0. -1.
         11    1    4    4    0    0  0.14165620062E+01 -0.11375298252E+02 -0.37678357539E+01  0.12066509221E+02  0.51100000000E-03 0. -1.
        -11    1    4    4    0    0 -0.20337163048E+02 -0.12093310066E+02 -0.17169264515E+01  0.23723325776E+02  0.51100000000E-03 0.  1.
         12    1    4    4    0    0 -0.14502568453E+02  0.82538229023E+01  0.81647886081E+01  0.18577240302E+02  0.00000000000E+00 0. -1.
</event>
<event>
 8    1  0.1244838E-006  0.9118800E+02  0.7816164E-02  0.1184000E+00
        -11   -1    0    0    0    0  0.00000000000E+00  0.00000000000E+00  0.45593999997E+02  0.45594000000E+02  0.51100000000E-03 0. -1.
         11   -1    0    0    0    0 -0.00000000000E+00 -0.00000000000E+00 -0.45593999997E+02  0.45594000000E+02  0.51100000000E-03 0.  1.
         23    2    1    2    0    0 -0.35527136788E-14  0.00000000000E+00  0.00000000000E+00  0.91188000000E+02  0.91188000000E+02 0.  0.
    9900012    2    3    3    0    0  0.30966346770E+02  0.19405578881E+02 -0.45040290463E+01  0.54367117315E+02  0.40000075544E+02 0.  0.
         12    1    3    3    0    0 -0.30966346770E+02 -0.19405578881E+02  0.45040290463E+01  0.36820882685E+02  0.00000000000E+00 0. -1.
         11    1    4    4    0    0  0.46857288710E+01 -0.13804920830E+01  0.71636667521E+01  0.86706363688E+01  0.51100000000E-03 0. -1.
        -11    1    4    4    0    0  0.14510153244E+02 -0.31986429327E+01 -0.11807717955E+02  0.18978884776E+02  0.51100000000E-03 0.  1.
         12    1    4    4    0    0  0.11770464656E+02  0.23984713897E+02  0.14002215704E+00  0.26717596171E+02  0.00000000000E+00 0. -1.
</event>
<event>
 8    1  0.1244838E-006  0.9118800E+02  0.7816164E-02  0.1184000E+00
        -11   -1    0    0    0    0  0.00000000000E+00  0.00000000000E+00  0.45593999997E+02  0.45594000000E+02  0.51100000000E-03 0. -1.
         11   -1    0    0    0    0 -0.00000000000E+00 -0.00000000000E+00 -0.45593999997E+02  0.45594000000E+02  0.51100000000E-03 0.  1.
         23    2    1    2    0    0  0.00000000000E+00  0.00000000000E+00  0.00000000000E+00  0.91188000000E+02  0.91188000000E+02 0.  0.
    9900012    2    3    3    0    0 -0.32963326446E+02  0.59153572471E+01 -0.15303942200E+02  0.54367041449E+02  0.39999902591E+02 0.  0.
         12    1    3    3    0    0  0.32963326446E+02 -0.59153572471E+01  0.15303942200E+02  0.36820958551E+02  0.00000000000E+00 0. -1.
         11    1    4    4    0    0 -0.63590954183E+01 -0.11814015779E+01  0.46879577514E+01  0.79881632662E+01  0.51100000000E-03 0. -1.
        -11    1    4    4    0    0 -0.33785011711E+02  0.46854592403E+01 -0.14714721456E+02  0.37147053347E+02  0.51100000000E-03 0.  1.
         12    1    4    4    0    0  0.71807806833E+01  0.24112995847E+01 -0.52771784959E+01  0.92318248351E+01  0.00000000000E+00 0. -1.
</event>
<event>
 8    1  0.1244838E-006  0.9118800E+02  0.7816164E-02  0.1184000E+00
        -11   -1    0    0    0    0  0.00000000000E+00  0.00000000000E+00  0.45593999997E+02  0.45594000000E+02  0.51100000000E-03 0.  1.
         11   -1    0    0    0    0 -0.00000000000E+00 -0.00000000000E+00 -0.45593999997E+02  0.45594000000E+02  0.51100000000E-03 0. -1.
         23    2    1    2    0    0  0.00000000000E+00  0.00000000000E+00  0.00000000000E+00  0.91188000000E+02  0.91188000000E+02 0.  0.
    9900012    2    3    3    0    0 -0.16634878503E+02 -0.26470474144E+02 -0.19451844401E+02  0.54367089706E+02  0.40000012603E+02 0.  0.
        -12    1    3    3    0    0  0.16634878503E+02  0.26470474144E+02  0.19451844401E+02  0.36820910294E+02  0.00000000000E+00 0.  1.
         11    1    4    4    0    0 -0.10130664671E+02 -0.33183423305E+02 -0.13984449287E+02  0.37407683315E+02  0.51100000000E-03 0. -1.
        -11    1    4    4    0    0 -0.26553652385E+00  0.56591771968E+01  0.29830930521E+01  0.64027838171E+01  0.51100000000E-03 0.  1.
         12    1    4    4    0    0 -0.62386773082E+01  0.10537719637E+01 -0.84504881667E+01  0.10556622574E+02  0.00000000000E+00 0. -1.
</event>
<event>
 8    1  0.1244838E-006  0.9118800E+02  0.7816164E-02  0.1184000E+00
        -11   -1    0    0    0    0  0.00000000000E+00  0.00000000000E+00  0.45593999997E+02  0.45594000000E+02  0.51100000000E-03 0.  1.
         11   -1    0    0    0    0 -0.00000000000E+00 -0.00000000000E+00 -0.45593999997E+02  0.45594000000E+02  0.51100000000E-03 0. -1.
         23    2    1    2    0    0 -0.35527136788E-14  0.35527136788E-14  0.17763568394E-14  0.91188000000E+02  0.91188000000E+02 0.  0.
    9900012    2    3    3    0    0 -0.29531428074E+02  0.17532550952E+02  0.13277122783E+02  0.54367114943E+02  0.40000070136E+02 0.  0.
         12    1    3    3    0    0  0.29531428074E+02 -0.17532550952E+02 -0.13277122783E+02  0.36820885057E+02  0.00000000000E+00 0. -1.
         11    1    4    4    0    0 -0.43912061889E+01  0.13578905820E+02 -0.33549206888E+01  0.14660316100E+02  0.51100000000E-03 0. -1.
        -11    1    4    4    0    0 -0.98467656946E+01 -0.10439009659E+02  0.29740254413E+01  0.14655256562E+02  0.51100000000E-03 0.  1.
        -12    1    4    4    0    0 -0.15293456190E+02  0.14392654791E+02  0.13658018031E+02  0.25051542282E+02  0.00000000000E+00 0.  1.
</event>
<event>
 8    1  0.1244838E-006  0.9118800E+02  0.7816164E-02  0.1184000E+00
        -11   -1    0    0    0    0  0.00000000000E+00  0.00000000000E+00  0.45593999997E+02  0.45594000000E+02  0.51100000000E-03 0. -1.
         11   -1    0    0    0    0 -0.00000000000E+00 -0.00000000000E+00 -0.45593999997E+02  0.45594000000E+02  0.51100000000E-03 0.  1.
         23    2    1    2    0    0 -0.88817841970E-15  0.35527136788E-14  0.00000000000E+00  0.91188000000E+02  0.91188000000E+02 0.  0.
    9900012    2    3    3    0    0  0.61570744268E+01 -0.24924126830E+02  0.26394269571E+02  0.54367093847E+02  0.40000022043E+02 0.  0.
        -12    1    3    3    0    0 -0.61570744268E+01  0.24924126830E+02 -0.26394269571E+02  0.36820906153E+02  0.00000000000E+00 0.  1.
         11    1    4    4    0    0  0.34104673618E+01 -0.52212618698E+01  0.11967284149E+02  0.13494767626E+02  0.51100000000E-03 0. -1.
        -11    1    4    4    0    0 -0.70563362606E+00  0.68095922651E+01  0.12268124347E+02  0.14049033450E+02  0.51100000000E-03 0.  1.
         12    1    4    4    0    0  0.34522406910E+01 -0.26512457225E+02  0.21588610755E+01  0.26823292770E+02  0.00000000000E+00 0. -1.
</event>
<event>
 8    1  0.1244838E-006  0.9118800E+02  0.7816164E-02  0.1184000E+00
        -11   -1    0    0    0    0  0.00000000000E+00  0.00000000000E+00  0.45593999997E+02  0.45594000000E+02  0.51100000000E-03 0. -1.
         11   -1    0    0    0    0 -0.00000000000E+00 -0.00000000000E+00 -0.45593999997E+02  0.45594000000E+02  0.51100000000E-03 0.  1.
         23    2    1    2    0    0  0.00000000000E+00  0.00000000000E+00  0.00000000000E+00  0.91188000000E+02  0.91188000000E+02 0.  0.
    9900012    2    3    3    0    0 -0.86503762627E+01 -0.28431891891E+02 -0.21738853664E+02  0.54367092290E+02  0.40000018493E+02 0.  0.
         12    1    3    3    0    0  0.86503762627E+01  0.28431891891E+02  0.21738853664E+02  0.36820907710E+02  0.00000000000E+00 0. -1.
         11    1    4    4    0    0 -0.74169066217E+01 -0.27579908572E+01 -0.13283475050E+00  0.79142063870E+01  0.51100000000E-03 0.  1.
        -11    1    4    4    0    0 -0.41878342901E+01  0.22471633483E+01 -0.17430922265E+02  0.18067228632E+02  0.51100000000E-03 0. -1.
         12    1    4    4    0    0  0.29543646491E+01 -0.27921064382E+02 -0.41750966487E+01  0.28385657271E+02  0.00000000000E+00 0. -1.
</event>
<event>
 8    1  0.1244838E-006  0.9118800E+02  0.7816164E-02  0.1184000E+00
        -11   -1    0    0    0    0  0.00000000000E+00  0.00000000000E+00  0.45593999997E+02  0.45594000000E+02  0.51100000000E-03 0. -1.
         11   -1    0    0    0    0 -0.00000000000E+00 -0.00000000000E+00 -0.45593999997E+02  0.45594000000E+02  0.51100000000E-03 0.  1.
         23    2    1    2    0    0  0.35527136788E-14  0.35527136788E-14  0.00000000000E+00  0.91188000000E+02  0.91188000000E+02 0.  0.
    9900012    2    3    3    0    0 -0.92355107164E+01 -0.20511222074E+02  0.29150892911E+02  0.54367089546E+02  0.40000012238E+02 0.  0.
        -12    1    3    3    0    0  0.92355107164E+01  0.20511222074E+02 -0.29150892911E+02  0.36820910454E+02  0.00000000000E+00 0.  1.
         11    1    4    4    0    0  0.12081736743E+02 -0.10854990294E+02  0.12186642430E+02  0.20305502481E+02  0.51100000000E-03 0. -1.
        -11    1    4    4    0    0 -0.18670945986E+02 -0.28276140139E+01  0.41994331867E+01  0.19345150926E+02  0.51100000000E-03 0.  1.
        -12    1    4    4    0    0 -0.26463014740E+01 -0.68286177666E+01  0.12764817294E+02  0.14716436139E+02  0.00000000000E+00 0.  1.
</event>
<event>
 8    1  0.1244838E-006  0.9118800E+02  0.7816164E-02  0.1184000E+00
        -11   -1    0    0    0    0  0.00000000000E+00  0.00000000000E+00  0.45593999997E+02  0.45594000000E+02  0.51100000000E-03 0. -1.
         11   -1    0    0    0    0 -0.00000000000E+00 -0.00000000000E+00 -0.45593999997E+02  0.45594000000E+02  0.51100000000E-03 0.  1.
         23    2    1    2    0    0  0.00000000000E+00  0.00000000000E+00  0.00000000000E+00  0.91188000000E+02  0.91188000000E+02 0.  0.
    9900012    2    3    3    0    0 -0.30314844023E+02 -0.13626929229E+02  0.15846021769E+02  0.54367090530E+02  0.40000014480E+02 0.  0.
        -12    1    3    3    0    0  0.30314844023E+02  0.13626929229E+02 -0.15846021769E+02  0.36820909470E+02  0.00000000000E+00 0.  1.
         11    1    4    4    0    0 -0.19178616727E+02 -0.13667628298E+02  0.14069732064E+02  0.27433205490E+02  0.51100000000E-03 0. -1.
        -11    1    4    4    0    0  0.41483122853E+01 -0.84170378192E+01  0.90799422158E-01  0.93842029636E+01  0.51100000000E-03 0.  1.
         12    1    4    4    0    0 -0.15284539581E+02  0.84577368884E+01  0.16854902829E+01  0.17549682076E+02  0.00000000000E+00 0. -1.
</event>
<event>
 8    1  0.1244838E-006  0.9118800E+02  0.7816164E-02  0.1184000E+00
        -11   -1    0    0    0    0  0.00000000000E+00  0.00000000000E+00  0.45593999997E+02  0.45594000000E+02  0.51100000000E-03 0.  1.
         11   -1    0    0    0    0 -0.00000000000E+00 -0.00000000000E+00 -0.45593999997E+02  0.45594000000E+02  0.51100000000E-03 0. -1.
         23    2    1    2    0    0 -0.35527136788E-14  0.00000000000E+00  0.00000000000E+00  0.91188000000E+02  0.91188000000E+02 0.  0.
    9900012    2    3    3    0    0  0.27661669229E+02  0.17640284189E+02  0.16716229249E+02  0.54367083511E+02  0.39999998479E+02 0.  0.
         12    1    3    3    0    0 -0.27661669229E+02 -0.17640284189E+02 -0.16716229249E+02  0.36820916489E+02  0.00000000000E+00 0. -1.
         11    1    4    4    0    0  0.71865130748E+01 -0.72476776766E+00 -0.18979850272E+01  0.74681728633E+01  0.51100000000E-03 0. -1.
        -11    1    4    4    0    0  0.16319241484E+02 -0.66857114748E+01  0.69655877405E+01  0.18961429097E+02  0.51100000000E-03 0.  1.
         12    1    4    4    0    0  0.41559146702E+01  0.25050763431E+02  0.11648626535E+02  0.27937481551E+02  0.00000000000E+00 0. -1.
</event>
<event>
 8    1  0.1244838E-006  0.9118800E+02  0.7816164E-02  0.1184000E+00
        -11   -1    0    0    0    0  0.00000000000E+00  0.00000000000E+00  0.45593999997E+02  0.45594000000E+02  0.51100000000E-03 0.  1.
         11   -1    0    0    0    0 -0.00000000000E+00 -0.00000000000E+00 -0.45593999997E+02  0.45594000000E+02  0.51100000000E-03 0. -1.
         23    2    1    2    0    0  0.00000000000E+00  0.69388939039E-15 -0.71054273576E-14  0.91188000000E+02  0.91188000000E+02 0.  0.
    9900012    2    3    3    0    0  0.68684447580E+01  0.18864929226E+00 -0.36174058731E+02  0.54367168301E+02  0.40000191776E+02 0.  0.
        -12    1    3    3    0    0 -0.68684447580E+01 -0.18864929226E+00  0.36174058731E+02  0.36820831699E+02  0.00000000000E+00 0.  1.
         11    1    4    4    0    0 -0.31850510595E+01  0.14910050280E+01 -0.48464086940E+00  0.35500032787E+01  0.51100000000E-03 0. -1.
        -11    1    4    4    0    0  0.84910909350E+01  0.95368228532E+01  0.72698178910E+00  0.12789766150E+02  0.51100000000E-03 0.  1.
         12    1    4    4    0    0  0.15624048825E+01 -0.10839178589E+02 -0.36416399650E+02  0.38027398872E+02  0.00000000000E+00 0. -1.
</event>
<event>
 8    1  0.1244838E-006  0.9118800E+02  0.7816164E-02  0.1184000E+00
        -11   -1    0    0    0    0  0.00000000000E+00  0.00000000000E+00  0.45593999997E+02  0.45594000000E+02  0.51100000000E-03 0. -1.
         11   -1    0    0    0    0 -0.00000000000E+00 -0.00000000000E+00 -0.45593999997E+02  0.45594000000E+02  0.51100000000E-03 0.  1.
         23    2    1    2    0    0  0.00000000000E+00  0.17763568394E-14  0.00000000000E+00  0.91188000000E+02  0.91188000000E+02 0.  0.
    9900012    2    3    3    0    0  0.27375213929E+02 -0.10182842525E+02  0.22420690184E+02  0.54367082468E+02  0.39999996102E+02 0.  0.
        -12    1    3    3    0    0 -0.27375213929E+02  0.10182842525E+02 -0.22420690184E+02  0.36820917532E+02  0.00000000000E+00 0.  1.
         11    1    4    4    0    0  0.22701850964E+01  0.64945792790E+01  0.67520367908E+00  0.69129733583E+01  0.51100000000E-03 0. -1.
        -11    1    4    4    0    0 -0.33760073917E+01 -0.19166437459E+01  0.13897117387E+02  0.14429165641E+02  0.51100000000E-03 0.  1.
        -12    1    4    4    0    0  0.28481036224E+02 -0.14760778059E+02  0.78483691180E+01  0.33024943469E+02  0.00000000000E+00 0.  1.
</event>
<event>
 8    1  0.1244838E-006  0.9118800E+02  0.7816164E-02  0.1184000E+00
        -11   -1    0    0    0    0  0.00000000000E+00  0.00000000000E+00  0.45593999997E+02  0.45594000000E+02  0.51100000000E-03 0. -1.
         11   -1    0    0    0    0 -0.00000000000E+00 -0.00000000000E+00 -0.45593999997E+02  0.45594000000E+02  0.51100000000E-03 0.  1.
         23    2    1    2    0    0 -0.17763568394E-14 -0.35527136788E-14 -0.35527136788E-14  0.91188000000E+02  0.91188000000E+02 0.  0.
    9900012    2    3    3    0    0  0.14914243182E+02  0.26996481192E+02  0.20113074775E+02  0.54367076283E+02  0.39999982003E+02 0.  0.
        -12    1    3    3    0    0 -0.14914243182E+02 -0.26996481192E+02 -0.20113074775E+02  0.36820923717E+02  0.00000000000E+00 0.  1.
         11    1    4    4    0    0 -0.39244642732E+01 -0.88259259995E+00 -0.49208037831E+01  0.63556824702E+01  0.51100000000E-03 0. -1.
        -11    1    4    4    0    0  0.28395463474E+01 -0.17917396630E+01 -0.27402012010E+01  0.43338271034E+01  0.51100000000E-03 0.  1.
         12    1    4    4    0    0  0.15999161108E+02  0.29670813454E+02  0.27774079760E+02  0.43677566710E+02  0.00000000000E+00 0. -1.
</event>
<event>
 8    1  0.1244838E-006  0.9118800E+02  0.7816164E-02  0.1184000E+00
        -11   -1    0    0    0    0  0.00000000000E+00  0.00000000000E+00  0.45593999997E+02  0.45594000000E+02  0.51100000000E-03 0.  1.
         11   -1    0    0    0    0 -0.00000000000E+00 -0.00000000000E+00 -0.45593999997E+02  0.45594000000E+02  0.51100000000E-03 0. -1.
         23    2    1    2    0    0  0.00000000000E+00  0.35527136788E-14  0.35527136788E-14  0.91188000000E+02  0.91188000000E+02 0.  0.
    9900012    2    3    3    0    0  0.11490668597E+02 -0.24559627706E+02 -0.24911217003E+02  0.54367088680E+02  0.40000010263E+02 0.  0.
        -12    1    3    3    0    0 -0.11490668597E+02  0.24559627706E+02  0.24911217003E+02  0.36820911320E+02  0.00000000000E+00 0.  1.
         11    1    4    4    0    0  0.66138202326E+01 -0.64009961057E+01 -0.21829134578E+02  0.23690219203E+02  0.51100000000E-03 0. -1.
        -11    1    4    4    0    0  0.85641504594E+01 -0.84409925150E+00 -0.85679021747E+01  0.12143563092E+02  0.51100000000E-03 0.  1.
        -12    1    4    4    0    0 -0.36873020949E+01 -0.17314532349E+02  0.54858197495E+01  0.18533306384E+02  0.00000000000E+00 0.  1.
</event>
<event>
 8    1  0.1244838E-006  0.9118800E+02  0.7816164E-02  0.1184000E+00
        -11   -1    0    0    0    0  0.00000000000E+00  0.00000000000E+00  0.45593999997E+02  0.45594000000E+02  0.51100000000E-03 0. -1.
         11   -1    0    0    0    0 -0.00000000000E+00 -0.00000000000E+00 -0.45593999997E+02  0.45594000000E+02  0.51100000000E-03 0.  1.
         23    2    1    2    0    0  0.00000000000E+00  0.00000000000E+00  0.00000000000E+00  0.91188000000E+02  0.91188000000E+02 0.  0.
    9900012    2    3    3    0    0  0.19849289601E+02  0.16796891038E+02 -0.26070147026E+02  0.54367049277E+02  0.39999920436E+02 0.  0.
         12    1    3    3    0    0 -0.19849289601E+02 -0.16796891038E+02  0.26070147026E+02  0.36820950723E+02  0.00000000000E+00 0. -1.
         11    1    4    4    0    0 -0.66558856174E+01  0.24698299497E+01  0.31146238043E+01  0.77525321693E+01  0.51100000000E-03 0. -1.
        -11    1    4    4    0    0  0.87431903397E+01  0.52787692646E+00 -0.20871607241E+02  0.22635061750E+02  0.51100000000E-03 0.  1.
         12    1    4    4    0    0  0.17761984879E+02  0.13799184162E+02 -0.83131635894E+01  0.23979455357E+02  0.00000000000E+00 0. -1.
</event>
<event>
 8    1  0.1244838E-006  0.9118800E+02  0.7816164E-02  0.1184000E+00
        -11   -1    0    0    0    0  0.00000000000E+00  0.00000000000E+00  0.45593999997E+02  0.45594000000E+02  0.51100000000E-03 0.  1.
         11   -1    0    0    0    0 -0.00000000000E+00 -0.00000000000E+00 -0.45593999997E+02  0.45594000000E+02  0.51100000000E-03 0. -1.
         23    2    1    2    0    0 -0.22204460493E-15  0.00000000000E+00  0.00000000000E+00  0.91188000000E+02  0.91188000000E+02 0.  0.
    9900012    2    3    3    0    0  0.14468314350E+01  0.36550757290E+02 -0.42111067125E+01  0.54367019575E+02  0.39999852726E+02 0.  0.
         12    1    3    3    0    0 -0.14468314350E+01 -0.36550757290E+02  0.42111067125E+01  0.36820980425E+02  0.00000000000E+00 0. -1.
         11    1    4    4    0    0 -0.12182209775E+02  0.36050730427E+02  0.26585726889E+01  0.38146158500E+02  0.51100000000E-03 0. -1.
        -11    1    4    4    0    0  0.11102030723E+01  0.83144320368E+00  0.73476305770E+00  0.15696259665E+01  0.51100000000E-03 0.  1.
         12    1    4    4    0    0  0.12518838137E+02 -0.33141634030E+00 -0.76044424591E+01  0.14651235109E+02  0.00000000000E+00 0. -1.
</event>
<event>
 8    1  0.1244838E-006  0.9118800E+02  0.7816164E-02  0.1184000E+00
        -11   -1    0    0    0    0  0.00000000000E+00  0.00000000000E+00  0.45593999997E+02  0.45594000000E+02  0.51100000000E-03 0.  1.
         11   -1    0    0    0    0 -0.00000000000E+00 -0.00000000000E+00 -0.45593999997E+02  0.45594000000E+02  0.51100000000E-03 0. -1.
         23    2    1    2    0    0 -0.44408920985E-15  0.35527136788E-14  0.00000000000E+00  0.91188000000E+02  0.91188000000E+02 0.  0.
    9900012    2    3    3    0    0 -0.34539193601E+01  0.30611529952E+02  0.20168806939E+02  0.54367135014E+02  0.40000115892E+02 0.  0.
         12    1    3    3    0    0  0.34539193601E+01 -0.30611529952E+02 -0.20168806939E+02  0.36820864986E+02  0.00000000000E+00 0. -1.
         11    1    4    4    0    0  0.22129608882E+01  0.80434910835E+01 -0.77454927950E+01  0.11383655107E+02  0.51100000000E-03 0. -1.
        -11    1    4    4    0    0 -0.10137838161E+02  0.63336959330E+01  0.20611227424E+01  0.12130115167E+02  0.51100000000E-03 0.  1.
        -12    1    4    4    0    0  0.44709579129E+01  0.16234342935E+02  0.25853176992E+02  0.30853364740E+02  0.00000000000E+00 0.  1.
</event>
<event>
 8    1  0.1244838E-006  0.9118800E+02  0.7816164E-02  0.1184000E+00
        -11   -1    0    0    0    0  0.00000000000E+00  0.00000000000E+00  0.45593999997E+02  0.45594000000E+02  0.51100000000E-03 0. -1.
         11   -1    0    0    0    0 -0.00000000000E+00 -0.00000000000E+00 -0.45593999997E+02  0.45594000000E+02  0.51100000000E-03 0.  1.
         23    2    1    2    0    0 -0.35527136788E-14  0.88817841970E-15  0.00000000000E+00  0.91188000000E+02  0.91188000000E+02 0.  0.
    9900012    2    3    3    0    0 -0.25177203813E+02 -0.63052876584E+01  0.26117635577E+02  0.54367093813E+02  0.40000021965E+02 0.  0.
        -12    1    3    3    0    0  0.25177203813E+02  0.63052876584E+01 -0.26117635577E+02  0.36820906187E+02  0.00000000000E+00 0.  1.
         11    1    4    4    0    0 -0.26609327708E+02 -0.13276211506E+02  0.96909154479E+01  0.31276635937E+02  0.51100000000E-03 0. -1.
        -11    1    4    4    0    0 -0.35574231706E+01  0.67879933621E+01  0.21406757862E+01  0.79570476046E+01  0.51100000000E-03 0.  1.
         12    1    4    4    0    0  0.49895470656E+01  0.18293048529E+00  0.14286044343E+02  0.15133410272E+02  0.00000000000E+00 0. -1.
</event>
<event>
 8    1  0.1244838E-006  0.9118800E+02  0.7816164E-02  0.1184000E+00
        -11   -1    0    0    0    0  0.00000000000E+00  0.00000000000E+00  0.45593999997E+02  0.45594000000E+02  0.51100000000E-03 0. -1.
         11   -1    0    0    0    0 -0.00000000000E+00 -0.00000000000E+00 -0.45593999997E+02  0.45594000000E+02  0.51100000000E-03 0.  1.
         23    2    1    2    0    0  0.00000000000E+00 -0.44408920985E-15  0.00000000000E+00  0.91188000000E+02  0.91188000000E+02 0.  0.
    9900012    2    3    3    0    0  0.17175841483E+02 -0.42626701036E+00 -0.32566675803E+02  0.54367087368E+02  0.40000007272E+02 0.  0.
         12    1    3    3    0    0 -0.17175841483E+02  0.42626701036E+00  0.32566675803E+02  0.36820912632E+02  0.00000000000E+00 0. -1.
         11    1    4    4    0    0  0.89190085780E+01 -0.72348122224E+01 -0.24645369048E+02  0.27189803929E+02  0.51100000000E-03 0. -1.
        -11    1    4    4    0    0  0.49967094904E+01 -0.59031253215E+01 -0.11237516678E+02  0.13641692551E+02  0.51100000000E-03 0.  1.
         12    1    4    4    0    0  0.32601234150E+01  0.12711670534E+02  0.33162099237E+01  0.13535590888E+02  0.00000000000E+00 0. -1.
</event>
<event>
 8    1  0.1244838E-006  0.9118800E+02  0.7816164E-02  0.1184000E+00
        -11   -1    0    0    0    0  0.00000000000E+00  0.00000000000E+00  0.45593999997E+02  0.45594000000E+02  0.51100000000E-03 0. -1.
         11   -1    0    0    0    0 -0.00000000000E+00 -0.00000000000E+00 -0.45593999997E+02  0.45594000000E+02  0.51100000000E-03 0.  1.
         23    2    1    2    0    0  0.44408920985E-15 -0.88817841970E-15  0.00000000000E+00  0.91188000000E+02  0.91188000000E+02 0.  0.
    9900012    2    3    3    0    0 -0.11910456115E+01 -0.71762157943E+01 -0.36095218530E+02  0.54367062159E+02  0.39999949804E+02 0.  0.
         12    1    3    3    0    0  0.11910456115E+01  0.71762157943E+01  0.36095218530E+02  0.36820937841E+02  0.00000000000E+00 0. -1.
         11    1    4    4    0    0  0.62911600226E+01  0.88595015960E+01 -0.13488879923E+01  0.10949381811E+02  0.51100000000E-03 0. -1.
        -11    1    4    4    0    0  0.45175710421E+01  0.31668687952E+00 -0.21193624525E+01  0.50000436164E+01  0.51100000000E-03 0.  1.
        -12    1    4    4    0    0 -0.11999776676E+02 -0.16352404270E+02 -0.32626968085E+02  0.38417636732E+02  0.00000000000E+00 0.  1.
</event>
<event>
 8    1  0.1244838E-006  0.9118800E+02  0.7816164E-02  0.1184000E+00
        -11   -1    0    0    0    0  0.00000000000E+00  0.00000000000E+00  0.45593999997E+02  0.45594000000E+02  0.51100000000E-03 0.  1.
         11   -1    0    0    0    0 -0.00000000000E+00 -0.00000000000E+00 -0.45593999997E+02  0.45594000000E+02  0.51100000000E-03 0. -1.
         23    2    1    2    0    0  0.00000000000E+00  0.00000000000E+00  0.35527136788E-14  0.91188000000E+02  0.91188000000E+02 0.  0.
    9900012    2    3    3    0    0  0.11231414306E+02 -0.30724615521E+02 -0.16900669151E+02  0.54367091755E+02  0.40000017274E+02 0.  0.
        -12    1    3    3    0    0 -0.11231414306E+02  0.30724615521E+02  0.16900669151E+02  0.36820908245E+02  0.00000000000E+00 0.  1.
         11    1    4    4    0    0  0.10082441917E+02 -0.57797985871E+01 -0.11030601763E+01  0.11673836076E+02  0.51100000000E-03 0. -1.
        -11    1    4    4    0    0 -0.35771619103E+01  0.35068907783E+01 -0.12740705783E+02  0.13690140773E+02  0.51100000000E-03 0.  1.
         12    1    4    4    0    0  0.47261342989E+01 -0.28451707712E+02 -0.30569031919E+01  0.29003114906E+02  0.00000000000E+00 0. -1.
</event>
<event>
 8    1  0.1244838E-006  0.9118800E+02  0.7816164E-02  0.1184000E+00
        -11   -1    0    0    0    0  0.00000000000E+00  0.00000000000E+00  0.45593999997E+02  0.45594000000E+02  0.51100000000E-03 0. -1.
         11   -1    0    0    0    0 -0.00000000000E+00 -0.00000000000E+00 -0.45593999997E+02  0.45594000000E+02  0.51100000000E-03 0.  1.
         23    2    1    2    0    0  0.17763568394E-14  0.00000000000E+00  0.00000000000E+00  0.91188000000E+02  0.91188000000E+02 0.  0.
    9900012    2    3    3    0    0 -0.89735051986E+01  0.32622641780E+02 -0.14526590925E+02  0.54367049494E+02  0.39999920932E+02 0.  0.
        -12    1    3    3    0    0  0.89735051986E+01 -0.32622641780E+02  0.14526590925E+02  0.36820950506E+02  0.00000000000E+00 0.  1.
         11    1    4    4    0    0 -0.84676070284E+01  0.35604719178E+01  0.11221459415E+01  0.92540013421E+01  0.51100000000E-03 0. -1.
        -11    1    4    4    0    0  0.53773075072E+01  0.23678786989E+02 -0.23593521345E+02  0.33856382545E+02  0.51100000000E-03 0.  1.
        -12    1    4    4    0    0 -0.58832056774E+01  0.53833828726E+01  0.79447844778E+01  0.11256665607E+02  0.00000000000E+00 0.  1.
</event>
<event>
 8    1  0.1244838E-006  0.9118800E+02  0.7816164E-02  0.1184000E+00
        -11   -1    0    0    0    0  0.00000000000E+00  0.00000000000E+00  0.45593999997E+02  0.45594000000E+02  0.51100000000E-03 0. -1.
         11   -1    0    0    0    0 -0.00000000000E+00 -0.00000000000E+00 -0.45593999997E+02  0.45594000000E+02  0.51100000000E-03 0.  1.
         23    2    1    2    0    0 -0.44408920985E-15 -0.35527136788E-14  0.00000000000E+00  0.91188000000E+02  0.91188000000E+02 0.  0.
    9900012    2    3    3    0    0  0.19217242929E+01  0.13342415494E+02  0.34264648175E+02  0.54367093031E+02  0.40000020183E+02 0.  0.
        -12    1    3    3    0    0 -0.19217242929E+01 -0.13342415494E+02 -0.34264648175E+02  0.36820906969E+02  0.00000000000E+00 0.  1.
         11    1    4    4    0    0 -0.25596680810E+01  0.14315204405E+02  0.19924322659E+02  0.24666893026E+02  0.51100000000E-03 0. -1.
        -11    1    4    4    0    0 -0.61258125033E+01 -0.10173027589E+02  0.78220627650E+01  0.14219730494E+02  0.51100000000E-03 0.  1.
        -12    1    4    4    0    0  0.10607204877E+02  0.92002386774E+01  0.65182627505E+01  0.15480469512E+02  0.00000000000E+00 0.  1.
</event>
<event>
 8    1  0.1244838E-006  0.9118800E+02  0.7816164E-02  0.1184000E+00
        -11   -1    0    0    0    0  0.00000000000E+00  0.00000000000E+00  0.45593999997E+02  0.45594000000E+02  0.51100000000E-03 0. -1.
         11   -1    0    0    0    0 -0.00000000000E+00 -0.00000000000E+00 -0.45593999997E+02  0.45594000000E+02  0.51100000000E-03 0.  1.
         23    2    1    2    0    0 -0.72164496601E-15  0.35527136788E-14 -0.35527136788E-14  0.91188000000E+02  0.91188000000E+02 0.  0.
    9900012    2    3    3    0    0  0.45159765389E+00  0.24020582575E+02 -0.27903203119E+02  0.54367067475E+02  0.39999961923E+02 0.  0.
         12    1    3    3    0    0 -0.45159765389E+00 -0.24020582575E+02  0.27903203119E+02  0.36820932525E+02  0.00000000000E+00 0. -1.
         11    1    4    4    0    0  0.29736946655E+01  0.58075897110E+01 -0.24121128730E+02  0.24987993311E+02  0.51100000000E-03 0. -1.
        -11    1    4    4    0    0  0.40776058504E+01  0.53234587481E+01 -0.11241687612E+02  0.13089752601E+02  0.51100000000E-03 0.  1.
         12    1    4    4    0    0 -0.65997028620E+01  0.12889534116E+02  0.74596132227E+01  0.16289321564E+02  0.00000000000E+00 0. -1.
</event>
<event>
 8    1  0.1244838E-006  0.9118800E+02  0.7816164E-02  0.1184000E+00
        -11   -1    0    0    0    0  0.00000000000E+00  0.00000000000E+00  0.45593999997E+02  0.45594000000E+02  0.51100000000E-03 0. -1.
         11   -1    0    0    0    0 -0.00000000000E+00 -0.00000000000E+00 -0.45593999997E+02  0.45594000000E+02  0.51100000000E-03 0.  1.
         23    2    1    2    0    0  0.35527136788E-14 -0.35527136788E-14  0.00000000000E+00  0.91188000000E+02  0.91188000000E+02 0.  0.
    9900012    2    3    3    0    0 -0.13733599394E+02 -0.19359571150E+02 -0.28149129777E+02  0.54367105733E+02  0.40000049140E+02 0.  0.
         12    1    3    3    0    0  0.13733599394E+02  0.19359571150E+02  0.28149129777E+02  0.36820894267E+02  0.00000000000E+00 0. -1.
         11    1    4    4    0    0  0.16062783983E+01 -0.39477837735E+01  0.25353566816E+01  0.49591491991E+01  0.51100000000E-03 0. -1.
        -11    1    4    4    0    0  0.49308953932E+01 -0.12463643473E+02 -0.11332129785E+01  0.13451405499E+02  0.51100000000E-03 0.  1.
         12    1    4    4    0    0 -0.20270773186E+02 -0.29481439039E+01 -0.29551273480E+02  0.35956551035E+02  0.00000000000E+00 0. -1.
</event>
<event>
 8    1  0.1244838E-006  0.9118800E+02  0.7816164E-02  0.1184000E+00
        -11   -1    0    0    0    0  0.00000000000E+00  0.00000000000E+00  0.45593999997E+02  0.45594000000E+02  0.51100000000E-03 0.  1.
         11   -1    0    0    0    0 -0.00000000000E+00 -0.00000000000E+00 -0.45593999997E+02  0.45594000000E+02  0.51100000000E-03 0. -1.
         23    2    1    2    0    0 -0.35527136788E-14  0.00000000000E+00  0.00000000000E+00  0.91188000000E+02  0.91188000000E+02 0.  0.
    9900012    2    3    3    0    0  0.22894721545E+02  0.16088992077E+02  0.23932321708E+02  0.54367082534E+02  0.39999996253E+02 0.  0.
         12    1    3    3    0    0 -0.22894721545E+02 -0.16088992077E+02 -0.23932321708E+02  0.36820917466E+02  0.00000000000E+00 0. -1.
         11    1    4    4    0    0  0.30374922968E+01 -0.73735906296E+01  0.25578206124E+01  0.83748817766E+01  0.51100000000E-03 0. -1.
        -11    1    4    4    0    0  0.22051049606E+02  0.24350463680E+02  0.99496074960E+01  0.34324751416E+02  0.51100000000E-03 0.  1.
        -12    1    4    4    0    0 -0.21938203575E+01 -0.88788097379E+00  0.11424893600E+02  0.11667449342E+02  0.00000000000E+00 0.  1.
</event>
<event>
 8    1  0.1244838E-006  0.9118800E+02  0.7816164E-02  0.1184000E+00
        -11   -1    0    0    0    0  0.00000000000E+00  0.00000000000E+00  0.45593999997E+02  0.45594000000E+02  0.51100000000E-03 0. -1.
         11   -1    0    0    0    0 -0.00000000000E+00 -0.00000000000E+00 -0.45593999997E+02  0.45594000000E+02  0.51100000000E-03 0.  1.
         23    2    1    2    0    0  0.00000000000E+00 -0.71054273576E-14  0.55511151231E-15  0.91188000000E+02  0.91188000000E+02 0.  0.
    9900012    2    3    3    0    0 -0.18919120234E+02  0.31581346602E+02  0.68206128609E+00  0.54367085138E+02  0.40000002190E+02 0.  0.
        -12    1    3    3    0    0  0.18919120234E+02 -0.31581346602E+02 -0.68206128609E+00  0.36820914862E+02  0.00000000000E+00 0.  1.
         11    1    4    4    0    0  0.43052197135E+00  0.90626774651E+00  0.17817273994E+01  0.20448039473E+01  0.51100000000E-03 0. -1.
        -11    1    4    4    0    0 -0.10193715620E+02 -0.70775904074E+01  0.42307808279E+01  0.13111202492E+02  0.51100000000E-03 0.  1.
         12    1    4    4    0    0 -0.91559265853E+01  0.37752669263E+02 -0.53304469413E+01  0.39211078699E+02  0.00000000000E+00 0. -1.
</event>
<event>
 8    1  0.1244838E-006  0.9118800E+02  0.7816164E-02  0.1184000E+00
        -11   -1    0    0    0    0  0.00000000000E+00  0.00000000000E+00  0.45593999997E+02  0.45594000000E+02  0.51100000000E-03 0. -1.
         11   -1    0    0    0    0 -0.00000000000E+00 -0.00000000000E+00 -0.45593999997E+02  0.45594000000E+02  0.51100000000E-03 0.  1.
         23    2    1    2    0    0  0.00000000000E+00  0.00000000000E+00  0.88817841970E-15  0.91188000000E+02  0.91188000000E+02 0.  0.
    9900012    2    3    3    0    0 -0.27269222307E+02  0.24012526409E+02  0.59638879055E+01  0.54367083815E+02  0.39999999174E+02 0.  0.
        -12    1    3    3    0    0  0.27269222307E+02 -0.24012526409E+02 -0.59638879055E+01  0.36820916185E+02  0.00000000000E+00 0.  1.
         11    1    4    4    0    0 -0.28457789636E+01  0.17191951252E+02 -0.11054263139E+02  0.20636336389E+02  0.51100000000E-03 0. -1.
        -11    1    4    4    0    0 -0.46667083770E+01  0.11971436302E+01 -0.24714545400E+01  0.54147398600E+01  0.51100000000E-03 0.  1.
         12    1    4    4    0    0 -0.19756734966E+02  0.56234315265E+01  0.19489605584E+02  0.28316007566E+02  0.00000000000E+00 0. -1.
</event>
<event>
 8    1  0.1244838E-006  0.9118800E+02  0.7816164E-02  0.1184000E+00
        -11   -1    0    0    0    0  0.00000000000E+00  0.00000000000E+00  0.45593999997E+02  0.45594000000E+02  0.51100000000E-03 0. -1.
         11   -1    0    0    0    0 -0.00000000000E+00 -0.00000000000E+00 -0.45593999997E+02  0.45594000000E+02  0.51100000000E-03 0.  1.
         23    2    1    2    0    0  0.33306690739E-15  0.00000000000E+00  0.71054273576E-14  0.91188000000E+02  0.91188000000E+02 0.  0.
    9900012    2    3    3    0    0  0.81817937967E+00  0.15455900969E+02  0.33409959009E+02  0.54367086741E+02  0.40000005842E+02 0.  0.
        -12    1    3    3    0    0 -0.81817937967E+00 -0.15455900969E+02 -0.33409959009E+02  0.36820913259E+02  0.00000000000E+00 0.  1.
         11    1    4    4    0    0 -0.10335274950E+02  0.12530902737E+01  0.18580403091E+02  0.21298345541E+02  0.51100000000E-03 0. -1.
        -11    1    4    4    0    0  0.86924639074E+01  0.17305932432E+00 -0.39077544995E+01  0.95320209714E+01  0.51100000000E-03 0.  1.
        -12    1    4    4    0    0  0.24609904219E+01  0.14029751371E+02  0.18737310418E+02  0.23536720228E+02  0.00000000000E+00 0.  1.
</event>
<event>
 8    1  0.1244838E-006  0.9118800E+02  0.7816164E-02  0.1184000E+00
        -11   -1    0    0    0    0  0.00000000000E+00  0.00000000000E+00  0.45593999997E+02  0.45594000000E+02  0.51100000000E-03 0. -1.
         11   -1    0    0    0    0 -0.00000000000E+00 -0.00000000000E+00 -0.45593999997E+02  0.45594000000E+02  0.51100000000E-03 0.  1.
         23    2    1    2    0    0  0.00000000000E+00  0.35527136788E-14 -0.35527136788E-14  0.91188000000E+02  0.91188000000E+02 0.  0.
    9900012    2    3    3    0    0  0.10741610024E+02  0.20061675029E+02 -0.28946934431E+02  0.54367109138E+02  0.40000056903E+02 0.  0.
         12    1    3    3    0    0 -0.10741610024E+02 -0.20061675029E+02  0.28946934431E+02  0.36820890862E+02  0.00000000000E+00 0. -1.
         11    1    4    4    0    0  0.16115098840E+01  0.18245848609E+02 -0.71511976288E+01  0.19663356361E+02  0.51100000000E-03 0. -1.
        -11    1    4    4    0    0  0.15016383270E+02  0.11741636115E+01 -0.24042241694E+02  0.28370756293E+02  0.51100000000E-03 0.  1.
         12    1    4    4    0    0 -0.58862831301E+01  0.64166280832E+00  0.22465048917E+01  0.63329964848E+01  0.00000000000E+00 0. -1.
</event>
<event>
 8    1  0.1244838E-006  0.9118800E+02  0.7816164E-02  0.1184000E+00
        -11   -1    0    0    0    0  0.00000000000E+00  0.00000000000E+00  0.45593999997E+02  0.45594000000E+02  0.51100000000E-03 0. -1.
         11   -1    0    0    0    0 -0.00000000000E+00 -0.00000000000E+00 -0.45593999997E+02  0.45594000000E+02  0.51100000000E-03 0.  1.
         23    2    1    2    0    0  0.00000000000E+00  0.00000000000E+00  0.00000000000E+00  0.91188000000E+02  0.91188000000E+02 0.  0.
    9900012    2    3    3    0    0 -0.26556377296E+02 -0.11838504133E+02 -0.22591710733E+02  0.54367126177E+02  0.40000095746E+02 0.  0.
         12    1    3    3    0    0  0.26556377296E+02  0.11838504133E+02  0.22591710733E+02  0.36820873823E+02  0.00000000000E+00 0. -1.
         11    1    4    4    0    0 -0.17650204686E+02  0.18074966779E+01 -0.65968963188E+01  0.18929231654E+02  0.51100000000E-03 0. -1.
        -11    1    4    4    0    0 -0.78412603808E+01 -0.24793761030E+01 -0.21444143613E+02  0.22967019088E+02  0.51100000000E-03 0.  1.
         12    1    4    4    0    0 -0.10649122294E+01 -0.11166624708E+02  0.54493291985E+01  0.12470875436E+02  0.00000000000E+00 0. -1.
</event>
<event>
 8    1  0.1244838E-006  0.9118800E+02  0.7816164E-02  0.1184000E+00
        -11   -1    0    0    0    0  0.00000000000E+00  0.00000000000E+00  0.45593999997E+02  0.45594000000E+02  0.51100000000E-03 0.  1.
         11   -1    0    0    0    0 -0.00000000000E+00 -0.00000000000E+00 -0.45593999997E+02  0.45594000000E+02  0.51100000000E-03 0. -1.
         23    2    1    2    0    0  0.17763568394E-14  0.35527136788E-14  0.35527136788E-14  0.91188000000E+02  0.91188000000E+02 0.  0.
    9900012    2    3    3    0    0 -0.73996086496E+01 -0.30192907479E+02 -0.19733606009E+02  0.54367067416E+02  0.39999961788E+02 0.  0.
        -12    1    3    3    0    0  0.73996086496E+01  0.30192907479E+02  0.19733606009E+02  0.36820932584E+02  0.00000000000E+00 0.  1.
         11    1    4    4    0    0 -0.18206552034E+01 -0.21551791576E+02  0.40484592459E+01  0.22004193419E+02  0.51100000000E-03 0. -1.
        -11    1    4    4    0    0 -0.11821412036E+02 -0.85460313618E+01 -0.20898753945E+02  0.25486042283E+02  0.51100000000E-03 0.  1.
         12    1    4    4    0    0  0.62424585895E+01 -0.95084541839E-01 -0.28833113108E+01  0.68768317143E+01  0.00000000000E+00 0. -1.
</event>
<event>
 8    1  0.1244838E-006  0.9118800E+02  0.7816164E-02  0.1184000E+00
        -11   -1    0    0    0    0  0.00000000000E+00  0.00000000000E+00  0.45593999997E+02  0.45594000000E+02  0.51100000000E-03 0.  1.
         11   -1    0    0    0    0 -0.00000000000E+00 -0.00000000000E+00 -0.45593999997E+02  0.45594000000E+02  0.51100000000E-03 0. -1.
         23    2    1    2    0    0 -0.71054273576E-14  0.17763568394E-14  0.00000000000E+00  0.91188000000E+02  0.91188000000E+02 0.  0.
    9900012    2    3    3    0    0 -0.36415740908E+02  0.49741322907E+01 -0.22208468717E+01  0.54367077432E+02  0.39999984623E+02 0.  0.
        -12    1    3    3    0    0  0.36415740908E+02 -0.49741322907E+01  0.22208468717E+01  0.36820922568E+02  0.00000000000E+00 0.  1.
         11    1    4    4    0    0 -0.13911619550E+01 -0.43288757306E+01  0.20855264806E+01  0.50023911920E+01  0.51100000000E-03 0. -1.
        -11    1    4    4    0    0 -0.24500374122E+02 -0.94411538195E+01 -0.82234326955E+01  0.27514152052E+02  0.51100000000E-03 0.  1.
         12    1    4    4    0    0 -0.10524204830E+02  0.18744161841E+02  0.39170593432E+01  0.21850534188E+02  0.00000000000E+00 0. -1.
</event>
<event>
 8    1  0.1244838E-006  0.9118800E+02  0.7816164E-02  0.1184000E+00
        -11   -1    0    0    0    0  0.00000000000E+00  0.00000000000E+00  0.45593999997E+02  0.45594000000E+02  0.51100000000E-03 0. -1.
         11   -1    0    0    0    0 -0.00000000000E+00 -0.00000000000E+00 -0.45593999997E+02  0.45594000000E+02  0.51100000000E-03 0.  1.
         23    2    1    2    0    0  0.00000000000E+00  0.00000000000E+00  0.00000000000E+00  0.91188000000E+02  0.91188000000E+02 0.  0.
    9900012    2    3    3    0    0  0.31010609806E+02  0.81712568764E+01 -0.18092813480E+02  0.54367119251E+02  0.40000079958E+02 0.  0.
         12    1    3    3    0    0 -0.31010609806E+02 -0.81712568764E+01  0.18092813480E+02  0.36820880749E+02  0.00000000000E+00 0. -1.
         11    1    4    4    0    0  0.15443024485E+02 -0.39501809015E+01 -0.28926397007E+01  0.16200564777E+02  0.51100000000E-03 0. -1.
        -11    1    4    4    0    0 -0.77226288769E+01  0.14237984547E+00  0.30631405296E+00  0.77300127652E+01  0.51100000000E-03 0.  1.
        -12    1    4    4    0    0  0.23290214198E+02  0.11979057932E+02 -0.15506487832E+02  0.30436541710E+02  0.00000000000E+00 0.  1.
</event>
<event>
 8    1  0.1244838E-006  0.9118800E+02  0.7816164E-02  0.1184000E+00
        -11   -1    0    0    0    0  0.00000000000E+00  0.00000000000E+00  0.45593999997E+02  0.45594000000E+02  0.51100000000E-03 0.  1.
         11   -1    0    0    0    0 -0.00000000000E+00 -0.00000000000E+00 -0.45593999997E+02  0.45594000000E+02  0.51100000000E-03 0. -1.
         23    2    1    2    0    0 -0.17763568394E-14  0.00000000000E+00  0.00000000000E+00  0.91188000000E+02  0.91188000000E+02 0.  0.
    9900012    2    3    3    0    0  0.63323795414E+01 -0.18313797647E+02 -0.31309422372E+02  0.54367161550E+02  0.40000176385E+02 0.  0.
        -12    1    3    3    0    0 -0.63323795414E+01  0.18313797647E+02  0.31309422372E+02  0.36820838450E+02  0.00000000000E+00 0.  1.
         11    1    4    4    0    0 -0.10573673352E+02 -0.56012069033E+01 -0.23419845325E+02  0.26299529316E+02  0.51100000000E-03 0. -1.
        -11    1    4    4    0    0  0.11621949433E+02 -0.99386261995E-01 -0.84679955033E+01  0.14380074213E+02  0.51100000000E-03 0.  1.
        -12    1    4    4    0    0  0.52841034608E+01 -0.12613204481E+02  0.57841845620E+00  0.13687558021E+02  0.00000000000E+00 0.  1.
</event>
<event>
 8    1  0.1244838E-006  0.9118800E+02  0.7816164E-02  0.1184000E+00
        -11   -1    0    0    0    0  0.00000000000E+00  0.00000000000E+00  0.45593999997E+02  0.45594000000E+02  0.51100000000E-03 0.  1.
         11   -1    0    0    0    0 -0.00000000000E+00 -0.00000000000E+00 -0.45593999997E+02  0.45594000000E+02  0.51100000000E-03 0. -1.
         23    2    1    2    0    0 -0.35527136788E-14  0.44408920985E-15  0.00000000000E+00  0.91188000000E+02  0.91188000000E+02 0.  0.
    9900012    2    3    3    0    0 -0.21399706039E+02  0.27691096983E+01  0.29835669616E+02  0.54367047154E+02  0.39999915596E+02 0.  0.
         12    1    3    3    0    0  0.21399706039E+02 -0.27691096983E+01 -0.29835669616E+02  0.36820952846E+02  0.00000000000E+00 0. -1.
         11    1    4    4    0    0 -0.10284042904E+02  0.12121289919E+01  0.12487521630E+02  0.16222484146E+02  0.51100000000E-03 0.  1.
        -11    1    4    4    0    0 -0.15883710375E+02 -0.50343947174E+01  0.22881833116E+02  0.28305753345E+02  0.51100000000E-03 0. -1.
         12    1    4    4    0    0  0.47680472401E+01  0.65913754239E+01 -0.55336851295E+01  0.98388096625E+01  0.00000000000E+00 0. -1.
</event>
<event>
 8    1  0.1244838E-006  0.9118800E+02  0.7816164E-02  0.1184000E+00
        -11   -1    0    0    0    0  0.00000000000E+00  0.00000000000E+00  0.45593999997E+02  0.45594000000E+02  0.51100000000E-03 0.  1.
         11   -1    0    0    0    0 -0.00000000000E+00 -0.00000000000E+00 -0.45593999997E+02  0.45594000000E+02  0.51100000000E-03 0. -1.
         23    2    1    2    0    0  0.00000000000E+00 -0.35527136788E-14  0.00000000000E+00  0.91188000000E+02  0.91188000000E+02 0.  0.
    9900012    2    3    3    0    0 -0.69711054778E+01  0.23056464573E+02 -0.27849310438E+02  0.54367068967E+02  0.39999965325E+02 0.  0.
        -12    1    3    3    0    0  0.69711054778E+01 -0.23056464573E+02  0.27849310438E+02  0.36820931033E+02  0.00000000000E+00 0.  1.
         11    1    4    4    0    0  0.55067778624E-01 -0.20601812179E+01  0.40763950128E+00  0.21008449098E+01  0.51100000000E-03 0.  1.
        -11    1    4    4    0    0  0.13998373063E+02  0.55154932459E+01 -0.75047886166E+01  0.16813594696E+02  0.51100000000E-03 0. -1.
         12    1    4    4    0    0 -0.21024546320E+02  0.19601152546E+02 -0.20752161323E+02  0.35452629361E+02  0.00000000000E+00 0. -1.
</event>
<event>
 8    1  0.1244838E-006  0.9118800E+02  0.7816164E-02  0.1184000E+00
        -11   -1    0    0    0    0  0.00000000000E+00  0.00000000000E+00  0.45593999997E+02  0.45594000000E+02  0.51100000000E-03 0.  1.
         11   -1    0    0    0    0 -0.00000000000E+00 -0.00000000000E+00 -0.45593999997E+02  0.45594000000E+02  0.51100000000E-03 0. -1.
         23    2    1    2    0    0 -0.88817841970E-15  0.35527136788E-14  0.71054273576E-14  0.91188000000E+02  0.91188000000E+02 0.  0.
    9900012    2    3    3    0    0  0.48853711912E+01  0.28241753275E+02 -0.23115258522E+02  0.54367100279E+02  0.40000036707E+02 0.  0.
        -12    1    3    3    0    0 -0.48853711912E+01 -0.28241753275E+02  0.23115258522E+02  0.36820899721E+02  0.00000000000E+00 0.  1.
         11    1    4    4    0    0  0.76225972098E+01  0.20098757815E+02  0.36467862911E+01  0.21802823314E+02  0.51100000000E-03 0.  1.
        -11    1    4    4    0    0 -0.65786916196E+01  0.14008120046E+01 -0.22956501511E+02  0.23921588985E+02  0.51100000000E-03 0. -1.
         12    1    4    4    0    0  0.38414656011E+01  0.67421834548E+01 -0.38055433018E+01  0.86426879803E+01  0.00000000000E+00 0. -1.
</event>
<event>
 8    1  0.1244838E-006  0.9118800E+02  0.7816164E-02  0.1184000E+00
        -11   -1    0    0    0    0  0.00000000000E+00  0.00000000000E+00  0.45593999997E+02  0.45594000000E+02  0.51100000000E-03 0. -1.
         11   -1    0    0    0    0 -0.00000000000E+00 -0.00000000000E+00 -0.45593999997E+02  0.45594000000E+02  0.51100000000E-03 0.  1.
         23    2    1    2    0    0  0.00000000000E+00 -0.17763568394E-14  0.35527136788E-14  0.91188000000E+02  0.91188000000E+02 0.  0.
    9900012    2    3    3    0    0 -0.19798165028E+02  0.12027620992E+02 -0.28620783641E+02  0.54367078482E+02  0.39999987016E+02 0.  0.
         12    1    3    3    0    0  0.19798165028E+02 -0.12027620992E+02  0.28620783641E+02  0.36820921518E+02  0.00000000000E+00 0. -1.
         11    1    4    4    0    0  0.35704866149E+01  0.11004817115E+02 -0.61251449820E+01  0.13090904312E+02  0.51100000000E-03 0. -1.
        -11    1    4    4    0    0 -0.10617932491E+02  0.12883537959E+02 -0.75297531850E+01  0.18314563167E+02  0.51100000000E-03 0.  1.
         12    1    4    4    0    0 -0.12750719152E+02 -0.11860734081E+02 -0.14965885474E+02  0.22961611003E+02  0.00000000000E+00 0. -1.
</event>
<event>
 8    1  0.1244838E-006  0.9118800E+02  0.7816164E-02  0.1184000E+00
        -11   -1    0    0    0    0  0.00000000000E+00  0.00000000000E+00  0.45593999997E+02  0.45594000000E+02  0.51100000000E-03 0.  1.
         11   -1    0    0    0    0 -0.00000000000E+00 -0.00000000000E+00 -0.45593999997E+02  0.45594000000E+02  0.51100000000E-03 0. -1.
         23    2    1    2    0    0 -0.17763568394E-14  0.71054273576E-14 -0.35527136788E-14  0.91188000000E+02  0.91188000000E+02 0.  0.
    9900012    2    3    3    0    0  0.12804963876E+02 -0.33358042020E+02  0.88911613215E+01  0.54367098097E+02  0.40000031732E+02 0.  0.
         12    1    3    3    0    0 -0.12804963876E+02  0.33358042020E+02 -0.88911613215E+01  0.36820901903E+02  0.00000000000E+00 0. -1.
         11    1    4    4    0    0  0.25659668650E+01 -0.64158832213E+01 -0.92816269588E+01  0.11571358724E+02  0.51100000000E-03 0. -1.
        -11    1    4    4    0    0  0.22995863736E+01  0.37890403620E+01 -0.23320365789E+01  0.50083249915E+01  0.51100000000E-03 0.  1.
        -12    1    4    4    0    0  0.79394106376E+01 -0.30731199161E+02  0.20504824859E+02  0.37787414381E+02  0.00000000000E+00 0.  1.
</event>
<event>
 8    1  0.1244838E-006  0.9118800E+02  0.7816164E-02  0.1184000E+00
        -11   -1    0    0    0    0  0.00000000000E+00  0.00000000000E+00  0.45593999997E+02  0.45594000000E+02  0.51100000000E-03 0.  1.
         11   -1    0    0    0    0 -0.00000000000E+00 -0.00000000000E+00 -0.45593999997E+02  0.45594000000E+02  0.51100000000E-03 0. -1.
         23    2    1    2    0    0  0.35527136788E-14 -0.35527136788E-14  0.88817841970E-15  0.91188000000E+02  0.91188000000E+02 0.  0.
    9900012    2    3    3    0    0  0.19666445122E+02 -0.30798056664E+02  0.45262540223E+01  0.54367131821E+02  0.40000108611E+02 0.  0.
         12    1    3    3    0    0 -0.19666445122E+02  0.30798056664E+02 -0.45262540223E+01  0.36820868179E+02  0.00000000000E+00 0. -1.
         11    1    4    4    0    0  0.28482159519E+02 -0.20569224064E+02  0.88230077017E+01  0.36223912746E+02  0.51100000000E-03 0. -1.
        -11    1    4    4    0    0 -0.10004152926E+02 -0.10546762774E+02 -0.93884077174E+00  0.14567041670E+02  0.51100000000E-03 0.  1.
        -12    1    4    4    0    0  0.11884385280E+01  0.31793017409E+00 -0.33579129076E+01  0.35761774041E+01  0.00000000000E+00 0.  1.
</event>
<event>
 8    1  0.1244838E-006  0.9118800E+02  0.7816164E-02  0.1184000E+00
        -11   -1    0    0    0    0  0.00000000000E+00  0.00000000000E+00  0.45593999997E+02  0.45594000000E+02  0.51100000000E-03 0. -1.
         11   -1    0    0    0    0 -0.00000000000E+00 -0.00000000000E+00 -0.45593999997E+02  0.45594000000E+02  0.51100000000E-03 0.  1.
         23    2    1    2    0    0 -0.88817841970E-15  0.00000000000E+00  0.35527136788E-14  0.91188000000E+02  0.91188000000E+02 0.  0.
    9900012    2    3    3    0    0 -0.47178863493E+01 -0.18635694403E+02  0.31404336118E+02  0.54367083600E+02  0.39999998684E+02 0.  0.
        -12    1    3    3    0    0  0.47178863493E+01  0.18635694403E+02 -0.31404336118E+02  0.36820916400E+02  0.00000000000E+00 0.  1.
         11    1    4    4    0    0 -0.15209519012E+02 -0.26198547730E+02  0.20526739060E+02  0.36592900793E+02  0.51100000000E-03 0. -1.
        -11    1    4    4    0    0  0.12300338413E+01  0.11415314742E+01 -0.50879660253E+00  0.17535539915E+01  0.51100000000E-03 0.  1.
         12    1    4    4    0    0  0.92615988211E+01  0.64213218529E+01  0.11386393661E+02  0.16020628816E+02  0.00000000000E+00 0. -1.
</event>
<event>
 8    1  0.1244838E-006  0.9118800E+02  0.7816164E-02  0.1184000E+00
        -11   -1    0    0    0    0  0.00000000000E+00  0.00000000000E+00  0.45593999997E+02  0.45594000000E+02  0.51100000000E-03 0. -1.
         11   -1    0    0    0    0 -0.00000000000E+00 -0.00000000000E+00 -0.45593999997E+02  0.45594000000E+02  0.51100000000E-03 0.  1.
         23    2    1    2    0    0  0.00000000000E+00  0.00000000000E+00  0.00000000000E+00  0.91188000000E+02  0.91188000000E+02 0.  0.
    9900012    2    3    3    0    0 -0.82714854913E+01  0.33347169665E+02 -0.13241212685E+02  0.54367069671E+02  0.39999966929E+02 0.  0.
         12    1    3    3    0    0  0.82714854913E+01 -0.33347169665E+02  0.13241212685E+02  0.36820930329E+02  0.00000000000E+00 0. -1.
         11    1    4    4    0    0  0.34772166324E+01  0.91304222621E+00 -0.12038607479E+02  0.12563946510E+02  0.51100000000E-03 0. -1.
        -11    1    4    4    0    0 -0.86521069424E+01  0.35932108961E+02  0.77609786524E-01  0.36959186036E+02  0.51100000000E-03 0.  1.
        -12    1    4    4    0    0 -0.30965951814E+01 -0.34979815218E+01 -0.12802149926E+01  0.48439371251E+01  0.00000000000E+00 0.  1.
</event>
<event>
 8    1  0.1244838E-006  0.9118800E+02  0.7816164E-02  0.1184000E+00
        -11   -1    0    0    0    0  0.00000000000E+00  0.00000000000E+00  0.45593999997E+02  0.45594000000E+02  0.51100000000E-03 0.  1.
         11   -1    0    0    0    0 -0.00000000000E+00 -0.00000000000E+00 -0.45593999997E+02  0.45594000000E+02  0.51100000000E-03 0. -1.
         23    2    1    2    0    0  0.00000000000E+00  0.00000000000E+00  0.00000000000E+00  0.91188000000E+02  0.91188000000E+02 0.  0.
    9900012    2    3    3    0    0 -0.25151541687E+02 -0.60661968680E+00  0.26885226065E+02  0.54367035629E+02  0.39999889323E+02 0.  0.
         12    1    3    3    0    0  0.25151541687E+02  0.60661968680E+00 -0.26885226065E+02  0.36820964371E+02  0.00000000000E+00 0. -1.
         11    1    4    4    0    0 -0.13681280213E+02  0.22083648554E+01  0.47955723855E+01  0.14664645184E+02  0.51100000000E-03 0. -1.
        -11    1    4    4    0    0 -0.18687205026E+02  0.73767890583E+01  0.10518512054E+02  0.22677472182E+02  0.51100000000E-03 0.  1.
         12    1    4    4    0    0  0.72169435517E+01 -0.10191773601E+02  0.11571141625E+02  0.17024918263E+02  0.00000000000E+00 0. -1.
</event>
<event>
 8    1  0.1244838E-006  0.9118800E+02  0.7816164E-02  0.1184000E+00
        -11   -1    0    0    0    0  0.00000000000E+00  0.00000000000E+00  0.45593999997E+02  0.45594000000E+02  0.51100000000E-03 0.  1.
         11   -1    0    0    0    0 -0.00000000000E+00 -0.00000000000E+00 -0.45593999997E+02  0.45594000000E+02  0.51100000000E-03 0. -1.
         23    2    1    2    0    0 -0.88817841970E-15 -0.88817841970E-15  0.00000000000E+00  0.91188000000E+02  0.91188000000E+02 0.  0.
    9900012    2    3    3    0    0  0.48440628134E+01 -0.52955907329E+01 -0.36114703885E+02  0.54367081184E+02  0.39999993176E+02 0.  0.
        -12    1    3    3    0    0 -0.48440628134E+01  0.52955907329E+01  0.36114703885E+02  0.36820918816E+02  0.00000000000E+00 0.  1.
         11    1    4    4    0    0  0.77888780638E+01 -0.99600226750E+01 -0.57136134056E+01  0.13874943300E+02  0.51100000000E-03 0. -1.
        -11    1    4    4    0    0 -0.10987170827E+02 -0.57326527052E+01 -0.20809449355E+02  0.24220124123E+02  0.51100000000E-03 0.  1.
         12    1    4    4    0    0  0.80423555767E+01  0.10397084647E+02 -0.95916411239E+01  0.16272013761E+02  0.00000000000E+00 0. -1.
</event>
<event>
 8    1  0.1244838E-006  0.9118800E+02  0.7816164E-02  0.1184000E+00
        -11   -1    0    0    0    0  0.00000000000E+00  0.00000000000E+00  0.45593999997E+02  0.45594000000E+02  0.51100000000E-03 0. -1.
         11   -1    0    0    0    0 -0.00000000000E+00 -0.00000000000E+00 -0.45593999997E+02  0.45594000000E+02  0.51100000000E-03 0.  1.
         23    2    1    2    0    0 -0.17763568394E-14 -0.35527136788E-14  0.00000000000E+00  0.91188000000E+02  0.91188000000E+02 0.  0.
    9900012    2    3    3    0    0 -0.14440943260E+02  0.28329119817E+02  0.18566089793E+02  0.54367087979E+02  0.40000008667E+02 0.  0.
        -12    1    3    3    0    0  0.14440943260E+02 -0.28329119817E+02 -0.18566089793E+02  0.36820912021E+02  0.00000000000E+00 0.  1.
         11    1    4    4    0    0 -0.15133248621E+02  0.30424982312E+02  0.23147246862E+02  0.41115566396E+02  0.51100000000E-03 0. -1.
        -11    1    4    4    0    0 -0.37892078464E+01 -0.50108568959E+01 -0.47919418507E+01  0.79012334415E+01  0.51100000000E-03 0.  1.
        -12    1    4    4    0    0  0.44815132070E+01  0.29149944006E+01  0.21078478190E+00  0.53502881422E+01  0.00000000000E+00 0.  1.
</event>
<event>
 8    1  0.1244838E-006  0.9118800E+02  0.7816164E-02  0.1184000E+00
        -11   -1    0    0    0    0  0.00000000000E+00  0.00000000000E+00  0.45593999997E+02  0.45594000000E+02  0.51100000000E-03 0.  1.
         11   -1    0    0    0    0 -0.00000000000E+00 -0.00000000000E+00 -0.45593999997E+02  0.45594000000E+02  0.51100000000E-03 0. -1.
         23    2    1    2    0    0 -0.71054273576E-14  0.00000000000E+00  0.00000000000E+00  0.91188000000E+02  0.91188000000E+02 0.  0.
    9900012    2    3    3    0    0  0.35110496590E+02 -0.67854122262E+01  0.87745404066E+01  0.54367063711E+02  0.39999953341E+02 0.  0.
         12    1    3    3    0    0 -0.35110496590E+02  0.67854122262E+01 -0.87745404066E+01  0.36820936289E+02  0.00000000000E+00 0. -1.
         11    1    4    4    0    0  0.74818217661E+01 -0.13188977835E+02  0.14262628440E+02  0.20817045025E+02  0.51100000000E-03 0.  1.
        -11    1    4    4    0    0  0.19271011519E+02  0.35486595314E+00 -0.10642443797E+02  0.22017252895E+02  0.51100000000E-03 0. -1.
         12    1    4    4    0    0  0.83576633046E+01  0.60486996558E+01  0.51543557638E+01  0.11532765791E+02  0.00000000000E+00 0. -1.
</event>
<event>
 8    1  0.1244838E-006  0.9118800E+02  0.7816164E-02  0.1184000E+00
        -11   -1    0    0    0    0  0.00000000000E+00  0.00000000000E+00  0.45593999997E+02  0.45594000000E+02  0.51100000000E-03 0. -1.
         11   -1    0    0    0    0 -0.00000000000E+00 -0.00000000000E+00 -0.45593999997E+02  0.45594000000E+02  0.51100000000E-03 0.  1.
         23    2    1    2    0    0  0.00000000000E+00  0.00000000000E+00  0.00000000000E+00  0.91188000000E+02  0.91188000000E+02 0.  0.
    9900012    2    3    3    0    0  0.25739944233E+02  0.59380457528E+01 -0.25651004108E+02  0.54367093870E+02  0.40000022097E+02 0.  0.
         12    1    3    3    0    0 -0.25739944233E+02 -0.59380457528E+01  0.25651004108E+02  0.36820906130E+02  0.00000000000E+00 0. -1.
         11    1    4    4    0    0  0.46228946148E+01 -0.49594557729E+01  0.83861945435E+01  0.10784044481E+02  0.51100000000E-03 0. -1.
        -11    1    4    4    0    0  0.64285232156E+01  0.97461056729E+01 -0.20411481984E+02  0.23514699309E+02  0.51100000000E-03 0.  1.
         12    1    4    4    0    0  0.14688526402E+02  0.11513958527E+01 -0.13625716667E+02  0.20068350081E+02  0.00000000000E+00 0. -1.
</event>
<event>
 8    1  0.1244838E-006  0.9118800E+02  0.7816164E-02  0.1184000E+00
        -11   -1    0    0    0    0  0.00000000000E+00  0.00000000000E+00  0.45593999997E+02  0.45594000000E+02  0.51100000000E-03 0. -1.
         11   -1    0    0    0    0 -0.00000000000E+00 -0.00000000000E+00 -0.45593999997E+02  0.45594000000E+02  0.51100000000E-03 0.  1.
         23    2    1    2    0    0  0.00000000000E+00 -0.12212453271E-14  0.00000000000E+00  0.91188000000E+02  0.91188000000E+02 0.  0.
    9900012    2    3    3    0    0 -0.27619668713E+02  0.86438633670E+00  0.24334884065E+02  0.54367084122E+02  0.39999999874E+02 0.  0.
        -12    1    3    3    0    0  0.27619668713E+02 -0.86438633670E+00 -0.24334884065E+02  0.36820915878E+02  0.00000000000E+00 0.  1.
         11    1    4    4    0    0 -0.25064622900E+02 -0.10773022380E+02  0.23714729863E+02  0.36148053130E+02  0.51100000000E-03 0. -1.
        -11    1    4    4    0    0  0.28605018313E+01  0.31564209606E+01 -0.50994417693E+01  0.66445293759E+01  0.51100000000E-03 0.  1.
        -12    1    4    4    0    0 -0.54155476442E+01  0.84809877556E+01  0.57195959718E+01  0.11574501617E+02  0.00000000000E+00 0.  1.
</event>
<event>
 8    1  0.1244838E-006  0.9118800E+02  0.7816164E-02  0.1184000E+00
        -11   -1    0    0    0    0  0.00000000000E+00  0.00000000000E+00  0.45593999997E+02  0.45594000000E+02  0.51100000000E-03 0. -1.
         11   -1    0    0    0    0 -0.00000000000E+00 -0.00000000000E+00 -0.45593999997E+02  0.45594000000E+02  0.51100000000E-03 0.  1.
         23    2    1    2    0    0  0.00000000000E+00 -0.83266726847E-15  0.00000000000E+00  0.91188000000E+02  0.91188000000E+02 0.  0.
    9900012    2    3    3    0    0 -0.36742161981E+02  0.48271909054E+00 -0.23580279767E+01  0.54367085010E+02  0.40000001898E+02 0.  0.
         12    1    3    3    0    0  0.36742161981E+02 -0.48271909054E+00  0.23580279767E+01  0.36820914990E+02  0.00000000000E+00 0. -1.
         11    1    4    4    0    0 -0.13157808369E+02  0.14775733797E+02 -0.52793502613E+01  0.20477347723E+02  0.51100000000E-03 0. -1.
        -11    1    4    4    0    0 -0.49900605625E+01 -0.13413626181E+02 -0.24393945323E+01  0.14518151318E+02  0.51100000000E-03 0.  1.
        -12    1    4    4    0    0 -0.18594293049E+02 -0.87938852584E+00  0.53607168169E+01  0.19371585970E+02  0.00000000000E+00 0.  1.
</event>
<event>
 8    1  0.1244838E-006  0.9118800E+02  0.7816164E-02  0.1184000E+00
        -11   -1    0    0    0    0  0.00000000000E+00  0.00000000000E+00  0.45593999997E+02  0.45594000000E+02  0.51100000000E-03 0.  1.
         11   -1    0    0    0    0 -0.00000000000E+00 -0.00000000000E+00 -0.45593999997E+02  0.45594000000E+02  0.51100000000E-03 0. -1.
         23    2    1    2    0    0  0.71054273576E-14 -0.44408920985E-15 -0.35527136788E-14  0.91188000000E+02  0.91188000000E+02 0.  0.
    9900012    2    3    3    0    0 -0.33978784377E+02 -0.36155574539E+01  0.13717100246E+02  0.54366961414E+02  0.39999720134E+02 0.  0.
         12    1    3    3    0    0  0.33978784377E+02  0.36155574539E+01 -0.13717100246E+02  0.36821038586E+02  0.00000000000E+00 0. -1.
         11    1    4    4    0    0 -0.11221633725E+02 -0.67162342037E+01 -0.12806568738E+01  0.13140507891E+02  0.51100000000E-03 0. -1.
        -11    1    4    4    0    0 -0.81875384061E+01 -0.13778452588E+02  0.75611157148E+01  0.17721512689E+02  0.51100000000E-03 0.  1.
         12    1    4    4    0    0 -0.14569612246E+02  0.16879129338E+02  0.74366414046E+01  0.23504940834E+02  0.00000000000E+00 0. -1.
</event>
