<event>
 8    1  0.1240174E-006  0.9118800E+02  0.7816164E-02  0.1184000E+00
        -11   -1    0    0    0    0  0.00000000000E+00  0.00000000000E+00  0.45593999997E+02  0.45594000000E+02  0.51100000000E-03 0. -1.
         11   -1    0    0    0    0 -0.00000000000E+00 -0.00000000000E+00 -0.45593999997E+02  0.45594000000E+02  0.51100000000E-03 0.  1.
         23    2    1    2    0    0  0.35527136788E-14  0.88817841970E-15 -0.35527136788E-14  0.91188000000E+02  0.91188000000E+02 0.  0.
    9900012    2    3    3    0    0 -0.19865513153E+02 -0.48004955302E+01  0.30628359518E+02  0.54367085061E+02  0.40000002013E+02 0.  0.
        -12    1    3    3    0    0  0.19865513153E+02  0.48004955302E+01 -0.30628359518E+02  0.36820914939E+02  0.00000000000E+00 0.  1.
         11    1    4    4    0    0 -0.24676092235E+01 -0.33850398040E+01  0.21678241394E+02  0.22079260403E+02  0.51100000000E-03 0. -1.
        -11    1    4    4    0    0 -0.38363951485E+01  0.10483356997E+02 -0.17684716316E+01  0.11302486180E+02  0.51100000000E-03 0.  1.
        -12    1    4    4    0    0 -0.13561508781E+02 -0.11898812724E+02  0.10718589756E+02  0.20985338478E+02  0.00000000000E+00 0.  1.
</event>
<event>
 8    1  0.1240174E-006  0.9118800E+02  0.7816164E-02  0.1184000E+00
        -11   -1    0    0    0    0  0.00000000000E+00  0.00000000000E+00  0.45593999997E+02  0.45594000000E+02  0.51100000000E-03 0. -1.
         11   -1    0    0    0    0 -0.00000000000E+00 -0.00000000000E+00 -0.45593999997E+02  0.45594000000E+02  0.51100000000E-03 0.  1.
         23    2    1    2    0    0  0.88817841970E-15  0.35527136788E-14 -0.35527136788E-14  0.91188000000E+02  0.91188000000E+02 0.  0.
    9900012    2    3    3    0    0 -0.67130246237E+01 -0.19977411619E+02  0.30193059308E+02  0.54367048016E+02  0.39999917562E+02 0.  0.
        -12    1    3    3    0    0  0.67130246237E+01  0.19977411619E+02 -0.30193059308E+02  0.36820951984E+02  0.00000000000E+00 0.  1.
         11    1    4    4    0    0 -0.17156486628E+01  0.44627065906E+01 -0.57339902372E+01  0.74657782414E+01  0.51100000000E-03 0. -1.
        -11    1    4    4    0    0  0.24640696212E+00  0.98451578267E+00 -0.12170517273E+01  0.15846775335E+01  0.51100000000E-03 0.  1.
         12    1    4    4    0    0 -0.52437829230E+01 -0.25424633992E+02  0.37144101273E+02  0.45316592241E+02  0.00000000000E+00 0. -1.
</event>
<event>
 8    1  0.1240174E-006  0.9118800E+02  0.7816164E-02  0.1184000E+00
        -11   -1    0    0    0    0  0.00000000000E+00  0.00000000000E+00  0.45593999997E+02  0.45594000000E+02  0.51100000000E-03 0.  1.
         11   -1    0    0    0    0 -0.00000000000E+00 -0.00000000000E+00 -0.45593999997E+02  0.45594000000E+02  0.51100000000E-03 0. -1.
         23    2    1    2    0    0  0.00000000000E+00  0.00000000000E+00  0.00000000000E+00  0.91188000000E+02  0.91188000000E+02 0.  0.
    9900012    2    3    3    0    0  0.13935556045E+02 -0.17865024049E+02 -0.29024457040E+02  0.54367110372E+02  0.40000059715E+02 0.  0.
        -12    1    3    3    0    0 -0.13935556045E+02  0.17865024049E+02  0.29024457040E+02  0.36820889628E+02  0.00000000000E+00 0.  1.
         11    1    4    4    0    0 -0.28620779927E+01 -0.14555713983E+02 -0.91275801812E+00  0.14862483893E+02  0.51100000000E-03 0. -1.
        -11    1    4    4    0    0  0.38251410665E+01 -0.10844040219E+02 -0.65381163727E+01  0.13227693616E+02  0.51100000000E-03 0.  1.
         12    1    4    4    0    0  0.12972492971E+02  0.75347301533E+01 -0.21573582649E+02  0.26276932863E+02  0.00000000000E+00 0. -1.
</event>
<event>
 8    1  0.1240174E-006  0.9118800E+02  0.7816164E-02  0.1184000E+00
        -11   -1    0    0    0    0  0.00000000000E+00  0.00000000000E+00  0.45593999997E+02  0.45594000000E+02  0.51100000000E-03 0.  1.
         11   -1    0    0    0    0 -0.00000000000E+00 -0.00000000000E+00 -0.45593999997E+02  0.45594000000E+02  0.51100000000E-03 0. -1.
         23    2    1    2    0    0  0.00000000000E+00  0.53290705182E-14 -0.35527136788E-14  0.91188000000E+02  0.91188000000E+02 0.  0.
    9900012    2    3    3    0    0 -0.32614278063E+02  0.14890946466E+02 -0.83873772642E+01  0.54367088583E+02  0.40000010042E+02 0.  0.
         12    1    3    3    0    0  0.32614278063E+02 -0.14890946466E+02  0.83873772642E+01  0.36820911417E+02  0.00000000000E+00 0. -1.
         11    1    4    4    0    0 -0.97259861879E+01 -0.10160346246E+01  0.25771130990E+01  0.10112796145E+02  0.51100000000E-03 0. -1.
        -11    1    4    4    0    0 -0.12941249518E+02  0.13292092910E+02 -0.22260598108E+02  0.28977403290E+02  0.51100000000E-03 0.  1.
         12    1    4    4    0    0 -0.99470423575E+01  0.26148881799E+01  0.11296107745E+02  0.15276889148E+02  0.00000000000E+00 0. -1.
</event>
<event>
 8    1  0.1240174E-006  0.9118800E+02  0.7816164E-02  0.1184000E+00
        -11   -1    0    0    0    0  0.00000000000E+00  0.00000000000E+00  0.45593999997E+02  0.45594000000E+02  0.51100000000E-03 0.  1.
         11   -1    0    0    0    0 -0.00000000000E+00 -0.00000000000E+00 -0.45593999997E+02  0.45594000000E+02  0.51100000000E-03 0. -1.
         23    2    1    2    0    0  0.17763568394E-14  0.00000000000E+00 -0.13322676296E-14  0.91188000000E+02  0.91188000000E+02 0.  0.
    9900012    2    3    3    0    0  0.12039794157E+02 -0.34749441518E+02  0.18154906593E+01  0.54367131793E+02  0.40000108549E+02 0.  0.
        -12    1    3    3    0    0 -0.12039794157E+02  0.34749441518E+02 -0.18154906593E+01  0.36820868207E+02  0.00000000000E+00 0.  1.
         11    1    4    4    0    0  0.90250319261E+01 -0.94611339951E+01 -0.99480691183E+01  0.16429495950E+02  0.51100000000E-03 0. -1.
        -11    1    4    4    0    0 -0.51330584496E+01 -0.10252184394E+02 -0.62837655586E+01  0.13074451566E+02  0.51100000000E-03 0.  1.
        -12    1    4    4    0    0  0.81478206808E+01 -0.15036123129E+02  0.18047325336E+02  0.24863184277E+02  0.00000000000E+00 0.  1.
</event>
<event>
 8    1  0.1240174E-006  0.9118800E+02  0.7816164E-02  0.1184000E+00
        -11   -1    0    0    0    0  0.00000000000E+00  0.00000000000E+00  0.45593999997E+02  0.45594000000E+02  0.51100000000E-03 0.  1.
         11   -1    0    0    0    0 -0.00000000000E+00 -0.00000000000E+00 -0.45593999997E+02  0.45594000000E+02  0.51100000000E-03 0. -1.
         23    2    1    2    0    0  0.00000000000E+00  0.00000000000E+00  0.00000000000E+00  0.91188000000E+02  0.91188000000E+02 0.  0.
    9900012    2    3    3    0    0 -0.96567105858E+01  0.20331336453E+02 -0.29140444781E+02  0.54367070852E+02  0.39999969622E+02 0.  0.
        -12    1    3    3    0    0  0.96567105858E+01 -0.20331336453E+02  0.29140444781E+02  0.36820929148E+02  0.00000000000E+00 0.  1.
         11    1    4    4    0    0 -0.18561083577E+01  0.88214583809E+01 -0.14300333273E+02  0.16904520052E+02  0.51100000000E-03 0. -1.
        -11    1    4    4    0    0  0.54527256363E+01  0.13460180635E+02 -0.18553414438E+02  0.23561363865E+02  0.51100000000E-03 0.  1.
        -12    1    4    4    0    0 -0.13253327864E+02 -0.19503025629E+01  0.37133029307E+01  0.13901186936E+02  0.00000000000E+00 0.  1.
</event>
<event>
 8    1  0.1240174E-006  0.9118800E+02  0.7816164E-02  0.1184000E+00
        -11   -1    0    0    0    0  0.00000000000E+00  0.00000000000E+00  0.45593999997E+02  0.45594000000E+02  0.51100000000E-03 0. -1.
         11   -1    0    0    0    0 -0.00000000000E+00 -0.00000000000E+00 -0.45593999997E+02  0.45594000000E+02  0.51100000000E-03 0.  1.
         23    2    1    2    0    0  0.13877787808E-14 -0.17763568394E-14 -0.71054273576E-14  0.91188000000E+02  0.91188000000E+02 0.  0.
    9900012    2    3    3    0    0 -0.13524838005E+00 -0.11196956119E+02 -0.35076906342E+02  0.54367089134E+02  0.40000011299E+02 0.  0.
         12    1    3    3    0    0  0.13524838005E+00  0.11196956119E+02  0.35076906342E+02  0.36820910866E+02  0.00000000000E+00 0. -1.
         11    1    4    4    0    0 -0.31751601861E+01  0.73094549944E+01 -0.88609503736E+00  0.80184125111E+01  0.51100000000E-03 0. -1.
        -11    1    4    4    0    0 -0.66816208421E+01 -0.16297403888E+01 -0.22736093579E+02  0.23753527366E+02  0.51100000000E-03 0.  1.
         12    1    4    4    0    0  0.97215326481E+01 -0.16876670725E+02 -0.11454717725E+02  0.22595149257E+02  0.00000000000E+00 0. -1.
</event>
<event>
 8    1  0.1240174E-006  0.9118800E+02  0.7816164E-02  0.1184000E+00
        -11   -1    0    0    0    0  0.00000000000E+00  0.00000000000E+00  0.45593999997E+02  0.45594000000E+02  0.51100000000E-03 0.  1.
         11   -1    0    0    0    0 -0.00000000000E+00 -0.00000000000E+00 -0.45593999997E+02  0.45594000000E+02  0.51100000000E-03 0. -1.
         23    2    1    2    0    0 -0.13322676296E-14 -0.35527136788E-14  0.00000000000E+00  0.91188000000E+02  0.91188000000E+02 0.  0.
    9900012    2    3    3    0    0  0.28631101831E+01 -0.24990925486E+02 -0.26889317713E+02  0.54367093389E+02  0.40000020999E+02 0.  0.
        -12    1    3    3    0    0 -0.28631101831E+01  0.24990925486E+02  0.26889317713E+02  0.36820906611E+02  0.00000000000E+00 0.  1.
         11    1    4    4    0    0  0.72839564047E+01 -0.98685622723E+01 -0.10784276644E+02  0.16332334959E+02  0.51100000000E-03 0. -1.
        -11    1    4    4    0    0 -0.68988099578E+00 -0.92302349458E+01  0.84350635549E+01  0.12522917806E+02  0.51100000000E-03 0.  1.
         12    1    4    4    0    0 -0.37309652258E+01 -0.58921282675E+01 -0.24540104624E+02  0.25511840624E+02  0.00000000000E+00 0. -1.
</event>
<event>
 8    1  0.1240174E-006  0.9118800E+02  0.7816164E-02  0.1184000E+00
        -11   -1    0    0    0    0  0.00000000000E+00  0.00000000000E+00  0.45593999997E+02  0.45594000000E+02  0.51100000000E-03 0.  1.
         11   -1    0    0    0    0 -0.00000000000E+00 -0.00000000000E+00 -0.45593999997E+02  0.45594000000E+02  0.51100000000E-03 0. -1.
         23    2    1    2    0    0 -0.35527136788E-14 -0.35527136788E-14  0.88817841970E-15  0.91188000000E+02  0.91188000000E+02 0.  0.
    9900012    2    3    3    0    0 -0.30745457804E+02 -0.19060310835E+02 -0.68703448866E+01  0.54367078453E+02  0.39999986949E+02 0.  0.
        -12    1    3    3    0    0  0.30745457804E+02  0.19060310835E+02  0.68703448866E+01  0.36820921547E+02  0.00000000000E+00 0.  1.
         11    1    4    4    0    0 -0.28128826738E+02 -0.45319733440E+01 -0.13694165955E+02  0.31611704438E+02  0.51100000000E-03 0. -1.
        -11    1    4    4    0    0  0.58343146411E+01 -0.97147470534E+01  0.90025976713E+00  0.11367761677E+02  0.51100000000E-03 0.  1.
        -12    1    4    4    0    0 -0.84509457076E+01 -0.48135904380E+01  0.59235613010E+01  0.11387612337E+02  0.00000000000E+00 0.  1.
</event>
<event>
 8    1  0.1240174E-006  0.9118800E+02  0.7816164E-02  0.1184000E+00
        -11   -1    0    0    0    0  0.00000000000E+00  0.00000000000E+00  0.45593999997E+02  0.45594000000E+02  0.51100000000E-03 0.  1.
         11   -1    0    0    0    0 -0.00000000000E+00 -0.00000000000E+00 -0.45593999997E+02  0.45594000000E+02  0.51100000000E-03 0. -1.
         23    2    1    2    0    0  0.00000000000E+00  0.00000000000E+00  0.88817841970E-15  0.91188000000E+02  0.91188000000E+02 0.  0.
    9900012    2    3    3    0    0  0.34295734216E+02  0.13262346508E+02 -0.19212942504E+01  0.54367101153E+02  0.40000038699E+02 0.  0.
         12    1    3    3    0    0 -0.34295734216E+02 -0.13262346508E+02  0.19212942504E+01  0.36820898847E+02  0.00000000000E+00 0. -1.
         11    1    4    4    0    0  0.28494917919E+02  0.87034109070E+01 -0.65305373206E+01  0.30501764319E+02  0.51100000000E-03 0. -1.
        -11    1    4    4    0    0  0.14193795262E+02  0.48972837104E+01  0.28347168950E+01  0.15280145020E+02  0.51100000000E-03 0.  1.
        -12    1    4    4    0    0 -0.83929789651E+01 -0.33834810979E+00  0.17745261752E+01  0.85851918149E+01  0.00000000000E+00 0.  1.
</event>
<event>
 8    1  0.1240174E-006  0.9118800E+02  0.7816164E-02  0.1184000E+00
        -11   -1    0    0    0    0  0.00000000000E+00  0.00000000000E+00  0.45593999997E+02  0.45594000000E+02  0.51100000000E-03 0. -1.
         11   -1    0    0    0    0 -0.00000000000E+00 -0.00000000000E+00 -0.45593999997E+02  0.45594000000E+02  0.51100000000E-03 0.  1.
         23    2    1    2    0    0 -0.35527136788E-14 -0.17763568394E-14  0.35527136788E-14  0.91188000000E+02  0.91188000000E+02 0.  0.
    9900012    2    3    3    0    0 -0.20527790373E+02 -0.13436550770E+02 -0.27456301985E+02  0.54367087561E+02  0.40000007713E+02 0.  0.
        -12    1    3    3    0    0  0.20527790373E+02  0.13436550770E+02  0.27456301985E+02  0.36820912439E+02  0.00000000000E+00 0.  1.
         11    1    4    4    0    0  0.29618478574E+01 -0.83547644823E+01 -0.10218122345E+01  0.89229329701E+01  0.51100000000E-03 0. -1.
        -11    1    4    4    0    0 -0.51038739783E+01 -0.72246407511E+01  0.40903028475E+01  0.97455395548E+01  0.51100000000E-03 0.  1.
        -12    1    4    4    0    0 -0.18385764252E+02  0.21428544634E+01 -0.30524792598E+02  0.35698615036E+02  0.00000000000E+00 0.  1.
</event>
<event>
 8    1  0.1240174E-006  0.9118800E+02  0.7816164E-02  0.1184000E+00
        -11   -1    0    0    0    0  0.00000000000E+00  0.00000000000E+00  0.45593999997E+02  0.45594000000E+02  0.51100000000E-03 0. -1.
         11   -1    0    0    0    0 -0.00000000000E+00 -0.00000000000E+00 -0.45593999997E+02  0.45594000000E+02  0.51100000000E-03 0.  1.
         23    2    1    2    0    0  0.00000000000E+00  0.00000000000E+00  0.35527136788E-14  0.91188000000E+02  0.91188000000E+02 0.  0.
    9900012    2    3    3    0    0 -0.26472431804E+02 -0.18995455324E+02 -0.17151189245E+02  0.54367078486E+02  0.39999987026E+02 0.  0.
        -12    1    3    3    0    0  0.26472431804E+02  0.18995455324E+02  0.17151189245E+02  0.36820921514E+02  0.00000000000E+00 0.  1.
         11    1    4    4    0    0 -0.15120692561E+02  0.18655834619E+01 -0.60404994298E+01  0.16389123796E+02  0.51100000000E-03 0. -1.
        -11    1    4    4    0    0 -0.63750203921E+01  0.47411016147E+01  0.27938585740E+01  0.84216729641E+01  0.51100000000E-03 0.  1.
        -12    1    4    4    0    0 -0.49767188515E+01 -0.25602140400E+02 -0.13904548389E+02  0.29556281727E+02  0.00000000000E+00 0.  1.
</event>
<event>
 8    1  0.1240174E-006  0.9118800E+02  0.7816164E-02  0.1184000E+00
        -11   -1    0    0    0    0  0.00000000000E+00  0.00000000000E+00  0.45593999997E+02  0.45594000000E+02  0.51100000000E-03 0. -1.
         11   -1    0    0    0    0 -0.00000000000E+00 -0.00000000000E+00 -0.45593999997E+02  0.45594000000E+02  0.51100000000E-03 0.  1.
         23    2    1    2    0    0  0.00000000000E+00 -0.22204460493E-15  0.00000000000E+00  0.91188000000E+02  0.91188000000E+02 0.  0.
    9900012    2    3    3    0    0  0.35246592605E+02  0.17552603433E+01  0.10506015713E+02  0.54367087528E+02  0.40000007637E+02 0.  0.
        -12    1    3    3    0    0 -0.35246592605E+02 -0.17552603433E+01 -0.10506015713E+02  0.36820912472E+02  0.00000000000E+00 0.  1.
         11    1    4    4    0    0  0.35050215730E+02  0.96063628001E+01  0.12255512096E+02  0.38353584004E+02  0.51100000000E-03 0. -1.
        -11    1    4    4    0    0  0.50928313926E+01 -0.44144304373E+01 -0.57148177610E+01  0.88364738432E+01  0.51100000000E-03 0.  1.
         12    1    4    4    0    0 -0.48964545175E+01 -0.34366720195E+01  0.39653213773E+01  0.71770296807E+01  0.00000000000E+00 0. -1.
</event>
<event>
 8    1  0.1240174E-006  0.9118800E+02  0.7816164E-02  0.1184000E+00
        -11   -1    0    0    0    0  0.00000000000E+00  0.00000000000E+00  0.45593999997E+02  0.45594000000E+02  0.51100000000E-03 0.  1.
         11   -1    0    0    0    0 -0.00000000000E+00 -0.00000000000E+00 -0.45593999997E+02  0.45594000000E+02  0.51100000000E-03 0. -1.
         23    2    1    2    0    0  0.00000000000E+00  0.00000000000E+00 -0.35527136788E-14  0.91188000000E+02  0.91188000000E+02 0.  0.
    9900012    2    3    3    0    0  0.18027152863E+02  0.18296076188E+02  0.26382842940E+02  0.54367094990E+02  0.40000024648E+02 0.  0.
         12    1    3    3    0    0 -0.18027152863E+02 -0.18296076188E+02 -0.26382842940E+02  0.36820905010E+02  0.00000000000E+00 0. -1.
         11    1    4    4    0    0 -0.38111212747E+01  0.44888137829E+01  0.46822963865E+01  0.75231638464E+01  0.51100000000E-03 0. -1.
        -11    1    4    4    0    0 -0.27440820923E+01  0.22690727762E+01  0.19251703918E+02  0.19578222131E+02  0.51100000000E-03 0.  1.
         12    1    4    4    0    0  0.24582356230E+02  0.11538189629E+02  0.24488426352E+01  0.27265709013E+02  0.00000000000E+00 0. -1.
</event>
<event>
 8    1  0.1240174E-006  0.9118800E+02  0.7816164E-02  0.1184000E+00
        -11   -1    0    0    0    0  0.00000000000E+00  0.00000000000E+00  0.45593999997E+02  0.45594000000E+02  0.51100000000E-03 0.  1.
         11   -1    0    0    0    0 -0.00000000000E+00 -0.00000000000E+00 -0.45593999997E+02  0.45594000000E+02  0.51100000000E-03 0. -1.
         23    2    1    2    0    0  0.00000000000E+00  0.00000000000E+00  0.00000000000E+00  0.91188000000E+02  0.91188000000E+02 0.  0.
    9900012    2    3    3    0    0 -0.16427487040E+02 -0.32576406552E+02 -0.49693657620E+01  0.54367093026E+02  0.40000020172E+02 0.  0.
        -12    1    3    3    0    0  0.16427487040E+02  0.32576406552E+02  0.49693657620E+01  0.36820906974E+02  0.00000000000E+00 0.  1.
         11    1    4    4    0    0  0.80172239663E+00 -0.55708852867E+01 -0.13518765637E+02  0.14643583793E+02  0.51100000000E-03 0. -1.
        -11    1    4    4    0    0 -0.38037416183E+01 -0.22983711121E+02 -0.19934227088E-01  0.23296347886E+02  0.51100000000E-03 0.  1.
        -12    1    4    4    0    0 -0.13425467818E+02 -0.40218101445E+01  0.85693341024E+01  0.16427161347E+02  0.00000000000E+00 0.  1.
</event>
<event>
 8    1  0.1240174E-006  0.9118800E+02  0.7816164E-02  0.1184000E+00
        -11   -1    0    0    0    0  0.00000000000E+00  0.00000000000E+00  0.45593999997E+02  0.45594000000E+02  0.51100000000E-03 0. -1.
         11   -1    0    0    0    0 -0.00000000000E+00 -0.00000000000E+00 -0.45593999997E+02  0.45594000000E+02  0.51100000000E-03 0.  1.
         23    2    1    2    0    0 -0.17763568394E-14  0.00000000000E+00  0.35527136788E-14  0.91188000000E+02  0.91188000000E+02 0.  0.
    9900012    2    3    3    0    0  0.14728224596E+02 -0.24287174089E+02 -0.23430588772E+02  0.54367083184E+02  0.39999997734E+02 0.  0.
         12    1    3    3    0    0 -0.14728224596E+02  0.24287174089E+02  0.23430588772E+02  0.36820916816E+02  0.00000000000E+00 0. -1.
         11    1    4    4    0    0  0.38158308440E+01 -0.60507198931E+01  0.11226729048E+01  0.72410062123E+01  0.51100000000E-03 0. -1.
        -11    1    4    4    0    0  0.12596522827E+02 -0.21393339370E+02 -0.31022436815E+02  0.39733347996E+02  0.51100000000E-03 0.  1.
        -12    1    4    4    0    0 -0.16841290749E+01  0.31568851739E+01  0.64691751382E+01  0.73927289759E+01  0.00000000000E+00 0.  1.
</event>
<event>
 8    1  0.1240174E-006  0.9118800E+02  0.7816164E-02  0.1184000E+00
        -11   -1    0    0    0    0  0.00000000000E+00  0.00000000000E+00  0.45593999997E+02  0.45594000000E+02  0.51100000000E-03 0.  1.
         11   -1    0    0    0    0 -0.00000000000E+00 -0.00000000000E+00 -0.45593999997E+02  0.45594000000E+02  0.51100000000E-03 0. -1.
         23    2    1    2    0    0  0.00000000000E+00  0.00000000000E+00  0.00000000000E+00  0.91188000000E+02  0.91188000000E+02 0.  0.
    9900012    2    3    3    0    0 -0.10010097940E+02  0.26193420667E+02  0.23863833104E+02  0.54367083697E+02  0.39999998903E+02 0.  0.
         12    1    3    3    0    0  0.10010097940E+02 -0.26193420667E+02 -0.23863833104E+02  0.36820916303E+02  0.00000000000E+00 0. -1.
         11    1    4    4    0    0  0.76122778647E+01  0.24157347440E+02  0.10447800670E+02  0.27398553770E+02  0.51100000000E-03 0. -1.
        -11    1    4    4    0    0 -0.13653961141E+02  0.32545502952E+01  0.12247030132E+01  0.14089806606E+02  0.51100000000E-03 0.  1.
         12    1    4    4    0    0 -0.39684146636E+01 -0.12184770681E+01  0.12191329421E+02  0.12878723320E+02  0.00000000000E+00 0. -1.
</event>
<event>
 8    1  0.1240174E-006  0.9118800E+02  0.7816164E-02  0.1184000E+00
        -11   -1    0    0    0    0  0.00000000000E+00  0.00000000000E+00  0.45593999997E+02  0.45594000000E+02  0.51100000000E-03 0.  1.
         11   -1    0    0    0    0 -0.00000000000E+00 -0.00000000000E+00 -0.45593999997E+02  0.45594000000E+02  0.51100000000E-03 0. -1.
         23    2    1    2    0    0  0.00000000000E+00  0.17763568394E-14 -0.35527136788E-14  0.91188000000E+02  0.91188000000E+02 0.  0.
    9900012    2    3    3    0    0  0.19183282609E+02 -0.15009252467E+02  0.27613476511E+02  0.54367080996E+02  0.39999992747E+02 0.  0.
         12    1    3    3    0    0 -0.19183282609E+02  0.15009252467E+02 -0.27613476511E+02  0.36820919004E+02  0.00000000000E+00 0. -1.
         11    1    4    4    0    0  0.18253327169E+02 -0.99265581054E+01 -0.34490610212E+01  0.21062206218E+02  0.51100000000E-03 0. -1.
        -11    1    4    4    0    0  0.36677423612E+01  0.16703258383E+01  0.61856980460E+01  0.73827625596E+01  0.51100000000E-03 0.  1.
        -12    1    4    4    0    0 -0.27377869217E+01 -0.67530201998E+01  0.24876839486E+02  0.25922112219E+02  0.00000000000E+00 0.  1.
</event>
<event>
 8    1  0.1240174E-006  0.9118800E+02  0.7816164E-02  0.1184000E+00
        -11   -1    0    0    0    0  0.00000000000E+00  0.00000000000E+00  0.45593999997E+02  0.45594000000E+02  0.51100000000E-03 0.  1.
         11   -1    0    0    0    0 -0.00000000000E+00 -0.00000000000E+00 -0.45593999997E+02  0.45594000000E+02  0.51100000000E-03 0. -1.
         23    2    1    2    0    0  0.00000000000E+00  0.00000000000E+00  0.00000000000E+00  0.91188000000E+02  0.91188000000E+02 0.  0.
    9900012    2    3    3    0    0  0.16951602731E+02 -0.13026079679E+02  0.29979093103E+02  0.54367060167E+02  0.39999945262E+02 0.  0.
         12    1    3    3    0    0 -0.16951602731E+02  0.13026079679E+02 -0.29979093103E+02  0.36820939833E+02  0.00000000000E+00 0. -1.
         11    1    4    4    0    0  0.48609125112E+01 -0.11094021623E+02  0.41557914631E+00  0.12119343732E+02  0.51100000000E-03 0. -1.
        -11    1    4    4    0    0 -0.61117143230E+01  0.34085861257E+01  0.19618402679E+02  0.20829143892E+02  0.51100000000E-03 0.  1.
        -12    1    4    4    0    0  0.18202404543E+02 -0.53406441819E+01  0.99451112769E+01  0.21418572542E+02  0.00000000000E+00 0.  1.
</event>
<event>
 8    1  0.1240174E-006  0.9118800E+02  0.7816164E-02  0.1184000E+00
        -11   -1    0    0    0    0  0.00000000000E+00  0.00000000000E+00  0.45593999997E+02  0.45594000000E+02  0.51100000000E-03 0.  1.
         11   -1    0    0    0    0 -0.00000000000E+00 -0.00000000000E+00 -0.45593999997E+02  0.45594000000E+02  0.51100000000E-03 0. -1.
         23    2    1    2    0    0  0.35527136788E-14  0.88817841970E-15  0.00000000000E+00  0.91188000000E+02  0.91188000000E+02 0.  0.
    9900012    2    3    3    0    0  0.27427189358E+02  0.75099316296E+01  0.23390767481E+02  0.54367112008E+02  0.40000063446E+02 0.  0.
         12    1    3    3    0    0 -0.27427189358E+02 -0.75099316296E+01 -0.23390767481E+02  0.36820887992E+02  0.00000000000E+00 0. -1.
         11    1    4    4    0    0  0.13834247658E+02  0.89437716679E+00  0.17791171057E+02  0.22554646675E+02  0.51100000000E-03 0. -1.
        -11    1    4    4    0    0  0.14452698537E+02  0.61946136280E+01  0.15374047704E+02  0.21991249989E+02  0.51100000000E-03 0.  1.
         12    1    4    4    0    0 -0.85975683799E+00  0.42094083480E+00 -0.97744512805E+01  0.98212153445E+01  0.00000000000E+00 0. -1.
</event>
<event>
 8    1  0.1240174E-006  0.9118800E+02  0.7816164E-02  0.1184000E+00
        -11   -1    0    0    0    0  0.00000000000E+00  0.00000000000E+00  0.45593999997E+02  0.45594000000E+02  0.51100000000E-03 0.  1.
         11   -1    0    0    0    0 -0.00000000000E+00 -0.00000000000E+00 -0.45593999997E+02  0.45594000000E+02  0.51100000000E-03 0. -1.
         23    2    1    2    0    0  0.00000000000E+00  0.00000000000E+00 -0.88817841970E-15  0.91188000000E+02  0.91188000000E+02 0.  0.
    9900012    2    3    3    0    0 -0.35942762210E+02 -0.20476157349E+01 -0.77266412998E+01  0.54367138097E+02  0.40000122920E+02 0.  0.
        -12    1    3    3    0    0  0.35942762210E+02  0.20476157349E+01  0.77266412998E+01  0.36820861903E+02  0.00000000000E+00 0.  1.
         11    1    4    4    0    0 -0.30007327572E+02 -0.21615546674E+01 -0.14860737363E+02  0.33555231214E+02  0.51100000000E-03 0. -1.
        -11    1    4    4    0    0  0.26315998655E+01 -0.44926161086E+01 -0.35971091643E+01  0.63283577611E+01  0.51100000000E-03 0.  1.
         12    1    4    4    0    0 -0.85670345036E+01  0.46065550411E+01  0.10731205227E+02  0.14483549122E+02  0.00000000000E+00 0. -1.
</event>
<event>
 8    1  0.1240174E-006  0.9118800E+02  0.7816164E-02  0.1184000E+00
        -11   -1    0    0    0    0  0.00000000000E+00  0.00000000000E+00  0.45593999997E+02  0.45594000000E+02  0.51100000000E-03 0. -1.
         11   -1    0    0    0    0 -0.00000000000E+00 -0.00000000000E+00 -0.45593999997E+02  0.45594000000E+02  0.51100000000E-03 0.  1.
         23    2    1    2    0    0  0.00000000000E+00  0.22204460493E-15  0.11102230246E-15  0.91188000000E+02  0.91188000000E+02 0.  0.
    9900012    2    3    3    0    0 -0.36805040560E+02 -0.72743158616E+00 -0.79944001535E+00  0.54367091922E+02  0.40000017654E+02 0.  0.
         12    1    3    3    0    0  0.36805040560E+02  0.72743158616E+00  0.79944001535E+00  0.36820908078E+02  0.00000000000E+00 0. -1.
         11    1    4    4    0    0  0.19983046633E+01  0.68823055329E+00  0.56059105021E+01  0.59910863490E+01  0.51100000000E-03 0. -1.
        -11    1    4    4    0    0 -0.34339226553E+02  0.98160359177E+01 -0.64343542058E+01  0.36289639785E+02  0.51100000000E-03 0.  1.
        -12    1    4    4    0    0 -0.44641186708E+01 -0.11231698057E+02  0.29003688343E-01  0.12086365788E+02  0.00000000000E+00 0.  1.
</event>
<event>
 8    1  0.1240174E-006  0.9118800E+02  0.7816164E-02  0.1184000E+00
        -11   -1    0    0    0    0  0.00000000000E+00  0.00000000000E+00  0.45593999997E+02  0.45594000000E+02  0.51100000000E-03 0.  1.
         11   -1    0    0    0    0 -0.00000000000E+00 -0.00000000000E+00 -0.45593999997E+02  0.45594000000E+02  0.51100000000E-03 0. -1.
         23    2    1    2    0    0  0.71054273576E-14  0.00000000000E+00  0.00000000000E+00  0.91188000000E+02  0.91188000000E+02 0.  0.
    9900012    2    3    3    0    0 -0.36540208490E+02 -0.44039554073E+01  0.10945700652E+01  0.54367085518E+02  0.40000003055E+02 0.  0.
        -12    1    3    3    0    0  0.36540208490E+02  0.44039554073E+01 -0.10945700652E+01  0.36820914482E+02  0.00000000000E+00 0.  1.
         11    1    4    4    0    0 -0.21712489193E+02 -0.62873645081E+01  0.17135113934E+01  0.22669346285E+02  0.51100000000E-03 0. -1.
        -11    1    4    4    0    0 -0.24986993019E+01 -0.59818092531E+01 -0.11682148871E+02  0.13360319706E+02  0.51100000000E-03 0.  1.
        -12    1    4    4    0    0 -0.12329019994E+02  0.78652183539E+01  0.11063207543E+02  0.18337419527E+02  0.00000000000E+00 0.  1.
</event>
<event>
 8    1  0.1240174E-006  0.9118800E+02  0.7816164E-02  0.1184000E+00
        -11   -1    0    0    0    0  0.00000000000E+00  0.00000000000E+00  0.45593999997E+02  0.45594000000E+02  0.51100000000E-03 0.  1.
         11   -1    0    0    0    0 -0.00000000000E+00 -0.00000000000E+00 -0.45593999997E+02  0.45594000000E+02  0.51100000000E-03 0. -1.
         23    2    1    2    0    0  0.00000000000E+00  0.00000000000E+00 -0.17763568394E-14  0.91188000000E+02  0.91188000000E+02 0.  0.
    9900012    2    3    3    0    0  0.28483757532E+02 -0.20890755955E+02 -0.10393932928E+02  0.54367055292E+02  0.39999934149E+02 0.  0.
        -12    1    3    3    0    0 -0.28483757532E+02  0.20890755955E+02  0.10393932928E+02  0.36820944708E+02  0.00000000000E+00 0.  1.
         11    1    4    4    0    0  0.62850790051E+01 -0.16405618449E+02 -0.11689139987E+02  0.21101718619E+02  0.51100000000E-03 0. -1.
        -11    1    4    4    0    0  0.75950675078E+01 -0.64790268261E+01  0.11582592801E+02  0.15291150882E+02  0.51100000000E-03 0.  1.
        -12    1    4    4    0    0  0.14603611019E+02  0.19938893202E+01 -0.10287385741E+02  0.17974185790E+02  0.00000000000E+00 0.  1.
</event>
<event>
 8    1  0.1240174E-006  0.9118800E+02  0.7816164E-02  0.1184000E+00
        -11   -1    0    0    0    0  0.00000000000E+00  0.00000000000E+00  0.45593999997E+02  0.45594000000E+02  0.51100000000E-03 0. -1.
         11   -1    0    0    0    0 -0.00000000000E+00 -0.00000000000E+00 -0.45593999997E+02  0.45594000000E+02  0.51100000000E-03 0.  1.
         23    2    1    2    0    0  0.88817841970E-15  0.00000000000E+00  0.00000000000E+00  0.91188000000E+02  0.91188000000E+02 0.  0.
    9900012    2    3    3    0    0 -0.37664413466E+01  0.29698544288E+02 -0.21438044709E+02  0.54367090530E+02  0.40000014482E+02 0.  0.
         12    1    3    3    0    0  0.37664413466E+01 -0.29698544288E+02  0.21438044709E+02  0.36820909470E+02  0.00000000000E+00 0. -1.
         11    1    4    4    0    0  0.10374597136E+02 -0.37801293471E+01 -0.66639954906E+01  0.12896917452E+02  0.51100000000E-03 0. -1.
        -11    1    4    4    0    0 -0.66120928467E+01  0.25812847111E+02 -0.53497947410E+01  0.27177990210E+02  0.51100000000E-03 0.  1.
         12    1    4    4    0    0 -0.75289456359E+01  0.76658265237E+01 -0.94242544775E+01  0.14292182868E+02  0.00000000000E+00 0. -1.
</event>
<event>
 8    1  0.1240174E-006  0.9118800E+02  0.7816164E-02  0.1184000E+00
        -11   -1    0    0    0    0  0.00000000000E+00  0.00000000000E+00  0.45593999997E+02  0.45594000000E+02  0.51100000000E-03 0. -1.
         11   -1    0    0    0    0 -0.00000000000E+00 -0.00000000000E+00 -0.45593999997E+02  0.45594000000E+02  0.51100000000E-03 0.  1.
         23    2    1    2    0    0  0.35527136788E-14  0.16653345369E-15 -0.71054273576E-14  0.91188000000E+02  0.91188000000E+02 0.  0.
    9900012    2    3    3    0    0  0.26618317163E+02 -0.15726602154E+00 -0.25440536715E+02  0.54367075928E+02  0.39999981194E+02 0.  0.
         12    1    3    3    0    0 -0.26618317163E+02  0.15726602154E+00  0.25440536715E+02  0.36820924072E+02  0.00000000000E+00 0. -1.
         11    1    4    4    0    0 -0.52074785064E+01 -0.31090040721E+01 -0.19349381491E+01  0.63661389097E+01  0.51100000000E-03 0. -1.
        -11    1    4    4    0    0  0.27134896157E+02  0.17332460157E+01 -0.29614134006E+02  0.40203279274E+02  0.51100000000E-03 0.  1.
         12    1    4    4    0    0  0.46908995117E+01  0.12184920349E+01  0.61085354406E+01  0.77976577443E+01  0.00000000000E+00 0. -1.
</event>
<event>
 8    1  0.1240174E-006  0.9118800E+02  0.7816164E-02  0.1184000E+00
        -11   -1    0    0    0    0  0.00000000000E+00  0.00000000000E+00  0.45593999997E+02  0.45594000000E+02  0.51100000000E-03 0. -1.
         11   -1    0    0    0    0 -0.00000000000E+00 -0.00000000000E+00 -0.45593999997E+02  0.45594000000E+02  0.51100000000E-03 0.  1.
         23    2    1    2    0    0  0.00000000000E+00 -0.44408920985E-15  0.00000000000E+00  0.91188000000E+02  0.91188000000E+02 0.  0.
    9900012    2    3    3    0    0 -0.30984439111E+02 -0.21426157321E+01 -0.19777582961E+02  0.54367094838E+02  0.40000024302E+02 0.  0.
         12    1    3    3    0    0  0.30984439111E+02  0.21426157321E+01  0.19777582961E+02  0.36820905162E+02  0.00000000000E+00 0. -1.
         11    1    4    4    0    0 -0.44398714319E+00 -0.80198842759E+00  0.56733148951E+01  0.57468958736E+01  0.51100000000E-03 0. -1.
        -11    1    4    4    0    0 -0.26794353111E+02  0.85990416769E+01 -0.99879934048E+01  0.29860356477E+02  0.51100000000E-03 0.  1.
        -12    1    4    4    0    0 -0.37460988566E+01 -0.99396689814E+01 -0.15462904451E+02  0.18759842488E+02  0.00000000000E+00 0.  1.
</event>
<event>
 8    1  0.1240174E-006  0.9118800E+02  0.7816164E-02  0.1184000E+00
        -11   -1    0    0    0    0  0.00000000000E+00  0.00000000000E+00  0.45593999997E+02  0.45594000000E+02  0.51100000000E-03 0.  1.
         11   -1    0    0    0    0 -0.00000000000E+00 -0.00000000000E+00 -0.45593999997E+02  0.45594000000E+02  0.51100000000E-03 0. -1.
         23    2    1    2    0    0 -0.35527136788E-14  0.71054273576E-14  0.44408920985E-15  0.91188000000E+02  0.91188000000E+02 0.  0.
    9900012    2    3    3    0    0  0.23380410824E+02 -0.28224877066E+02 -0.35347221437E+01  0.54367060899E+02  0.39999946931E+02 0.  0.
         12    1    3    3    0    0 -0.23380410824E+02  0.28224877066E+02  0.35347221437E+01  0.36820939101E+02  0.00000000000E+00 0. -1.
         11    1    4    4    0    0  0.11134821219E+02  0.25992659169E+01 -0.69155270807E+01  0.13362819386E+02  0.51100000000E-03 0. -1.
        -11    1    4    4    0    0  0.11750527737E+02 -0.52591505117E+01  0.78043896401E+01  0.15054635968E+02  0.51100000000E-03 0.  1.
        -12    1    4    4    0    0  0.49506186733E+00 -0.25564992471E+02 -0.44235847030E+01  0.25949605545E+02  0.00000000000E+00 0.  1.
</event>
<event>
 8    1  0.1240174E-006  0.9118800E+02  0.7816164E-02  0.1184000E+00
        -11   -1    0    0    0    0  0.00000000000E+00  0.00000000000E+00  0.45593999997E+02  0.45594000000E+02  0.51100000000E-03 0.  1.
         11   -1    0    0    0    0 -0.00000000000E+00 -0.00000000000E+00 -0.45593999997E+02  0.45594000000E+02  0.51100000000E-03 0. -1.
         23    2    1    2    0    0  0.88817841970E-15  0.00000000000E+00  0.00000000000E+00  0.91188000000E+02  0.91188000000E+02 0.  0.
    9900012    2    3    3    0    0 -0.21499560695E+01  0.35536355902E+02  0.93985138135E+01  0.54366987470E+02  0.39999779534E+02 0.  0.
         12    1    3    3    0    0  0.21499560695E+01 -0.35536355902E+02 -0.93985138135E+01  0.36821012530E+02  0.00000000000E+00 0. -1.
         11    1    4    4    0    0  0.34156843690E+01  0.16981560404E+02 -0.12339177849E+02  0.21267242504E+02  0.51100000000E-03 0. -1.
        -11    1    4    4    0    0  0.51072443648E+01  0.47722134199E+01  0.95290053072E+01  0.11817779332E+02  0.51100000000E-03 0.  1.
         12    1    4    4    0    0 -0.10672884803E+02  0.13782582077E+02  0.12208686355E+02  0.21281965634E+02  0.00000000000E+00 0. -1.
</event>
<event>
 8    1  0.1240174E-006  0.9118800E+02  0.7816164E-02  0.1184000E+00
        -11   -1    0    0    0    0  0.00000000000E+00  0.00000000000E+00  0.45593999997E+02  0.45594000000E+02  0.51100000000E-03 0. -1.
         11   -1    0    0    0    0 -0.00000000000E+00 -0.00000000000E+00 -0.45593999997E+02  0.45594000000E+02  0.51100000000E-03 0.  1.
         23    2    1    2    0    0  0.00000000000E+00  0.00000000000E+00  0.35527136788E-14  0.91188000000E+02  0.91188000000E+02 0.  0.
    9900012    2    3    3    0    0 -0.18282036660E+02 -0.26149471246E+02 -0.18378039005E+02  0.54367081644E+02  0.39999994224E+02 0.  0.
         12    1    3    3    0    0  0.18282036660E+02  0.26149471246E+02  0.18378039005E+02  0.36820918356E+02  0.00000000000E+00 0. -1.
         11    1    4    4    0    0  0.26229046574E+01 -0.38112900442E+01 -0.27327184316E+01  0.53733891475E+01  0.51100000000E-03 0. -1.
        -11    1    4    4    0    0 -0.24072714012E+01 -0.17451822501E+02 -0.22583601789E+02  0.28642278789E+02  0.51100000000E-03 0.  1.
         12    1    4    4    0    0 -0.18497669916E+02 -0.48863587013E+01  0.69382812155E+01  0.20351413708E+02  0.00000000000E+00 0. -1.
</event>
<event>
 8    1  0.1240174E-006  0.9118800E+02  0.7816164E-02  0.1184000E+00
        -11   -1    0    0    0    0  0.00000000000E+00  0.00000000000E+00  0.45593999997E+02  0.45594000000E+02  0.51100000000E-03 0. -1.
         11   -1    0    0    0    0 -0.00000000000E+00 -0.00000000000E+00 -0.45593999997E+02  0.45594000000E+02  0.51100000000E-03 0.  1.
         23    2    1    2    0    0  0.44408920985E-15  0.17763568394E-14  0.00000000000E+00  0.91188000000E+02  0.91188000000E+02 0.  0.
    9900012    2    3    3    0    0 -0.39571658150E+01  0.10217590157E+02  0.35152829689E+02  0.54367085494E+02  0.40000003002E+02 0.  0.
        -12    1    3    3    0    0  0.39571658150E+01 -0.10217590157E+02 -0.35152829689E+02  0.36820914506E+02  0.00000000000E+00 0.  1.
         11    1    4    4    0    0 -0.13192007912E+02 -0.67692594017E+01  0.65218093975E+01  0.16198331509E+02  0.51100000000E-03 0. -1.
        -11    1    4    4    0    0 -0.37549973082E+01  0.61360798191E+01  0.38502848014E+01  0.81594223842E+01  0.51100000000E-03 0.  1.
        -12    1    4    4    0    0  0.12989839405E+02  0.10850769740E+02  0.24780735490E+02  0.30009331601E+02  0.00000000000E+00 0.  1.
</event>
<event>
 8    1  0.1240174E-006  0.9118800E+02  0.7816164E-02  0.1184000E+00
        -11   -1    0    0    0    0  0.00000000000E+00  0.00000000000E+00  0.45593999997E+02  0.45594000000E+02  0.51100000000E-03 0.  1.
         11   -1    0    0    0    0 -0.00000000000E+00 -0.00000000000E+00 -0.45593999997E+02  0.45594000000E+02  0.51100000000E-03 0. -1.
         23    2    1    2    0    0  0.44408920985E-15  0.00000000000E+00  0.35527136788E-14  0.91188000000E+02  0.91188000000E+02 0.  0.
    9900012    2    3    3    0    0 -0.21314468041E+01 -0.32820813053E+02 -0.16553860461E+02  0.54367093831E+02  0.40000022006E+02 0.  0.
        -12    1    3    3    0    0  0.21314468041E+01  0.32820813053E+02  0.16553860461E+02  0.36820906169E+02  0.00000000000E+00 0.  1.
         11    1    4    4    0    0 -0.82447193919E+00 -0.55847074689E+00 -0.42099279159E+01  0.43260994986E+01  0.51100000000E-03 0. -1.
        -11    1    4    4    0    0 -0.13829092148E+01  0.59950940320E+01  0.51026479526E+01  0.79931599970E+01  0.51100000000E-03 0.  1.
         12    1    4    4    0    0  0.75934349851E-01 -0.38257436338E+02 -0.17446580498E+02  0.42047834335E+02  0.00000000000E+00 0. -1.
</event>
<event>
 8    1  0.1240174E-006  0.9118800E+02  0.7816164E-02  0.1184000E+00
        -11   -1    0    0    0    0  0.00000000000E+00  0.00000000000E+00  0.45593999997E+02  0.45594000000E+02  0.51100000000E-03 0.  1.
         11   -1    0    0    0    0 -0.00000000000E+00 -0.00000000000E+00 -0.45593999997E+02  0.45594000000E+02  0.51100000000E-03 0. -1.
         23    2    1    2    0    0  0.17763568394E-14  0.17763568394E-14  0.35527136788E-14  0.91188000000E+02  0.91188000000E+02 0.  0.
    9900012    2    3    3    0    0 -0.15768115175E+02  0.13675013385E+02  0.30333926240E+02  0.54366993382E+02  0.39999793012E+02 0.  0.
         12    1    3    3    0    0  0.15768115175E+02 -0.13675013385E+02 -0.30333926240E+02  0.36821006618E+02  0.00000000000E+00 0. -1.
         11    1    4    4    0    0 -0.31109990236E+00  0.13353975647E+02 -0.39164006911E+01  0.13919900983E+02  0.51100000000E-03 0.  1.
        -11    1    4    4    0    0 -0.71359869104E+01 -0.21747836937E+01  0.29734848720E+02  0.30656373268E+02  0.51100000000E-03 0. -1.
        -12    1    4    4    0    0 -0.83210283623E+01  0.24958214315E+01  0.45154782111E+01  0.97907191309E+01  0.00000000000E+00 0.  1.
</event>
<event>
 8    1  0.1240174E-006  0.9118800E+02  0.7816164E-02  0.1184000E+00
        -11   -1    0    0    0    0  0.00000000000E+00  0.00000000000E+00  0.45593999997E+02  0.45594000000E+02  0.51100000000E-03 0. -1.
         11   -1    0    0    0    0 -0.00000000000E+00 -0.00000000000E+00 -0.45593999997E+02  0.45594000000E+02  0.51100000000E-03 0.  1.
         23    2    1    2    0    0 -0.71054273576E-14  0.35527136788E-14  0.66613381478E-15  0.91188000000E+02  0.91188000000E+02 0.  0.
    9900012    2    3    3    0    0 -0.21052865049E+02  0.30184648938E+02  0.12013774867E+01  0.54367089282E+02  0.40000011635E+02 0.  0.
         12    1    3    3    0    0  0.21052865049E+02 -0.30184648938E+02 -0.12013774867E+01  0.36820910718E+02  0.00000000000E+00 0. -1.
         11    1    4    4    0    0 -0.21502587134E+02  0.14840538708E+02 -0.11710684896E+02  0.28631154074E+02  0.51100000000E-03 0. -1.
        -11    1    4    4    0    0  0.54883259991E+01  0.13461471063E+02  0.35910167984E+01  0.14974255486E+02  0.51100000000E-03 0.  1.
        -12    1    4    4    0    0 -0.50386039140E+01  0.18826391660E+01  0.93210455845E+01  0.10761679721E+02  0.00000000000E+00 0.  1.
</event>
<event>
 8    1  0.1240174E-006  0.9118800E+02  0.7816164E-02  0.1184000E+00
        -11   -1    0    0    0    0  0.00000000000E+00  0.00000000000E+00  0.45593999997E+02  0.45594000000E+02  0.51100000000E-03 0. -1.
         11   -1    0    0    0    0 -0.00000000000E+00 -0.00000000000E+00 -0.45593999997E+02  0.45594000000E+02  0.51100000000E-03 0.  1.
         23    2    1    2    0    0  0.00000000000E+00  0.00000000000E+00  0.35527136788E-14  0.91188000000E+02  0.91188000000E+02 0.  0.
    9900012    2    3    3    0    0  0.24834192141E+02  0.12379321698E+02 -0.24203201357E+02  0.54367086636E+02  0.40000005604E+02 0.  0.
         12    1    3    3    0    0 -0.24834192141E+02 -0.12379321698E+02  0.24203201357E+02  0.36820913364E+02  0.00000000000E+00 0. -1.
         11    1    4    4    0    0 -0.29146411305E+01  0.50282345597E+00  0.13764554248E+01  0.32622989049E+01  0.51100000000E-03 0. -1.
        -11    1    4    4    0    0  0.15409970387E+02  0.20094882523E+02 -0.51155545415E+01  0.25834867708E+02  0.51100000000E-03 0.  1.
        -12    1    4    4    0    0  0.12338862884E+02 -0.82183842804E+01 -0.20464102241E+02  0.25269920023E+02  0.00000000000E+00 0.  1.
</event>
<event>
 8    1  0.1240174E-006  0.9118800E+02  0.7816164E-02  0.1184000E+00
        -11   -1    0    0    0    0  0.00000000000E+00  0.00000000000E+00  0.45593999997E+02  0.45594000000E+02  0.51100000000E-03 0. -1.
         11   -1    0    0    0    0 -0.00000000000E+00 -0.00000000000E+00 -0.45593999997E+02  0.45594000000E+02  0.51100000000E-03 0.  1.
         23    2    1    2    0    0  0.00000000000E+00  0.00000000000E+00  0.71054273576E-14  0.91188000000E+02  0.91188000000E+02 0.  0.
    9900012    2    3    3    0    0 -0.10645980173E+02  0.94209555392E+01 -0.33965955515E+02  0.54367116915E+02  0.40000074631E+02 0.  0.
         12    1    3    3    0    0  0.10645980173E+02 -0.94209555392E+01  0.33965955515E+02  0.36820883085E+02  0.00000000000E+00 0. -1.
         11    1    4    4    0    0 -0.61565830583E+01  0.79807970983E+01 -0.75751533461E+01  0.12608710710E+02  0.51100000000E-03 0. -1.
        -11    1    4    4    0    0 -0.46555197013E+01  0.63891967297E+01  0.54068036329E+01  0.95775374876E+01  0.51100000000E-03 0.  1.
        -12    1    4    4    0    0  0.16612258618E+00 -0.49490382888E+01 -0.31797605802E+02  0.32180868718E+02  0.00000000000E+00 0.  1.
</event>
<event>
 8    1  0.1240174E-006  0.9118800E+02  0.7816164E-02  0.1184000E+00
        -11   -1    0    0    0    0  0.00000000000E+00  0.00000000000E+00  0.45593999997E+02  0.45594000000E+02  0.51100000000E-03 0.  1.
         11   -1    0    0    0    0 -0.00000000000E+00 -0.00000000000E+00 -0.45593999997E+02  0.45594000000E+02  0.51100000000E-03 0. -1.
         23    2    1    2    0    0  0.00000000000E+00  0.00000000000E+00  0.00000000000E+00  0.91188000000E+02  0.91188000000E+02 0.  0.
    9900012    2    3    3    0    0 -0.21578998242E+02 -0.25558333852E+02 -0.15391545780E+02  0.54367064706E+02  0.39999955610E+02 0.  0.
        -12    1    3    3    0    0  0.21578998242E+02  0.25558333852E+02  0.15391545780E+02  0.36820935294E+02  0.00000000000E+00 0.  1.
         11    1    4    4    0    0  0.11880016841E+01 -0.96749402916E+01  0.64991110335E+01  0.11715556416E+02  0.51100000000E-03 0. -1.
        -11    1    4    4    0    0 -0.12851815651E+02 -0.17698332454E+02 -0.41725425937E+01  0.22266797011E+02  0.51100000000E-03 0.  1.
        -12    1    4    4    0    0 -0.99151842757E+01  0.18149388937E+01 -0.17718114220E+02  0.20384711279E+02  0.00000000000E+00 0.  1.
</event>
<event>
 8    1  0.1240174E-006  0.9118800E+02  0.7816164E-02  0.1184000E+00
        -11   -1    0    0    0    0  0.00000000000E+00  0.00000000000E+00  0.45593999997E+02  0.45594000000E+02  0.51100000000E-03 0. -1.
         11   -1    0    0    0    0 -0.00000000000E+00 -0.00000000000E+00 -0.45593999997E+02  0.45594000000E+02  0.51100000000E-03 0.  1.
         23    2    1    2    0    0  0.00000000000E+00 -0.66613381478E-15  0.00000000000E+00  0.91188000000E+02  0.91188000000E+02 0.  0.
    9900012    2    3    3    0    0 -0.33754233678E+02 -0.13118341556E+01  0.14653151275E+02  0.54367027141E+02  0.39999869972E+02 0.  0.
        -12    1    3    3    0    0  0.33754233678E+02  0.13118341556E+01 -0.14653151275E+02  0.36820972859E+02  0.00000000000E+00 0.  1.
         11    1    4    4    0    0 -0.27232237273E+01  0.42917419434E+01  0.17410986494E+02  0.18137735452E+02  0.51100000000E-03 0.  1.
        -11    1    4    4    0    0 -0.25315810913E+02  0.30516797295E+01 -0.38963946056E+01  0.25795056165E+02  0.51100000000E-03 0. -1.
         12    1    4    4    0    0 -0.57151990370E+01 -0.86552558286E+01  0.11385593874E+01  0.10434235524E+02  0.00000000000E+00 0. -1.
</event>
<event>
 8    1  0.1240174E-006  0.9118800E+02  0.7816164E-02  0.1184000E+00
        -11   -1    0    0    0    0  0.00000000000E+00  0.00000000000E+00  0.45593999997E+02  0.45594000000E+02  0.51100000000E-03 0. -1.
         11   -1    0    0    0    0 -0.00000000000E+00 -0.00000000000E+00 -0.45593999997E+02  0.45594000000E+02  0.51100000000E-03 0.  1.
         23    2    1    2    0    0  0.00000000000E+00 -0.22204460493E-14 -0.35527136788E-14  0.91188000000E+02  0.91188000000E+02 0.  0.
    9900012    2    3    3    0    0 -0.20343499669E+02 -0.36724610835E+01  0.30470246377E+02  0.54367070307E+02  0.39999968378E+02 0.  0.
        -12    1    3    3    0    0  0.20343499669E+02  0.36724610835E+01 -0.30470246377E+02  0.36820929693E+02  0.00000000000E+00 0.  1.
         11    1    4    4    0    0 -0.12185437858E+02 -0.19184639357E+02  0.73264299670E+01  0.23879109266E+02  0.51100000000E-03 0. -1.
        -11    1    4    4    0    0  0.15843280697E+01  0.12834031881E+00  0.13277262551E+01  0.20710924508E+01  0.51100000000E-03 0.  1.
         12    1    4    4    0    0 -0.97423898807E+01  0.15383837954E+02  0.21816090155E+02  0.28416868590E+02  0.00000000000E+00 0. -1.
</event>
<event>
 8    1  0.1240174E-006  0.9118800E+02  0.7816164E-02  0.1184000E+00
        -11   -1    0    0    0    0  0.00000000000E+00  0.00000000000E+00  0.45593999997E+02  0.45594000000E+02  0.51100000000E-03 0.  1.
         11   -1    0    0    0    0 -0.00000000000E+00 -0.00000000000E+00 -0.45593999997E+02  0.45594000000E+02  0.51100000000E-03 0. -1.
         23    2    1    2    0    0  0.35527136788E-14  0.00000000000E+00  0.00000000000E+00  0.91188000000E+02  0.91188000000E+02 0.  0.
    9900012    2    3    3    0    0  0.29073376416E+02  0.22060118276E+02 -0.48866344165E+01  0.54366956690E+02  0.39999709364E+02 0.  0.
        -12    1    3    3    0    0 -0.29073376416E+02 -0.22060118276E+02  0.48866344165E+01  0.36821043310E+02  0.00000000000E+00 0.  1.
         11    1    4    4    0    0  0.20529081954E+02  0.26645152598E+01 -0.91244977639E+01  0.22622981836E+02  0.51100000000E-03 0. -1.
        -11    1    4    4    0    0 -0.31155443565E+01  0.18675475382E+01 -0.69955668317E+01  0.78824048363E+01  0.51100000000E-03 0.  1.
        -12    1    4    4    0    0  0.11659838818E+02  0.17528055478E+02  0.11233430179E+02  0.23861570017E+02  0.00000000000E+00 0.  1.
</event>
<event>
 8    1  0.1240174E-006  0.9118800E+02  0.7816164E-02  0.1184000E+00
        -11   -1    0    0    0    0  0.00000000000E+00  0.00000000000E+00  0.45593999997E+02  0.45594000000E+02  0.51100000000E-03 0. -1.
         11   -1    0    0    0    0 -0.00000000000E+00 -0.00000000000E+00 -0.45593999997E+02  0.45594000000E+02  0.51100000000E-03 0.  1.
         23    2    1    2    0    0  0.00000000000E+00  0.35527136788E-14  0.88817841970E-15  0.91188000000E+02  0.91188000000E+02 0.  0.
    9900012    2    3    3    0    0 -0.32540130828E+02 -0.16379345751E+02 -0.53513213775E+01  0.54367085807E+02  0.40000003714E+02 0.  0.
         12    1    3    3    0    0  0.32540130828E+02  0.16379345751E+02  0.53513213775E+01  0.36820914193E+02  0.00000000000E+00 0. -1.
         11    1    4    4    0    0 -0.83131995166E+01  0.52222333376E+01  0.56377076591E+01  0.11320987375E+02  0.51100000000E-03 0. -1.
        -11    1    4    4    0    0 -0.22319373878E+02 -0.52823400520E+01 -0.13207147505E+02  0.26466701952E+02  0.51100000000E-03 0.  1.
         12    1    4    4    0    0 -0.19075574331E+01 -0.16319239037E+02  0.22181184688E+01  0.16579396480E+02  0.00000000000E+00 0. -1.
</event>
<event>
 8    1  0.1240174E-006  0.9118800E+02  0.7816164E-02  0.1184000E+00
        -11   -1    0    0    0    0  0.00000000000E+00  0.00000000000E+00  0.45593999997E+02  0.45594000000E+02  0.51100000000E-03 0.  1.
         11   -1    0    0    0    0 -0.00000000000E+00 -0.00000000000E+00 -0.45593999997E+02  0.45594000000E+02  0.51100000000E-03 0. -1.
         23    2    1    2    0    0 -0.35527136788E-14  0.00000000000E+00  0.88817841970E-15  0.91188000000E+02  0.91188000000E+02 0.  0.
    9900012    2    3    3    0    0 -0.25389326049E+02  0.25859299113E+02  0.65160644264E+01  0.54367077640E+02  0.39999985097E+02 0.  0.
         12    1    3    3    0    0  0.25389326049E+02 -0.25859299113E+02 -0.65160644264E+01  0.36820922360E+02  0.00000000000E+00 0. -1.
         11    1    4    4    0    0 -0.30101869850E+02  0.32094748519E+01  0.12284265151E+01  0.30297398061E+02  0.51100000000E-03 0. -1.
        -11    1    4    4    0    0  0.19068011500E+01  0.48287744045E+01  0.26770934986E+01  0.58412141492E+01  0.51100000000E-03 0.  1.
         12    1    4    4    0    0  0.28057426514E+01  0.17821049856E+02  0.26105444127E+01  0.18228465430E+02  0.00000000000E+00 0. -1.
</event>
<event>
 8    1  0.1240174E-006  0.9118800E+02  0.7816164E-02  0.1184000E+00
        -11   -1    0    0    0    0  0.00000000000E+00  0.00000000000E+00  0.45593999997E+02  0.45594000000E+02  0.51100000000E-03 0.  1.
         11   -1    0    0    0    0 -0.00000000000E+00 -0.00000000000E+00 -0.45593999997E+02  0.45594000000E+02  0.51100000000E-03 0. -1.
         23    2    1    2    0    0  0.88817841970E-15  0.00000000000E+00  0.00000000000E+00  0.91188000000E+02  0.91188000000E+02 0.  0.
    9900012    2    3    3    0    0  0.78616630166E+01 -0.27530918344E+02  0.23152197265E+02  0.54367062364E+02  0.39999950271E+02 0.  0.
         12    1    3    3    0    0 -0.78616630166E+01  0.27530918344E+02 -0.23152197265E+02  0.36820937636E+02  0.00000000000E+00 0. -1.
         11    1    4    4    0    0  0.11273753866E+02  0.21563152311E+01  0.17127869313E+02  0.20618223227E+02  0.51100000000E-03 0. -1.
        -11    1    4    4    0    0 -0.36431368846E+01 -0.21192868596E+02  0.10733513588E+02  0.24033693846E+02  0.51100000000E-03 0.  1.
         12    1    4    4    0    0  0.23104603541E+00 -0.84943649789E+01 -0.47091856355E+01  0.97151452905E+01  0.00000000000E+00 0. -1.
</event>
<event>
 8    1  0.1240174E-006  0.9118800E+02  0.7816164E-02  0.1184000E+00
        -11   -1    0    0    0    0  0.00000000000E+00  0.00000000000E+00  0.45593999997E+02  0.45594000000E+02  0.51100000000E-03 0.  1.
         11   -1    0    0    0    0 -0.00000000000E+00 -0.00000000000E+00 -0.45593999997E+02  0.45594000000E+02  0.51100000000E-03 0. -1.
         23    2    1    2    0    0 -0.35527136788E-14 -0.35527136788E-14  0.35527136788E-14  0.91188000000E+02  0.91188000000E+02 0.  0.
    9900012    2    3    3    0    0  0.26808258359E+02  0.16936301510E+02 -0.18715116934E+02  0.54367127836E+02  0.40000099527E+02 0.  0.
        -12    1    3    3    0    0 -0.26808258359E+02 -0.16936301510E+02  0.18715116934E+02  0.36820872164E+02  0.00000000000E+00 0.  1.
         11    1    4    4    0    0  0.27661125147E+02  0.18693859203E+02 -0.18407256672E+02  0.38123815585E+02  0.51100000000E-03 0. -1.
        -11    1    4    4    0    0  0.40600767735E+01 -0.75940954894E+01 -0.14168520831E+00  0.86124668166E+01  0.51100000000E-03 0.  1.
         12    1    4    4    0    0 -0.49129435613E+01  0.58365377973E+01 -0.16617505278E+00  0.76308454344E+01  0.00000000000E+00 0. -1.
</event>
<event>
 8    1  0.1240174E-006  0.9118800E+02  0.7816164E-02  0.1184000E+00
        -11   -1    0    0    0    0  0.00000000000E+00  0.00000000000E+00  0.45593999997E+02  0.45594000000E+02  0.51100000000E-03 0.  1.
         11   -1    0    0    0    0 -0.00000000000E+00 -0.00000000000E+00 -0.45593999997E+02  0.45594000000E+02  0.51100000000E-03 0. -1.
         23    2    1    2    0    0  0.00000000000E+00 -0.17763568394E-14 -0.35527136788E-14  0.91188000000E+02  0.91188000000E+02 0.  0.
    9900012    2    3    3    0    0 -0.22598881870E+02  0.10207223460E+02 -0.27219177346E+02  0.54367075406E+02  0.39999980004E+02 0.  0.
        -12    1    3    3    0    0  0.22598881870E+02 -0.10207223460E+02  0.27219177346E+02  0.36820924594E+02  0.00000000000E+00 0.  1.
         11    1    4    4    0    0 -0.35663706912E+01  0.55951290503E+01 -0.21647513388E+02  0.22641539372E+02  0.51100000000E-03 0. -1.
        -11    1    4    4    0    0 -0.21383964417E+02  0.10802647059E+02 -0.16164334841E+01  0.24012163067E+02  0.51100000000E-03 0.  1.
        -12    1    4    4    0    0  0.23514532385E+01 -0.61905526490E+01 -0.39552304737E+01  0.77133729673E+01  0.00000000000E+00 0.  1.
</event>
<event>
 8    1  0.1240174E-006  0.9118800E+02  0.7816164E-02  0.1184000E+00
        -11   -1    0    0    0    0  0.00000000000E+00  0.00000000000E+00  0.45593999997E+02  0.45594000000E+02  0.51100000000E-03 0.  1.
         11   -1    0    0    0    0 -0.00000000000E+00 -0.00000000000E+00 -0.45593999997E+02  0.45594000000E+02  0.51100000000E-03 0. -1.
         23    2    1    2    0    0  0.10658141036E-13  0.35527136788E-14  0.35527136788E-14  0.91188000000E+02  0.91188000000E+02 0.  0.
    9900012    2    3    3    0    0  0.20141769165E+02  0.23535528039E+02  0.19903977390E+02  0.54367078486E+02  0.39999987025E+02 0.  0.
         12    1    3    3    0    0 -0.20141769165E+02 -0.23535528039E+02 -0.19903977390E+02  0.36820921514E+02  0.00000000000E+00 0. -1.
         11    1    4    4    0    0  0.76109612701E+01  0.98229582458E+01 -0.10372639964E+02  0.16186688983E+02  0.51100000000E-03 0. -1.
        -11    1    4    4    0    0  0.32343410690E+00  0.39793996864E+01 -0.13552630476E+00  0.39948215387E+01  0.51100000000E-03 0.  1.
        -12    1    4    4    0    0  0.12207373788E+02  0.97331701072E+01  0.30412143659E+02  0.34185567964E+02  0.00000000000E+00 0.  1.
</event>
<event>
 8    1  0.1240174E-006  0.9118800E+02  0.7816164E-02  0.1184000E+00
        -11   -1    0    0    0    0  0.00000000000E+00  0.00000000000E+00  0.45593999997E+02  0.45594000000E+02  0.51100000000E-03 0. -1.
         11   -1    0    0    0    0 -0.00000000000E+00 -0.00000000000E+00 -0.45593999997E+02  0.45594000000E+02  0.51100000000E-03 0.  1.
         23    2    1    2    0    0  0.00000000000E+00  0.00000000000E+00  0.35527136788E-14  0.91188000000E+02  0.91188000000E+02 0.  0.
    9900012    2    3    3    0    0 -0.24161415139E+02  0.19337601795E+02  0.19951507605E+02  0.54367089088E+02  0.40000011193E+02 0.  0.
        -12    1    3    3    0    0  0.24161415139E+02 -0.19337601795E+02 -0.19951507605E+02  0.36820910912E+02  0.00000000000E+00 0.  1.
         11    1    4    4    0    0 -0.94563318015E+01  0.14756413751E+02  0.57193669892E+01  0.18435973447E+02  0.51100000000E-03 0. -1.
        -11    1    4    4    0    0 -0.78183883328E+01 -0.67502058300E+01 -0.58465746634E+01  0.11869073697E+02  0.51100000000E-03 0.  1.
        -12    1    4    4    0    0 -0.68866950047E+01  0.11331393874E+02  0.20078715279E+02  0.24062041943E+02  0.00000000000E+00 0.  1.
</event>
<event>
 8    1  0.1240174E-006  0.9118800E+02  0.7816164E-02  0.1184000E+00
        -11   -1    0    0    0    0  0.00000000000E+00  0.00000000000E+00  0.45593999997E+02  0.45594000000E+02  0.51100000000E-03 0.  1.
         11   -1    0    0    0    0 -0.00000000000E+00 -0.00000000000E+00 -0.45593999997E+02  0.45594000000E+02  0.51100000000E-03 0. -1.
         23    2    1    2    0    0  0.00000000000E+00  0.00000000000E+00  0.00000000000E+00  0.91188000000E+02  0.91188000000E+02 0.  0.
    9900012    2    3    3    0    0  0.24074993406E+02  0.96040062527E+01  0.26152202329E+02  0.54367082980E+02  0.39999997269E+02 0.  0.
         12    1    3    3    0    0 -0.24074993406E+02 -0.96040062527E+01 -0.26152202329E+02  0.36820917020E+02  0.00000000000E+00 0. -1.
         11    1    4    4    0    0  0.15265617705E+01  0.77273571550E+00 -0.61905163873E+01  0.64226166574E+01  0.51100000000E-03 0. -1.
        -11    1    4    4    0    0 -0.50856870635E+01  0.41960865664E+01  0.10577448907E+02  0.12464099688E+02  0.51100000000E-03 0.  1.
        -12    1    4    4    0    0  0.27634118699E+02  0.46351839708E+01  0.21765269809E+02  0.35480366635E+02  0.00000000000E+00 0.  1.
</event>
<event>
 8    1  0.1240174E-006  0.9118800E+02  0.7816164E-02  0.1184000E+00
        -11   -1    0    0    0    0  0.00000000000E+00  0.00000000000E+00  0.45593999997E+02  0.45594000000E+02  0.51100000000E-03 0.  1.
         11   -1    0    0    0    0 -0.00000000000E+00 -0.00000000000E+00 -0.45593999997E+02  0.45594000000E+02  0.51100000000E-03 0. -1.
         23    2    1    2    0    0  0.00000000000E+00 -0.35527136788E-14 -0.35527136788E-14  0.91188000000E+02  0.91188000000E+02 0.  0.
    9900012    2    3    3    0    0 -0.14032649681E+02  0.16341323769E+02  0.29863444531E+02  0.54367089652E+02  0.40000012480E+02 0.  0.
         12    1    3    3    0    0  0.14032649681E+02 -0.16341323769E+02 -0.29863444531E+02  0.36820910348E+02  0.00000000000E+00 0. -1.
         11    1    4    4    0    0 -0.17845857819E+02  0.12879335901E+02 -0.19878559044E+01  0.22097590500E+02  0.51100000000E-03 0. -1.
        -11    1    4    4    0    0  0.27698940390E+01  0.22837271652E+01  0.20993162382E+02  0.21297901066E+02  0.51100000000E-03 0.  1.
         12    1    4    4    0    0  0.10433140988E+01  0.11782607026E+01  0.10858138053E+02  0.10971598087E+02  0.00000000000E+00 0. -1.
</event>
<event>
 8    1  0.1240174E-006  0.9118800E+02  0.7816164E-02  0.1184000E+00
        -11   -1    0    0    0    0  0.00000000000E+00  0.00000000000E+00  0.45593999997E+02  0.45594000000E+02  0.51100000000E-03 0.  1.
         11   -1    0    0    0    0 -0.00000000000E+00 -0.00000000000E+00 -0.45593999997E+02  0.45594000000E+02  0.51100000000E-03 0. -1.
         23    2    1    2    0    0  0.00000000000E+00 -0.17763568394E-14  0.00000000000E+00  0.91188000000E+02  0.91188000000E+02 0.  0.
    9900012    2    3    3    0    0 -0.86741788442E+01  0.10346121690E+02 -0.34256340008E+02  0.54367076011E+02  0.39999981383E+02 0.  0.
        -12    1    3    3    0    0  0.86741788442E+01 -0.10346121690E+02  0.34256340008E+02  0.36820923989E+02  0.00000000000E+00 0.  1.
         11    1    4    4    0    0  0.25473899053E+01  0.26607984907E+01 -0.23586126870E+02  0.23872042747E+02  0.51100000000E-03 0. -1.
        -11    1    4    4    0    0  0.41581575697E+01 -0.48004304413E+01 -0.84363119391E+01  0.10559629075E+02  0.51100000000E-03 0.  1.
        -12    1    4    4    0    0 -0.15379726319E+02  0.12485753641E+02 -0.22339011987E+01  0.19935404190E+02  0.00000000000E+00 0.  1.
</event>
<event>
 8    1  0.1240174E-006  0.9118800E+02  0.7816164E-02  0.1184000E+00
        -11   -1    0    0    0    0  0.00000000000E+00  0.00000000000E+00  0.45593999997E+02  0.45594000000E+02  0.51100000000E-03 0. -1.
         11   -1    0    0    0    0 -0.00000000000E+00 -0.00000000000E+00 -0.45593999997E+02  0.45594000000E+02  0.51100000000E-03 0.  1.
         23    2    1    2    0    0  0.35527136788E-14 -0.22204460493E-15 -0.71054273576E-14  0.91188000000E+02  0.91188000000E+02 0.  0.
    9900012    2    3    3    0    0 -0.17338836127E+02 -0.12704756022E+01 -0.32458121447E+02  0.54367095688E+02  0.40000026241E+02 0.  0.
         12    1    3    3    0    0  0.17338836127E+02  0.12704756022E+01  0.32458121447E+02  0.36820904312E+02  0.00000000000E+00 0. -1.
         11    1    4    4    0    0 -0.25784601439E+01 -0.71543052278E+01  0.21048350151E+01  0.78906825248E+01  0.51100000000E-03 0. -1.
        -11    1    4    4    0    0 -0.21174414283E+02 -0.11451462383E+01 -0.20483002953E+02  0.29482547217E+02  0.51100000000E-03 0.  1.
         12    1    4    4    0    0  0.64140383007E+01  0.70289758638E+01 -0.14079953508E+02  0.16993865947E+02  0.00000000000E+00 0. -1.
</event>
<event>
 8    1  0.1240174E-006  0.9118800E+02  0.7816164E-02  0.1184000E+00
        -11   -1    0    0    0    0  0.00000000000E+00  0.00000000000E+00  0.45593999997E+02  0.45594000000E+02  0.51100000000E-03 0. -1.
         11   -1    0    0    0    0 -0.00000000000E+00 -0.00000000000E+00 -0.45593999997E+02  0.45594000000E+02  0.51100000000E-03 0.  1.
         23    2    1    2    0    0  0.88817841970E-15  0.00000000000E+00 -0.71054273576E-14  0.91188000000E+02  0.91188000000E+02 0.  0.
    9900012    2    3    3    0    0  0.75148646842E+01  0.49177081811E+01 -0.35708883570E+02  0.54367062875E+02  0.39999951436E+02 0.  0.
         12    1    3    3    0    0 -0.75148646842E+01 -0.49177081811E+01  0.35708883570E+02  0.36820937125E+02  0.00000000000E+00 0. -1.
         11    1    4    4    0    0 -0.10139600876E+01 -0.59599882460E+01 -0.55450910386E+01  0.82035120430E+01  0.51100000000E-03 0. -1.
        -11    1    4    4    0    0  0.20126612032E+02  0.59442665374E+01 -0.24741630009E+02  0.32443228451E+02  0.51100000000E-03 0.  1.
         12    1    4    4    0    0 -0.11597787260E+02  0.49334298897E+01 -0.54221625221E+01  0.13720322381E+02  0.00000000000E+00 0. -1.
</event>
<event>
 8    1  0.1240174E-006  0.9118800E+02  0.7816164E-02  0.1184000E+00
        -11   -1    0    0    0    0  0.00000000000E+00  0.00000000000E+00  0.45593999997E+02  0.45594000000E+02  0.51100000000E-03 0. -1.
         11   -1    0    0    0    0 -0.00000000000E+00 -0.00000000000E+00 -0.45593999997E+02  0.45594000000E+02  0.51100000000E-03 0.  1.
         23    2    1    2    0    0 -0.17763568394E-14 -0.44408920985E-15  0.71054273576E-14  0.91188000000E+02  0.91188000000E+02 0.  0.
    9900012    2    3    3    0    0 -0.12227586756E+02  0.25202782741E+01  0.34639709786E+02  0.54367147558E+02  0.40000144488E+02 0.  0.
        -12    1    3    3    0    0  0.12227586756E+02 -0.25202782741E+01 -0.34639709786E+02  0.36820852442E+02  0.00000000000E+00 0.  1.
         11    1    4    4    0    0 -0.19655731698E+02 -0.45554058519E+01  0.26413985082E+02  0.33238503565E+02  0.51100000000E-03 0. -1.
        -11    1    4    4    0    0 -0.94080192538E+00  0.88800259911E+01 -0.44861089576E+00  0.89409855085E+01  0.51100000000E-03 0.  1.
         12    1    4    4    0    0  0.83689468674E+01 -0.18043418652E+01  0.86743356003E+01  0.12187658485E+02  0.00000000000E+00 0. -1.
</event>
<event>
 8    1  0.1240174E-006  0.9118800E+02  0.7816164E-02  0.1184000E+00
        -11   -1    0    0    0    0  0.00000000000E+00  0.00000000000E+00  0.45593999997E+02  0.45594000000E+02  0.51100000000E-03 0. -1.
         11   -1    0    0    0    0 -0.00000000000E+00 -0.00000000000E+00 -0.45593999997E+02  0.45594000000E+02  0.51100000000E-03 0.  1.
         23    2    1    2    0    0  0.35527136788E-14 -0.44408920985E-15  0.00000000000E+00  0.91188000000E+02  0.91188000000E+02 0.  0.
    9900012    2    3    3    0    0 -0.22942351994E+02 -0.14660904852E+01  0.28762491174E+02  0.54367057116E+02  0.39999938308E+02 0.  0.
        -12    1    3    3    0    0  0.22942351994E+02  0.14660904852E+01 -0.28762491174E+02  0.36820942884E+02  0.00000000000E+00 0.  1.
         11    1    4    4    0    0  0.39369942512E+01 -0.22748706210E+01 -0.90260075480E+00  0.46356928780E+01  0.51100000000E-03 0. -1.
        -11    1    4    4    0    0 -0.19306395895E+02 -0.67693680325E+00  0.24907036106E+00  0.19319865481E+02  0.51100000000E-03 0.  1.
         12    1    4    4    0    0 -0.75729503500E+01  0.14857169390E+01  0.29416021567E+02  0.30411498758E+02  0.00000000000E+00 0. -1.
</event>
<event>
 8    1  0.1240174E-006  0.9118800E+02  0.7816164E-02  0.1184000E+00
        -11   -1    0    0    0    0  0.00000000000E+00  0.00000000000E+00  0.45593999997E+02  0.45594000000E+02  0.51100000000E-03 0.  1.
         11   -1    0    0    0    0 -0.00000000000E+00 -0.00000000000E+00 -0.45593999997E+02  0.45594000000E+02  0.51100000000E-03 0. -1.
         23    2    1    2    0    0  0.00000000000E+00 -0.71054273576E-14  0.00000000000E+00  0.91188000000E+02  0.91188000000E+02 0.  0.
    9900012    2    3    3    0    0  0.14061231605E+02  0.26401402671E+02 -0.21471965211E+02  0.54366843211E+02  0.39999450665E+02 0.  0.
        -12    1    3    3    0    0 -0.14061231605E+02 -0.26401402671E+02  0.21471965211E+02  0.36821156789E+02  0.00000000000E+00 0.  1.
         11    1    4    4    0    0  0.80009831222E+01  0.13920450826E+01  0.10369251266E+01  0.81871078173E+01  0.51100000000E-03 0. -1.
        -11    1    4    4    0    0 -0.54897132785E+01 -0.44267931469E+01  0.50546288849E+00  0.70702858809E+01  0.51100000000E-03 0.  1.
         12    1    4    4    0    0  0.11549961761E+02  0.29436150735E+02 -0.23014353226E+02  0.39109449513E+02  0.00000000000E+00 0. -1.
</event>
<event>
 8    1  0.1240174E-006  0.9118800E+02  0.7816164E-02  0.1184000E+00
        -11   -1    0    0    0    0  0.00000000000E+00  0.00000000000E+00  0.45593999997E+02  0.45594000000E+02  0.51100000000E-03 0.  1.
         11   -1    0    0    0    0 -0.00000000000E+00 -0.00000000000E+00 -0.45593999997E+02  0.45594000000E+02  0.51100000000E-03 0. -1.
         23    2    1    2    0    0 -0.22204460493E-15  0.17763568394E-14 -0.71054273576E-14  0.91188000000E+02  0.91188000000E+02 0.  0.
    9900012    2    3    3    0    0 -0.53564480513E+00  0.13123243710E+02 -0.34398754871E+02  0.54367071474E+02  0.39999971039E+02 0.  0.
        -12    1    3    3    0    0  0.53564480513E+00 -0.13123243710E+02  0.34398754871E+02  0.36820928526E+02  0.00000000000E+00 0.  1.
         11    1    4    4    0    0 -0.70699995321E+01 -0.13548447251E+01 -0.20565295168E+01  0.74866422065E+01  0.51100000000E-03 0. -1.
        -11    1    4    4    0    0  0.90179115659E+01  0.36245348994E+00  0.23653433863E+01  0.93300027405E+01  0.51100000000E-03 0.  1.
         12    1    4    4    0    0 -0.24835568388E+01  0.14115634945E+02 -0.34707568741E+02  0.37550426527E+02  0.00000000000E+00 0. -1.
</event>
<event>
 8    1  0.1240174E-006  0.9118800E+02  0.7816164E-02  0.1184000E+00
        -11   -1    0    0    0    0  0.00000000000E+00  0.00000000000E+00  0.45593999997E+02  0.45594000000E+02  0.51100000000E-03 0. -1.
         11   -1    0    0    0    0 -0.00000000000E+00 -0.00000000000E+00 -0.45593999997E+02  0.45594000000E+02  0.51100000000E-03 0.  1.
         23    2    1    2    0    0  0.00000000000E+00  0.00000000000E+00  0.00000000000E+00  0.91188000000E+02  0.91188000000E+02 0.  0.
    9900012    2    3    3    0    0 -0.26648765555E+02 -0.17831035244E+02 -0.18101862382E+02  0.54367082776E+02  0.39999996805E+02 0.  0.
         12    1    3    3    0    0  0.26648765555E+02  0.17831035244E+02  0.18101862382E+02  0.36820917224E+02  0.00000000000E+00 0. -1.
         11    1    4    4    0    0 -0.14262596676E+02 -0.43042602201E+01  0.35867657151E+01  0.15323616040E+02  0.51100000000E-03 0. -1.
        -11    1    4    4    0    0 -0.15806349909E+02  0.25120613188E+01 -0.11910032629E+02  0.19949938020E+02  0.51100000000E-03 0.  1.
         12    1    4    4    0    0  0.34201810294E+01 -0.16038836343E+02 -0.97785954686E+01  0.19093528717E+02  0.00000000000E+00 0. -1.
</event>
<event>
 8    1  0.1240174E-006  0.9118800E+02  0.7816164E-02  0.1184000E+00
        -11   -1    0    0    0    0  0.00000000000E+00  0.00000000000E+00  0.45593999997E+02  0.45594000000E+02  0.51100000000E-03 0. -1.
         11   -1    0    0    0    0 -0.00000000000E+00 -0.00000000000E+00 -0.45593999997E+02  0.45594000000E+02  0.51100000000E-03 0.  1.
         23    2    1    2    0    0  0.00000000000E+00  0.00000000000E+00  0.00000000000E+00  0.91188000000E+02  0.91188000000E+02 0.  0.
    9900012    2    3    3    0    0 -0.64311222758E+01  0.14295698291E+02  0.33317475976E+02  0.54367074852E+02  0.39999978740E+02 0.  0.
        -12    1    3    3    0    0  0.64311222758E+01 -0.14295698291E+02 -0.33317475976E+02  0.36820925148E+02  0.00000000000E+00 0.  1.
         11    1    4    4    0    0  0.55827515078E+01  0.12564291306E+02  0.30282158248E+02  0.33257144178E+02  0.51100000000E-03 0. -1.
        -11    1    4    4    0    0 -0.67409195000E+01  0.79470118041E+01  0.64687317771E+01  0.12265377425E+02  0.51100000000E-03 0.  1.
        -12    1    4    4    0    0 -0.52729542835E+01 -0.62156048191E+01 -0.34334140494E+01  0.88445532492E+01  0.00000000000E+00 0.  1.
</event>
<event>
 8    1  0.1240174E-006  0.9118800E+02  0.7816164E-02  0.1184000E+00
        -11   -1    0    0    0    0  0.00000000000E+00  0.00000000000E+00  0.45593999997E+02  0.45594000000E+02  0.51100000000E-03 0.  1.
         11   -1    0    0    0    0 -0.00000000000E+00 -0.00000000000E+00 -0.45593999997E+02  0.45594000000E+02  0.51100000000E-03 0. -1.
         23    2    1    2    0    0 -0.35527136788E-14  0.00000000000E+00  0.00000000000E+00  0.91188000000E+02  0.91188000000E+02 0.  0.
    9900012    2    3    3    0    0  0.28189590895E+02 -0.21724960276E+02  0.94420068031E+01  0.54367103402E+02  0.40000043825E+02 0.  0.
         12    1    3    3    0    0 -0.28189590895E+02  0.21724960276E+02 -0.94420068031E+01  0.36820896598E+02  0.00000000000E+00 0. -1.
         11    1    4    4    0    0  0.45385694712E+01 -0.71968671600E+01  0.10304075799E+02  0.13362914655E+02  0.51100000000E-03 0. -1.
        -11    1    4    4    0    0 -0.50681126195E+01 -0.10393078905E+02  0.23895277403E+01  0.11807273086E+02  0.51100000000E-03 0.  1.
        -12    1    4    4    0    0  0.28719134044E+02 -0.41350142108E+01 -0.32515967357E+01  0.29196915660E+02  0.00000000000E+00 0.  1.
</event>
<event>
 8    1  0.1240174E-006  0.9118800E+02  0.7816164E-02  0.1184000E+00
        -11   -1    0    0    0    0  0.00000000000E+00  0.00000000000E+00  0.45593999997E+02  0.45594000000E+02  0.51100000000E-03 0.  1.
         11   -1    0    0    0    0 -0.00000000000E+00 -0.00000000000E+00 -0.45593999997E+02  0.45594000000E+02  0.51100000000E-03 0. -1.
         23    2    1    2    0    0  0.00000000000E+00  0.00000000000E+00  0.35527136788E-14  0.91188000000E+02  0.91188000000E+02 0.  0.
    9900012    2    3    3    0    0  0.17357487437E+02 -0.86813944152E+01  0.31291025512E+02  0.54367119284E+02  0.40000080032E+02 0.  0.
         12    1    3    3    0    0 -0.17357487437E+02  0.86813944152E+01 -0.31291025512E+02  0.36820880716E+02  0.00000000000E+00 0. -1.
         11    1    4    4    0    0  0.10935690283E+01 -0.31290173219E+01  0.32713173907E+00  0.33307143462E+01  0.51100000000E-03 0.  1.
        -11    1    4    4    0    0  0.15860370064E+02 -0.20213518808E+02  0.17169544763E+02  0.30901957038E+02  0.51100000000E-03 0. -1.
         12    1    4    4    0    0  0.40354834433E+00  0.14661141714E+02  0.13794349009E+02  0.20134447900E+02  0.00000000000E+00 0. -1.
</event>
<event>
 8    1  0.1240174E-006  0.9118800E+02  0.7816164E-02  0.1184000E+00
        -11   -1    0    0    0    0  0.00000000000E+00  0.00000000000E+00  0.45593999997E+02  0.45594000000E+02  0.51100000000E-03 0. -1.
         11   -1    0    0    0    0 -0.00000000000E+00 -0.00000000000E+00 -0.45593999997E+02  0.45594000000E+02  0.51100000000E-03 0.  1.
         23    2    1    2    0    0 -0.35527136788E-14 -0.88817841970E-15  0.00000000000E+00  0.91188000000E+02  0.91188000000E+02 0.  0.
    9900012    2    3    3    0    0  0.30571691269E+02 -0.50609399453E+01  0.19888163619E+02  0.54367075619E+02  0.39999980488E+02 0.  0.
        -12    1    3    3    0    0 -0.30571691269E+02  0.50609399453E+01 -0.19888163619E+02  0.36820924381E+02  0.00000000000E+00 0.  1.
         11    1    4    4    0    0  0.13269897903E+02  0.89171739532E+01  0.12346702796E+02  0.20200179501E+02  0.51100000000E-03 0. -1.
        -11    1    4    4    0    0  0.14457310199E+02 -0.13003647814E+02 -0.59574633688E+01  0.20337159209E+02  0.51100000000E-03 0.  1.
        -12    1    4    4    0    0  0.28444831670E+01 -0.97446608494E+00  0.13498924191E+02  0.13829736908E+02  0.00000000000E+00 0.  1.
</event>
<event>
 8    1  0.1240174E-006  0.9118800E+02  0.7816164E-02  0.1184000E+00
        -11   -1    0    0    0    0  0.00000000000E+00  0.00000000000E+00  0.45593999997E+02  0.45594000000E+02  0.51100000000E-03 0. -1.
         11   -1    0    0    0    0 -0.00000000000E+00 -0.00000000000E+00 -0.45593999997E+02  0.45594000000E+02  0.51100000000E-03 0.  1.
         23    2    1    2    0    0  0.71054273576E-14  0.13322676296E-14 -0.44408920985E-15  0.91188000000E+02  0.91188000000E+02 0.  0.
    9900012    2    3    3    0    0 -0.36648228317E+02  0.11699561103E+00 -0.35600211526E+01  0.54367080982E+02  0.39999992714E+02 0.  0.
         12    1    3    3    0    0  0.36648228317E+02 -0.11699561103E+00  0.35600211526E+01  0.36820919018E+02  0.00000000000E+00 0. -1.
         11    1    4    4    0    0  0.53815366469E+01  0.25080155156E+01 -0.54449107343E+01  0.80559376657E+01  0.51100000000E-03 0. -1.
        -11    1    4    4    0    0 -0.20237541966E+02 -0.10669544706E+02  0.23215171778E+01  0.22995363257E+02  0.51100000000E-03 0.  1.
        -12    1    4    4    0    0 -0.21792222998E+02  0.82785248018E+01 -0.43662759602E+00  0.23315780058E+02  0.00000000000E+00 0.  1.
</event>
<event>
 8    1  0.1240174E-006  0.9118800E+02  0.7816164E-02  0.1184000E+00
        -11   -1    0    0    0    0  0.00000000000E+00  0.00000000000E+00  0.45593999997E+02  0.45594000000E+02  0.51100000000E-03 0.  1.
         11   -1    0    0    0    0 -0.00000000000E+00 -0.00000000000E+00 -0.45593999997E+02  0.45594000000E+02  0.51100000000E-03 0. -1.
         23    2    1    2    0    0  0.35527136788E-14  0.17763568394E-14  0.35527136788E-14  0.91188000000E+02  0.91188000000E+02 0.  0.
    9900012    2    3    3    0    0 -0.28895124513E+02 -0.10581417597E+02 -0.20220907843E+02  0.54367085658E+02  0.40000003373E+02 0.  0.
         12    1    3    3    0    0  0.28895124513E+02  0.10581417597E+02  0.20220907843E+02  0.36820914342E+02  0.00000000000E+00 0. -1.
         11    1    4    4    0    0 -0.15439852843E+02 -0.55718241776E+01 -0.70321560919E+01  0.17857365429E+02  0.51100000000E-03 0. -1.
        -11    1    4    4    0    0 -0.17571975230E+02 -0.14925484997E+02 -0.68935975812E+01  0.24063792381E+02  0.51100000000E-03 0.  1.
         12    1    4    4    0    0  0.41167035603E+01  0.99158915770E+01 -0.62951541701E+01  0.12445927848E+02  0.00000000000E+00 0. -1.
</event>
<event>
 8    1  0.1240174E-006  0.9118800E+02  0.7816164E-02  0.1184000E+00
        -11   -1    0    0    0    0  0.00000000000E+00  0.00000000000E+00  0.45593999997E+02  0.45594000000E+02  0.51100000000E-03 0.  1.
         11   -1    0    0    0    0 -0.00000000000E+00 -0.00000000000E+00 -0.45593999997E+02  0.45594000000E+02  0.51100000000E-03 0. -1.
         23    2    1    2    0    0  0.00000000000E+00 -0.17763568394E-14  0.00000000000E+00  0.91188000000E+02  0.91188000000E+02 0.  0.
    9900012    2    3    3    0    0  0.19847503797E+01 -0.58177468578E+01  0.36304208293E+02  0.54367069100E+02  0.39999965628E+02 0.  0.
         12    1    3    3    0    0 -0.19847503797E+01  0.58177468578E+01 -0.36304208293E+02  0.36820930900E+02  0.00000000000E+00 0. -1.
         11    1    4    4    0    0 -0.37507207230E+00 -0.12506941857E+02  0.36857789345E+01  0.13044126658E+02  0.51100000000E-03 0. -1.
        -11    1    4    4    0    0  0.80566088403E+01 -0.44231728921E+01  0.38567101483E+01  0.99673275188E+01  0.51100000000E-03 0.  1.
         12    1    4    4    0    0 -0.56967863882E+01  0.11112367891E+02  0.28761719210E+02  0.31355614923E+02  0.00000000000E+00 0. -1.
</event>
<event>
 8    1  0.1240174E-006  0.9118800E+02  0.7816164E-02  0.1184000E+00
        -11   -1    0    0    0    0  0.00000000000E+00  0.00000000000E+00  0.45593999997E+02  0.45594000000E+02  0.51100000000E-03 0. -1.
         11   -1    0    0    0    0 -0.00000000000E+00 -0.00000000000E+00 -0.45593999997E+02  0.45594000000E+02  0.51100000000E-03 0.  1.
         23    2    1    2    0    0 -0.17763568394E-14  0.00000000000E+00  0.00000000000E+00  0.91188000000E+02  0.91188000000E+02 0.  0.
    9900012    2    3    3    0    0  0.15601908758E+02 -0.13829192374E+02  0.30349831742E+02  0.54367103686E+02  0.40000044472E+02 0.  0.
        -12    1    3    3    0    0 -0.15601908758E+02  0.13829192374E+02 -0.30349831742E+02  0.36820896314E+02  0.00000000000E+00 0.  1.
         11    1    4    4    0    0  0.58253881399E+01 -0.14936022573E+02  0.35827331717E+02  0.39250702102E+02  0.51100000000E-03 0.  1.
        -11    1    4    4    0    0  0.89161511134E+01 -0.33404301134E+01 -0.42253326684E+01  0.10416797034E+02  0.51100000000E-03 0. -1.
        -12    1    4    4    0    0  0.86036950504E+00  0.44472603117E+01 -0.12521673066E+01  0.46996045503E+01  0.00000000000E+00 0.  1.
</event>
<event>
 8    1  0.1240174E-006  0.9118800E+02  0.7816164E-02  0.1184000E+00
        -11   -1    0    0    0    0  0.00000000000E+00  0.00000000000E+00  0.45593999997E+02  0.45594000000E+02  0.51100000000E-03 0. -1.
         11   -1    0    0    0    0 -0.00000000000E+00 -0.00000000000E+00 -0.45593999997E+02  0.45594000000E+02  0.51100000000E-03 0.  1.
         23    2    1    2    0    0  0.00000000000E+00 -0.35527136788E-14  0.35527136788E-14  0.91188000000E+02  0.91188000000E+02 0.  0.
    9900012    2    3    3    0    0  0.26071471850E+02  0.19212510883E+02 -0.17519739324E+02  0.54367034711E+02  0.39999887231E+02 0.  0.
        -12    1    3    3    0    0 -0.26071471850E+02 -0.19212510883E+02  0.17519739324E+02  0.36820965289E+02  0.00000000000E+00 0.  1.
         11    1    4    4    0    0  0.61030165673E+01 -0.56129548453E+01 -0.88544984827E+00  0.83388305542E+01  0.51100000000E-03 0. -1.
        -11    1    4    4    0    0 -0.27140703950E+01 -0.48196860076E+01 -0.13559741015E+01  0.56951046826E+01  0.51100000000E-03 0.  1.
         12    1    4    4    0    0  0.22682525678E+02  0.29645151735E+02 -0.15278315374E+02  0.40333099474E+02  0.00000000000E+00 0. -1.
</event>
<event>
 8    1  0.1240174E-006  0.9118800E+02  0.7816164E-02  0.1184000E+00
        -11   -1    0    0    0    0  0.00000000000E+00  0.00000000000E+00  0.45593999997E+02  0.45594000000E+02  0.51100000000E-03 0. -1.
         11   -1    0    0    0    0 -0.00000000000E+00 -0.00000000000E+00 -0.45593999997E+02  0.45594000000E+02  0.51100000000E-03 0.  1.
         23    2    1    2    0    0 -0.35527136788E-14  0.35527136788E-14  0.17763568394E-14  0.91188000000E+02  0.91188000000E+02 0.  0.
    9900012    2    3    3    0    0 -0.29256891924E+02  0.19728522464E+02 -0.10516629858E+02  0.54367084378E+02  0.40000000456E+02 0.  0.
        -12    1    3    3    0    0  0.29256891924E+02 -0.19728522464E+02  0.10516629858E+02  0.36820915622E+02  0.00000000000E+00 0.  1.
         11    1    4    4    0    0 -0.21652129459E+02  0.88646911742E+01 -0.47063688265E+01  0.23865191546E+02  0.51100000000E-03 0. -1.
        -11    1    4    4    0    0 -0.98032048306E+01 -0.42477389539E+00  0.79067271529E+01  0.12601571027E+02  0.51100000000E-03 0.  1.
         12    1    4    4    0    0  0.21984423656E+01  0.11288605185E+02 -0.13716988185E+02  0.17900321805E+02  0.00000000000E+00 0. -1.
</event>
<event>
 8    1  0.1240174E-006  0.9118800E+02  0.7816164E-02  0.1184000E+00
        -11   -1    0    0    0    0  0.00000000000E+00  0.00000000000E+00  0.45593999997E+02  0.45594000000E+02  0.51100000000E-03 0.  1.
         11   -1    0    0    0    0 -0.00000000000E+00 -0.00000000000E+00 -0.45593999997E+02  0.45594000000E+02  0.51100000000E-03 0. -1.
         23    2    1    2    0    0  0.35527136788E-14  0.35527136788E-14  0.88817841970E-15  0.91188000000E+02  0.91188000000E+02 0.  0.
    9900012    2    3    3    0    0 -0.20307880889E+02 -0.30238211313E+02  0.53870452449E+01  0.54367086024E+02  0.40000004208E+02 0.  0.
        -12    1    3    3    0    0  0.20307880889E+02  0.30238211313E+02 -0.53870452449E+01  0.36820913976E+02  0.00000000000E+00 0.  1.
         11    1    4    4    0    0 -0.23670310713E+01 -0.80283471130E+01 -0.42511499085E+01  0.93877297184E+01  0.51100000000E-03 0. -1.
        -11    1    4    4    0    0 -0.26297150634E+02 -0.17046248829E+02  0.13885925256E+02  0.34277305190E+02  0.51100000000E-03 0.  1.
        -12    1    4    4    0    0  0.83563008168E+01 -0.51636153707E+01 -0.42477301030E+01  0.10702051115E+02  0.00000000000E+00 0.  1.
</event>
<event>
 8    1  0.1240174E-006  0.9118800E+02  0.7816164E-02  0.1184000E+00
        -11   -1    0    0    0    0  0.00000000000E+00  0.00000000000E+00  0.45593999997E+02  0.45594000000E+02  0.51100000000E-03 0. -1.
         11   -1    0    0    0    0 -0.00000000000E+00 -0.00000000000E+00 -0.45593999997E+02  0.45594000000E+02  0.51100000000E-03 0.  1.
         23    2    1    2    0    0  0.88817841970E-15  0.17763568394E-14 -0.71054273576E-14  0.91188000000E+02  0.91188000000E+02 0.  0.
    9900012    2    3    3    0    0 -0.59314400898E+01 -0.12090501927E+02  0.34269790960E+02  0.54367071294E+02  0.39999970628E+02 0.  0.
        -12    1    3    3    0    0  0.59314400898E+01  0.12090501927E+02 -0.34269790960E+02  0.36820928706E+02  0.00000000000E+00 0.  1.
         11    1    4    4    0    0  0.14697697433E+02  0.28812231686E+01  0.87180257832E+01  0.17329966261E+02  0.51100000000E-03 0. -1.
        -11    1    4    4    0    0 -0.19345436799E+02 -0.13269854131E+02  0.19128566302E+02  0.30269407041E+02  0.51100000000E-03 0.  1.
         12    1    4    4    0    0 -0.12837007236E+01 -0.17018709648E+01  0.64231988748E+01  0.67676979922E+01  0.00000000000E+00 0. -1.
</event>
<event>
 8    1  0.1240174E-006  0.9118800E+02  0.7816164E-02  0.1184000E+00
        -11   -1    0    0    0    0  0.00000000000E+00  0.00000000000E+00  0.45593999997E+02  0.45594000000E+02  0.51100000000E-03 0. -1.
         11   -1    0    0    0    0 -0.00000000000E+00 -0.00000000000E+00 -0.45593999997E+02  0.45594000000E+02  0.51100000000E-03 0.  1.
         23    2    1    2    0    0  0.44408920985E-15  0.00000000000E+00  0.00000000000E+00  0.91188000000E+02  0.91188000000E+02 0.  0.
    9900012    2    3    3    0    0 -0.14956053351E+01  0.32779767076E+02  0.16704192405E+02  0.54367081913E+02  0.39999994837E+02 0.  0.
        -12    1    3    3    0    0  0.14956053351E+01 -0.32779767076E+02 -0.16704192405E+02  0.36820918087E+02  0.00000000000E+00 0.  1.
         11    1    4    4    0    0 -0.15450914015E+01 -0.25357812713E+01  0.22984694619E+01  0.37550574195E+01  0.51100000000E-03 0. -1.
        -11    1    4    4    0    0 -0.87558383515E+01  0.12844698615E+02 -0.81728074196E+01  0.17562624210E+02  0.51100000000E-03 0.  1.
         12    1    4    4    0    0  0.88053244180E+01  0.22470849732E+02  0.22578530363E+02  0.33049400284E+02  0.00000000000E+00 0. -1.
</event>
<event>
 8    1  0.1240174E-006  0.9118800E+02  0.7816164E-02  0.1184000E+00
        -11   -1    0    0    0    0  0.00000000000E+00  0.00000000000E+00  0.45593999997E+02  0.45594000000E+02  0.51100000000E-03 0. -1.
         11   -1    0    0    0    0 -0.00000000000E+00 -0.00000000000E+00 -0.45593999997E+02  0.45594000000E+02  0.51100000000E-03 0.  1.
         23    2    1    2    0    0  0.00000000000E+00 -0.35527136788E-14 -0.17763568394E-14  0.91188000000E+02  0.91188000000E+02 0.  0.
    9900012    2    3    3    0    0 -0.17555413336E+02  0.29096194868E+02  0.14177384766E+02  0.54367091103E+02  0.40000015788E+02 0.  0.
        -12    1    3    3    0    0  0.17555413336E+02 -0.29096194868E+02 -0.14177384766E+02  0.36820908897E+02  0.00000000000E+00 0.  1.
         11    1    4    4    0    0 -0.22589562554E+02  0.29801546311E+02  0.94320101267E+01  0.38566608798E+02  0.51100000000E-03 0.  1.
        -11    1    4    4    0    0 -0.16457635071E+01 -0.47702601985E+00  0.81299581438E+01  0.83085685305E+01  0.51100000000E-03 0. -1.
        -12    1    4    4    0    0  0.66799127245E+01 -0.22832542349E+00 -0.33845835043E+01  0.74919137745E+01  0.00000000000E+00 0.  1.
</event>
<event>
 8    1  0.1240174E-006  0.9118800E+02  0.7816164E-02  0.1184000E+00
        -11   -1    0    0    0    0  0.00000000000E+00  0.00000000000E+00  0.45593999997E+02  0.45594000000E+02  0.51100000000E-03 0.  1.
         11   -1    0    0    0    0 -0.00000000000E+00 -0.00000000000E+00 -0.45593999997E+02  0.45594000000E+02  0.51100000000E-03 0. -1.
         23    2    1    2    0    0  0.00000000000E+00  0.44408920985E-14  0.00000000000E+00  0.91188000000E+02  0.91188000000E+02 0.  0.
    9900012    2    3    3    0    0 -0.29333413754E+02  0.38202038584E+01 -0.21925705417E+02  0.54367086404E+02  0.40000005075E+02 0.  0.
        -12    1    3    3    0    0  0.29333413754E+02 -0.38202038584E+01  0.21925705417E+02  0.36820913596E+02  0.00000000000E+00 0.  1.
         11    1    4    4    0    0 -0.61632304981E+01 -0.14951605989E+02 -0.12681054365E+02  0.20551035786E+02  0.51100000000E-03 0. -1.
        -11    1    4    4    0    0 -0.36920572177E+01  0.10789924526E+02 -0.43404874131E+01  0.12202196074E+02  0.51100000000E-03 0.  1.
         12    1    4    4    0    0 -0.19478126038E+02  0.79818853215E+01 -0.49041636391E+01  0.21613854544E+02  0.00000000000E+00 0. -1.
</event>
<event>
 8    1  0.1240174E-006  0.9118800E+02  0.7816164E-02  0.1184000E+00
        -11   -1    0    0    0    0  0.00000000000E+00  0.00000000000E+00  0.45593999997E+02  0.45594000000E+02  0.51100000000E-03 0.  1.
         11   -1    0    0    0    0 -0.00000000000E+00 -0.00000000000E+00 -0.45593999997E+02  0.45594000000E+02  0.51100000000E-03 0. -1.
         23    2    1    2    0    0 -0.35527136788E-14  0.00000000000E+00  0.00000000000E+00  0.91188000000E+02  0.91188000000E+02 0.  0.
    9900012    2    3    3    0    0 -0.19901481970E+02 -0.28405794661E+02 -0.12362112690E+02  0.54367082235E+02  0.39999995570E+02 0.  0.
        -12    1    3    3    0    0  0.19901481970E+02  0.28405794661E+02  0.12362112690E+02  0.36820917765E+02  0.00000000000E+00 0.  1.
         11    1    4    4    0    0 -0.20673309567E+01 -0.11941295723E+02  0.18036625602E+01  0.12252411996E+02  0.51100000000E-03 0. -1.
        -11    1    4    4    0    0 -0.92641300804E+01 -0.19534561678E+02  0.38213850499E+01  0.21955094854E+02  0.51100000000E-03 0.  1.
        -12    1    4    4    0    0 -0.85700209324E+01  0.30700627400E+01 -0.17987160300E+02  0.20159575384E+02  0.00000000000E+00 0.  1.
</event>
<event>
 8    1  0.1240174E-006  0.9118800E+02  0.7816164E-02  0.1184000E+00
        -11   -1    0    0    0    0  0.00000000000E+00  0.00000000000E+00  0.45593999997E+02  0.45594000000E+02  0.51100000000E-03 0.  1.
         11   -1    0    0    0    0 -0.00000000000E+00 -0.00000000000E+00 -0.45593999997E+02  0.45594000000E+02  0.51100000000E-03 0. -1.
         23    2    1    2    0    0  0.00000000000E+00 -0.17763568394E-14  0.00000000000E+00  0.91188000000E+02  0.91188000000E+02 0.  0.
    9900012    2    3    3    0    0  0.87043572792E+01 -0.10585773977E+02  0.34175356400E+02  0.54367089753E+02  0.40000012710E+02 0.  0.
         12    1    3    3    0    0 -0.87043572792E+01  0.10585773977E+02 -0.34175356400E+02  0.36820910247E+02  0.00000000000E+00 0. -1.
         11    1    4    4    0    0 -0.29535611187E+01 -0.52459808048E+01  0.89225957551E+00  0.60860467709E+01  0.51100000000E-03 0. -1.
        -11    1    4    4    0    0  0.37571358660E+01 -0.94109700635E+01  0.37209332288E+02  0.38564450431E+02  0.51100000000E-03 0.  1.
        -12    1    4    4    0    0  0.79007825319E+01  0.40711768914E+01 -0.39262354630E+01  0.97165925513E+01  0.00000000000E+00 0.  1.
</event>
<event>
 8    1  0.1240174E-006  0.9118800E+02  0.7816164E-02  0.1184000E+00
        -11   -1    0    0    0    0  0.00000000000E+00  0.00000000000E+00  0.45593999997E+02  0.45594000000E+02  0.51100000000E-03 0. -1.
         11   -1    0    0    0    0 -0.00000000000E+00 -0.00000000000E+00 -0.45593999997E+02  0.45594000000E+02  0.51100000000E-03 0.  1.
         23    2    1    2    0    0  0.00000000000E+00  0.00000000000E+00 -0.35527136788E-14  0.91188000000E+02  0.91188000000E+02 0.  0.
    9900012    2    3    3    0    0  0.20117799296E+02 -0.88393117581E+01 -0.29545182278E+02  0.54367121728E+02  0.40000085602E+02 0.  0.
         12    1    3    3    0    0 -0.20117799296E+02  0.88393117581E+01  0.29545182278E+02  0.36820878272E+02  0.00000000000E+00 0. -1.
         11    1    4    4    0    0 -0.57405279358E+01 -0.58507540643E+01  0.33880538033E+01  0.88692667644E+01  0.51100000000E-03 0. -1.
        -11    1    4    4    0    0  0.41483848676E+01 -0.77997120108E+01 -0.12442866099E+02  0.15260062958E+02  0.51100000000E-03 0.  1.
         12    1    4    4    0    0  0.21709942365E+02  0.48111543169E+01 -0.20490369983E+02  0.30237792005E+02  0.00000000000E+00 0. -1.
</event>
<event>
 8    1  0.1240174E-006  0.9118800E+02  0.7816164E-02  0.1184000E+00
        -11   -1    0    0    0    0  0.00000000000E+00  0.00000000000E+00  0.45593999997E+02  0.45594000000E+02  0.51100000000E-03 0. -1.
         11   -1    0    0    0    0 -0.00000000000E+00 -0.00000000000E+00 -0.45593999997E+02  0.45594000000E+02  0.51100000000E-03 0.  1.
         23    2    1    2    0    0  0.44408920985E-15  0.00000000000E+00  0.00000000000E+00  0.91188000000E+02  0.91188000000E+02 0.  0.
    9900012    2    3    3    0    0  0.87262054152E+00 -0.22123755265E+01  0.36744031107E+02  0.54367083471E+02  0.39999998388E+02 0.  0.
        -12    1    3    3    0    0 -0.87262054152E+00  0.22123755265E+01 -0.36744031107E+02  0.36820916529E+02  0.00000000000E+00 0.  1.
         11    1    4    4    0    0 -0.95625891921E+00 -0.63252863223E+01 -0.71519490898E+00  0.64370165603E+01  0.51100000000E-03 0. -1.
        -11    1    4    4    0    0  0.14553258852E+02 -0.24458939898E+01  0.13396162568E+02  0.19930803106E+02  0.51100000000E-03 0.  1.
         12    1    4    4    0    0 -0.12724379392E+02  0.65588047855E+01  0.24063063448E+02  0.27999263805E+02  0.00000000000E+00 0. -1.
</event>
<event>
 8    1  0.1240174E-006  0.9118800E+02  0.7816164E-02  0.1184000E+00
        -11   -1    0    0    0    0  0.00000000000E+00  0.00000000000E+00  0.45593999997E+02  0.45594000000E+02  0.51100000000E-03 0. -1.
         11   -1    0    0    0    0 -0.00000000000E+00 -0.00000000000E+00 -0.45593999997E+02  0.45594000000E+02  0.51100000000E-03 0.  1.
         23    2    1    2    0    0 -0.17763568394E-14  0.35527136788E-14  0.35527136788E-14  0.91188000000E+02  0.91188000000E+02 0.  0.
    9900012    2    3    3    0    0 -0.10252605323E+02  0.28460315012E+02  0.20992229574E+02  0.54367093588E+02  0.40000021453E+02 0.  0.
        -12    1    3    3    0    0  0.10252605323E+02 -0.28460315012E+02 -0.20992229574E+02  0.36820906412E+02  0.00000000000E+00 0.  1.
         11    1    4    4    0    0 -0.77692159578E+01 -0.30341901164E+01  0.99205662054E+01  0.12960889644E+02  0.51100000000E-03 0. -1.
        -11    1    4    4    0    0  0.15772231415E+01  0.85348709231E+01 -0.75991224411E+01  0.11535957552E+02  0.51100000000E-03 0.  1.
         12    1    4    4    0    0 -0.40606125066E+01  0.22959634205E+02  0.18670785810E+02  0.29870246392E+02  0.00000000000E+00 0. -1.
</event>
<event>
 8    1  0.1240174E-006  0.9118800E+02  0.7816164E-02  0.1184000E+00
        -11   -1    0    0    0    0  0.00000000000E+00  0.00000000000E+00  0.45593999997E+02  0.45594000000E+02  0.51100000000E-03 0. -1.
         11   -1    0    0    0    0 -0.00000000000E+00 -0.00000000000E+00 -0.45593999997E+02  0.45594000000E+02  0.51100000000E-03 0.  1.
         23    2    1    2    0    0 -0.35527136788E-14 -0.88817841970E-15 -0.35527136788E-14  0.91188000000E+02  0.91188000000E+02 0.  0.
    9900012    2    3    3    0    0 -0.22336356056E+02  0.76001551811E+01 -0.28268440129E+02  0.54367083825E+02  0.39999999196E+02 0.  0.
         12    1    3    3    0    0  0.22336356056E+02 -0.76001551811E+01  0.28268440129E+02  0.36820916175E+02  0.00000000000E+00 0. -1.
         11    1    4    4    0    0 -0.17583840777E+02 -0.34324345406E+01  0.79503048068E+00  0.17933352645E+02  0.51100000000E-03 0. -1.
        -11    1    4    4    0    0  0.48083761097E+01  0.97456466427E+01 -0.87725482338E+01  0.13966234713E+02  0.51100000000E-03 0.  1.
        -12    1    4    4    0    0 -0.95608913886E+01  0.12869430789E+01 -0.20290922376E+02  0.22467496467E+02  0.00000000000E+00 0.  1.
</event>
<event>
 8    1  0.1240174E-006  0.9118800E+02  0.7816164E-02  0.1184000E+00
        -11   -1    0    0    0    0  0.00000000000E+00  0.00000000000E+00  0.45593999997E+02  0.45594000000E+02  0.51100000000E-03 0.  1.
         11   -1    0    0    0    0 -0.00000000000E+00 -0.00000000000E+00 -0.45593999997E+02  0.45594000000E+02  0.51100000000E-03 0. -1.
         23    2    1    2    0    0 -0.71054273576E-14  0.00000000000E+00  0.13322676296E-14  0.91188000000E+02  0.91188000000E+02 0.  0.
    9900012    2    3    3    0    0  0.31139411534E+02  0.19610432945E+02 -0.12439753676E+01  0.54367088744E+02  0.40000010411E+02 0.  0.
        -12    1    3    3    0    0 -0.31139411534E+02 -0.19610432945E+02  0.12439753676E+01  0.36820911256E+02  0.00000000000E+00 0.  1.
         11    1    4    4    0    0  0.26692273835E+02  0.23192713290E+02 -0.13217021439E+02  0.37750087261E+02  0.51100000000E-03 0. -1.
        -11    1    4    4    0    0 -0.19449828180E+01  0.17952359318E+01  0.53052066168E+01  0.59288319019E+01  0.51100000000E-03 0.  1.
         12    1    4    4    0    0  0.63921205168E+01 -0.53775162770E+01  0.66678394543E+01  0.10688169581E+02  0.00000000000E+00 0. -1.
</event>
<event>
 8    1  0.1240174E-006  0.9118800E+02  0.7816164E-02  0.1184000E+00
        -11   -1    0    0    0    0  0.00000000000E+00  0.00000000000E+00  0.45593999997E+02  0.45594000000E+02  0.51100000000E-03 0.  1.
         11   -1    0    0    0    0 -0.00000000000E+00 -0.00000000000E+00 -0.45593999997E+02  0.45594000000E+02  0.51100000000E-03 0. -1.
         23    2    1    2    0    0  0.44408920985E-15  0.00000000000E+00  0.17763568394E-14  0.91188000000E+02  0.91188000000E+02 0.  0.
    9900012    2    3    3    0    0  0.10980519512E+01 -0.35173790228E+02  0.10834165160E+02  0.54367076983E+02  0.39999983599E+02 0.  0.
         12    1    3    3    0    0 -0.10980519512E+01  0.35173790228E+02 -0.10834165160E+02  0.36820923017E+02  0.00000000000E+00 0. -1.
         11    1    4    4    0    0  0.68846921411E+01 -0.30529649568E+01 -0.86042774301E+01  0.11434735295E+02  0.51100000000E-03 0. -1.
        -11    1    4    4    0    0  0.75699380239E+00 -0.21586728396E+02  0.21366432008E+02  0.30382302406E+02  0.51100000000E-03 0.  1.
        -12    1    4    4    0    0 -0.65436339923E+01 -0.10534096875E+02 -0.19279894178E+01  0.12550039283E+02  0.00000000000E+00 0.  1.
</event>
<event>
 8    1  0.1240174E-006  0.9118800E+02  0.7816164E-02  0.1184000E+00
        -11   -1    0    0    0    0  0.00000000000E+00  0.00000000000E+00  0.45593999997E+02  0.45594000000E+02  0.51100000000E-03 0.  1.
         11   -1    0    0    0    0 -0.00000000000E+00 -0.00000000000E+00 -0.45593999997E+02  0.45594000000E+02  0.51100000000E-03 0. -1.
         23    2    1    2    0    0 -0.17763568394E-14  0.00000000000E+00  0.71054273576E-14  0.91188000000E+02  0.91188000000E+02 0.  0.
    9900012    2    3    3    0    0 -0.11978008035E+02  0.29771696820E+02  0.18054172453E+02  0.54367085414E+02  0.40000002818E+02 0.  0.
         12    1    3    3    0    0  0.11978008035E+02 -0.29771696820E+02 -0.18054172453E+02  0.36820914586E+02  0.00000000000E+00 0. -1.
         11    1    4    4    0    0 -0.19938387005E+02  0.10099412588E+02  0.42027685515E+01  0.22742046406E+02  0.51100000000E-03 0. -1.
        -11    1    4    4    0    0 -0.20234071829E+01 -0.24780998349E+01 -0.74015073618E+00  0.32837446297E+01  0.51100000000E-03 0.  1.
        -12    1    4    4    0    0  0.99837861533E+01  0.22150384067E+02  0.14591554637E+02  0.28341294378E+02  0.00000000000E+00 0.  1.
</event>
<event>
 8    1  0.1240174E-006  0.9118800E+02  0.7816164E-02  0.1184000E+00
        -11   -1    0    0    0    0  0.00000000000E+00  0.00000000000E+00  0.45593999997E+02  0.45594000000E+02  0.51100000000E-03 0. -1.
         11   -1    0    0    0    0 -0.00000000000E+00 -0.00000000000E+00 -0.45593999997E+02  0.45594000000E+02  0.51100000000E-03 0.  1.
         23    2    1    2    0    0  0.35527136788E-14  0.00000000000E+00  0.35527136788E-14  0.91188000000E+02  0.91188000000E+02 0.  0.
    9900012    2    3    3    0    0  0.26730646666E+02  0.22165721149E+02  0.12244735391E+02  0.54367079180E+02  0.39999988606E+02 0.  0.
        -12    1    3    3    0    0 -0.26730646666E+02 -0.22165721149E+02 -0.12244735391E+02  0.36820920820E+02  0.00000000000E+00 0.  1.
         11    1    4    4    0    0 -0.79850945705E+00  0.31773020947E+01  0.13433559970E+02  0.13827270146E+02  0.51100000000E-03 0. -1.
        -11    1    4    4    0    0  0.28567711273E+02  0.10996049661E+02 -0.59430787512E+01  0.31182485803E+02  0.51100000000E-03 0.  1.
        -12    1    4    4    0    0 -0.10385551499E+01  0.79923693934E+01  0.47542541721E+01  0.93573232312E+01  0.00000000000E+00 0.  1.
</event>
<event>
 8    1  0.1240174E-006  0.9118800E+02  0.7816164E-02  0.1184000E+00
        -11   -1    0    0    0    0  0.00000000000E+00  0.00000000000E+00  0.45593999997E+02  0.45594000000E+02  0.51100000000E-03 0.  1.
         11   -1    0    0    0    0 -0.00000000000E+00 -0.00000000000E+00 -0.45593999997E+02  0.45594000000E+02  0.51100000000E-03 0. -1.
         23    2    1    2    0    0  0.35527136788E-14  0.00000000000E+00  0.35527136788E-14  0.91188000000E+02  0.91188000000E+02 0.  0.
    9900012    2    3    3    0    0  0.19919811934E+02 -0.15600363690E+02 -0.26750945705E+02  0.54367036530E+02  0.39999891376E+02 0.  0.
        -12    1    3    3    0    0 -0.19919811934E+02  0.15600363690E+02  0.26750945705E+02  0.36820963470E+02  0.00000000000E+00 0.  1.
         11    1    4    4    0    0  0.12915380029E+02 -0.59347532158E+01 -0.32184666685E+01  0.14573498722E+02  0.51100000000E-03 0. -1.
        -11    1    4    4    0    0 -0.32260464488E+01  0.77489435313E+01  0.49089589350E+00  0.84080009860E+01  0.51100000000E-03 0.  1.
        -12    1    4    4    0    0  0.10230478354E+02 -0.17414554006E+02 -0.24023374930E+02  0.31385536822E+02  0.00000000000E+00 0.  1.
</event>
<event>
 8    1  0.1240174E-006  0.9118800E+02  0.7816164E-02  0.1184000E+00
        -11   -1    0    0    0    0  0.00000000000E+00  0.00000000000E+00  0.45593999997E+02  0.45594000000E+02  0.51100000000E-03 0.  1.
         11   -1    0    0    0    0 -0.00000000000E+00 -0.00000000000E+00 -0.45593999997E+02  0.45594000000E+02  0.51100000000E-03 0. -1.
         23    2    1    2    0    0  0.00000000000E+00  0.00000000000E+00  0.00000000000E+00  0.91188000000E+02  0.91188000000E+02 0.  0.
    9900012    2    3    3    0    0  0.22516651227E+02 -0.69900011162E+01  0.28282860239E+02  0.54367083642E+02  0.39999998779E+02 0.  0.
         12    1    3    3    0    0 -0.22516651227E+02  0.69900011162E+01 -0.28282860239E+02  0.36820916358E+02  0.00000000000E+00 0. -1.
         11    1    4    4    0    0 -0.78201649754E+00  0.17842860080E+01  0.24361651630E+01  0.31193152010E+01  0.51100000000E-03 0. -1.
        -11    1    4    4    0    0  0.15651633479E+02  0.13476498616E+02  0.13525728102E+02  0.24688761946E+02  0.51100000000E-03 0.  1.
        -12    1    4    4    0    0  0.76470342456E+01 -0.22250785740E+02  0.12320966975E+02  0.26559006495E+02  0.00000000000E+00 0.  1.
</event>
<event>
 8    1  0.1240174E-006  0.9118800E+02  0.7816164E-02  0.1184000E+00
        -11   -1    0    0    0    0  0.00000000000E+00  0.00000000000E+00  0.45593999997E+02  0.45594000000E+02  0.51100000000E-03 0. -1.
         11   -1    0    0    0    0 -0.00000000000E+00 -0.00000000000E+00 -0.45593999997E+02  0.45594000000E+02  0.51100000000E-03 0.  1.
         23    2    1    2    0    0  0.00000000000E+00 -0.44408920985E-15 -0.35527136788E-14  0.91188000000E+02  0.91188000000E+02 0.  0.
    9900012    2    3    3    0    0  0.23333215919E+02  0.33998285074E+01  0.28280418809E+02  0.54367083566E+02  0.39999998605E+02 0.  0.
        -12    1    3    3    0    0 -0.23333215919E+02 -0.33998285074E+01 -0.28280418809E+02  0.36820916434E+02  0.00000000000E+00 0.  1.
         11    1    4    4    0    0  0.61852016299E+01 -0.45677118180E+00  0.10326692015E+02  0.12045992170E+02  0.51100000000E-03 0. -1.
        -11    1    4    4    0    0  0.21701083573E+02  0.84845967601E+01  0.23999354194E+02  0.33449879109E+02  0.51100000000E-03 0.  1.
        -12    1    4    4    0    0 -0.45530692833E+01 -0.46279970709E+01 -0.60456273996E+01  0.88712122871E+01  0.00000000000E+00 0.  1.
</event>
<event>
 8    1  0.1240174E-006  0.9118800E+02  0.7816164E-02  0.1184000E+00
        -11   -1    0    0    0    0  0.00000000000E+00  0.00000000000E+00  0.45593999997E+02  0.45594000000E+02  0.51100000000E-03 0. -1.
         11   -1    0    0    0    0 -0.00000000000E+00 -0.00000000000E+00 -0.45593999997E+02  0.45594000000E+02  0.51100000000E-03 0.  1.
         23    2    1    2    0    0  0.00000000000E+00 -0.17763568394E-14  0.71054273576E-14  0.91188000000E+02  0.91188000000E+02 0.  0.
    9900012    2    3    3    0    0 -0.14095682963E+02  0.64084465936E+01 -0.33406930518E+02  0.54367089194E+02  0.40000011436E+02 0.  0.
         12    1    3    3    0    0  0.14095682963E+02 -0.64084465936E+01  0.33406930518E+02  0.36820910806E+02  0.00000000000E+00 0. -1.
         11    1    4    4    0    0 -0.11325713828E+02 -0.39519012933E+01  0.15214922155E+01  0.12091495209E+02  0.51100000000E-03 0. -1.
        -11    1    4    4    0    0  0.80043953932E+01  0.30489051372E+00 -0.18758473755E+02  0.20397147882E+02  0.51100000000E-03 0.  1.
        -12    1    4    4    0    0 -0.10774364528E+02  0.10055457373E+02 -0.16169948979E+02  0.21878446104E+02  0.00000000000E+00 0.  1.
</event>
<event>
 8    1  0.1240174E-006  0.9118800E+02  0.7816164E-02  0.1184000E+00
        -11   -1    0    0    0    0  0.00000000000E+00  0.00000000000E+00  0.45593999997E+02  0.45594000000E+02  0.51100000000E-03 0.  1.
         11   -1    0    0    0    0 -0.00000000000E+00 -0.00000000000E+00 -0.45593999997E+02  0.45594000000E+02  0.51100000000E-03 0. -1.
         23    2    1    2    0    0 -0.17763568394E-14  0.00000000000E+00 -0.26645352591E-14  0.91188000000E+02  0.91188000000E+02 0.  0.
    9900012    2    3    3    0    0 -0.11890498365E+02  0.34353732817E+02  0.58495716299E+01  0.54367076627E+02  0.39999982786E+02 0.  0.
         12    1    3    3    0    0  0.11890498365E+02 -0.34353732817E+02 -0.58495716299E+01  0.36820923373E+02  0.00000000000E+00 0. -1.
         11    1    4    4    0    0  0.14530092426E+00 -0.39317428530E+01 -0.74359598301E+01  0.84126816816E+01  0.51100000000E-03 0. -1.
        -11    1    4    4    0    0 -0.18877359490E+01  0.19672908609E+02 -0.19338265346E+01  0.19857657603E+02  0.51100000000E-03 0.  1.
        -12    1    4    4    0    0 -0.10148063340E+02  0.18612567061E+02  0.15219357995E+02  0.26096737342E+02  0.00000000000E+00 0.  1.
</event>
<event>
 8    1  0.1240174E-006  0.9118800E+02  0.7816164E-02  0.1184000E+00
        -11   -1    0    0    0    0  0.00000000000E+00  0.00000000000E+00  0.45593999997E+02  0.45594000000E+02  0.51100000000E-03 0. -1.
         11   -1    0    0    0    0 -0.00000000000E+00 -0.00000000000E+00 -0.45593999997E+02  0.45594000000E+02  0.51100000000E-03 0.  1.
         23    2    1    2    0    0  0.00000000000E+00  0.35527136788E-14  0.00000000000E+00  0.91188000000E+02  0.91188000000E+02 0.  0.
    9900012    2    3    3    0    0 -0.19906720082E+02  0.23012768151E+02  0.20734410721E+02  0.54367071300E+02  0.39999970642E+02 0.  0.
        -12    1    3    3    0    0  0.19906720082E+02 -0.23012768151E+02 -0.20734410721E+02  0.36820928700E+02  0.00000000000E+00 0.  1.
         11    1    4    4    0    0 -0.19996751168E+02 -0.15053608351E+01  0.14507459992E+02  0.24750809365E+02  0.51100000000E-03 0. -1.
        -11    1    4    4    0    0  0.37377481421E+01  0.24528141400E+02  0.72113542065E+01  0.25838036138E+02  0.51100000000E-03 0.  1.
         12    1    4    4    0    0 -0.36477170563E+01 -0.10012413531E-01 -0.98440347781E+00  0.37782257977E+01  0.00000000000E+00 0. -1.
</event>
<event>
 8    1  0.1240174E-006  0.9118800E+02  0.7816164E-02  0.1184000E+00
        -11   -1    0    0    0    0  0.00000000000E+00  0.00000000000E+00  0.45593999997E+02  0.45594000000E+02  0.51100000000E-03 0.  1.
         11   -1    0    0    0    0 -0.00000000000E+00 -0.00000000000E+00 -0.45593999997E+02  0.45594000000E+02  0.51100000000E-03 0. -1.
         23    2    1    2    0    0  0.44408920985E-15  0.00000000000E+00 -0.35527136788E-14  0.91188000000E+02  0.91188000000E+02 0.  0.
    9900012    2    3    3    0    0  0.10508444994E+01 -0.35425507417E+02 -0.99854137173E+01  0.54367091035E+02  0.40000015632E+02 0.  0.
        -12    1    3    3    0    0 -0.10508444994E+01  0.35425507417E+02  0.99854137173E+01  0.36820908965E+02  0.00000000000E+00 0.  1.
         11    1    4    4    0    0  0.51708745842E+01 -0.14960545469E+02 -0.44141812807E+01  0.16432920049E+02  0.51100000000E-03 0. -1.
        -11    1    4    4    0    0 -0.38418938717E+01 -0.14031052546E+02  0.12229060796E+02  0.19004749729E+02  0.51100000000E-03 0.  1.
        -12    1    4    4    0    0 -0.27813621304E+00 -0.64339094028E+01 -0.17800293232E+02  0.18929421257E+02  0.00000000000E+00 0.  1.
</event>
<event>
 8    1  0.1240174E-006  0.9118800E+02  0.7816164E-02  0.1184000E+00
        -11   -1    0    0    0    0  0.00000000000E+00  0.00000000000E+00  0.45593999997E+02  0.45594000000E+02  0.51100000000E-03 0. -1.
         11   -1    0    0    0    0 -0.00000000000E+00 -0.00000000000E+00 -0.45593999997E+02  0.45594000000E+02  0.51100000000E-03 0.  1.
         23    2    1    2    0    0  0.35527136788E-14 -0.17763568394E-14  0.00000000000E+00  0.91188000000E+02  0.91188000000E+02 0.  0.
    9900012    2    3    3    0    0 -0.24279171210E+02 -0.12617386154E+02 -0.24639466855E+02  0.54367083188E+02  0.39999997743E+02 0.  0.
         12    1    3    3    0    0  0.24279171210E+02  0.12617386154E+02  0.24639466855E+02  0.36820916812E+02  0.00000000000E+00 0. -1.
         11    1    4    4    0    0 -0.18002535342E+01  0.21646837816E+01 -0.13085416742E+02  0.13384875802E+02  0.51100000000E-03 0.  1.
        -11    1    4    4    0    0 -0.12802950719E+02 -0.22127473232E+02 -0.13118137997E+02  0.28733711273E+02  0.51100000000E-03 0. -1.
        -12    1    4    4    0    0 -0.96759669563E+01  0.73454032954E+01  0.15640878842E+01  0.12248496113E+02  0.00000000000E+00 0.  1.
</event>
<event>
 8    1  0.1240174E-006  0.9118800E+02  0.7816164E-02  0.1184000E+00
        -11   -1    0    0    0    0  0.00000000000E+00  0.00000000000E+00  0.45593999997E+02  0.45594000000E+02  0.51100000000E-03 0.  1.
         11   -1    0    0    0    0 -0.00000000000E+00 -0.00000000000E+00 -0.45593999997E+02  0.45594000000E+02  0.51100000000E-03 0. -1.
         23    2    1    2    0    0  0.00000000000E+00  0.88817841970E-15  0.00000000000E+00  0.91188000000E+02  0.91188000000E+02 0.  0.
    9900012    2    3    3    0    0  0.34956918993E+02 -0.72465526332E+01  0.90155983658E+01  0.54367085774E+02  0.40000003639E+02 0.  0.
         12    1    3    3    0    0 -0.34956918993E+02  0.72465526332E+01 -0.90155983658E+01  0.36820914226E+02  0.00000000000E+00 0. -1.
         11    1    4    4    0    0  0.49809970456E-01  0.66652791299E+01 -0.46720926474E+01  0.81398327305E+01  0.51100000000E-03 0. -1.
        -11    1    4    4    0    0  0.29772101207E+02 -0.19746376715E+01  0.14565419049E+02  0.33202840790E+02  0.51100000000E-03 0.  1.
        -12    1    4    4    0    0  0.51350078152E+01 -0.11937194092E+02 -0.87772803565E+00  0.13024412253E+02  0.00000000000E+00 0.  1.
</event>
<event>
 8    1  0.1240174E-006  0.9118800E+02  0.7816164E-02  0.1184000E+00
        -11   -1    0    0    0    0  0.00000000000E+00  0.00000000000E+00  0.45593999997E+02  0.45594000000E+02  0.51100000000E-03 0.  1.
         11   -1    0    0    0    0 -0.00000000000E+00 -0.00000000000E+00 -0.45593999997E+02  0.45594000000E+02  0.51100000000E-03 0. -1.
         23    2    1    2    0    0 -0.71054273576E-14 -0.35527136788E-14  0.13322676296E-14  0.91188000000E+02  0.91188000000E+02 0.  0.
    9900012    2    3    3    0    0  0.30947535338E+02  0.19678869802E+02 -0.32821235600E+01  0.54367079380E+02  0.39999989064E+02 0.  0.
        -12    1    3    3    0    0 -0.30947535338E+02 -0.19678869802E+02  0.32821235600E+01  0.36820920620E+02  0.00000000000E+00 0.  1.
         11    1    4    4    0    0  0.22224031803E+01  0.45526191346E+01 -0.18969798083E+00  0.50696550638E+01  0.51100000000E-03 0. -1.
        -11    1    4    4    0    0  0.24508697929E+02  0.22360837937E+02  0.91957837659E+01  0.34427398780E+02  0.51100000000E-03 0.  1.
         12    1    4    4    0    0  0.42164342286E+01 -0.72345872689E+01 -0.12288209345E+02  0.14870025537E+02  0.00000000000E+00 0. -1.
</event>
<event>
 8    1  0.1240174E-006  0.9118800E+02  0.7816164E-02  0.1184000E+00
        -11   -1    0    0    0    0  0.00000000000E+00  0.00000000000E+00  0.45593999997E+02  0.45594000000E+02  0.51100000000E-03 0. -1.
         11   -1    0    0    0    0 -0.00000000000E+00 -0.00000000000E+00 -0.45593999997E+02  0.45594000000E+02  0.51100000000E-03 0.  1.
         23    2    1    2    0    0  0.00000000000E+00 -0.17763568394E-14 -0.35527136788E-14  0.91188000000E+02  0.91188000000E+02 0.  0.
    9900012    2    3    3    0    0 -0.22375997265E+02 -0.91837363618E+01 -0.27762431274E+02  0.54367097548E+02  0.40000030480E+02 0.  0.
         12    1    3    3    0    0  0.22375997265E+02  0.91837363618E+01  0.27762431274E+02  0.36820902452E+02  0.00000000000E+00 0. -1.
         11    1    4    4    0    0 -0.84292156483E+01 -0.73791729651E+01 -0.12159239444E+02  0.16533329194E+02  0.51100000000E-03 0. -1.
        -11    1    4    4    0    0 -0.17191472020E+02 -0.55185762567E+01 -0.22816137873E+02  0.29096005599E+02  0.51100000000E-03 0.  1.
         12    1    4    4    0    0  0.32446904035E+01  0.37140128600E+01  0.72129460436E+01  0.87377627553E+01  0.00000000000E+00 0. -1.
</event>
<event>
 8    1  0.1240174E-006  0.9118800E+02  0.7816164E-02  0.1184000E+00
        -11   -1    0    0    0    0  0.00000000000E+00  0.00000000000E+00  0.45593999997E+02  0.45594000000E+02  0.51100000000E-03 0.  1.
         11   -1    0    0    0    0 -0.00000000000E+00 -0.00000000000E+00 -0.45593999997E+02  0.45594000000E+02  0.51100000000E-03 0. -1.
         23    2    1    2    0    0  0.13183898417E-15 -0.88817841970E-15  0.00000000000E+00  0.91188000000E+02  0.91188000000E+02 0.  0.
    9900012    2    3    3    0    0 -0.50069255586E-01  0.34742362041E+01 -0.36656607336E+02  0.54367086303E+02  0.40000004844E+02 0.  0.
        -12    1    3    3    0    0  0.50069255586E-01 -0.34742362041E+01  0.36656607336E+02  0.36820913697E+02  0.00000000000E+00 0.  1.
         11    1    4    4    0    0  0.54487015623E+01 -0.71135611984E+01 -0.39759767256E+02  0.40756964977E+02  0.51100000000E-03 0. -1.
        -11    1    4    4    0    0 -0.12872640354E+01  0.58979736729E+01 -0.95725661845E+00  0.61122403943E+01  0.51100000000E-03 0.  1.
         12    1    4    4    0    0 -0.42115067825E+01  0.46898237297E+01  0.40604165384E+01  0.74978809313E+01  0.00000000000E+00 0. -1.
</event>
<event>
 8    1  0.1240174E-006  0.9118800E+02  0.7816164E-02  0.1184000E+00
        -11   -1    0    0    0    0  0.00000000000E+00  0.00000000000E+00  0.45593999997E+02  0.45594000000E+02  0.51100000000E-03 0.  1.
         11   -1    0    0    0    0 -0.00000000000E+00 -0.00000000000E+00 -0.45593999997E+02  0.45594000000E+02  0.51100000000E-03 0. -1.
         23    2    1    2    0    0  0.35527136788E-14 -0.35527136788E-14  0.22204460493E-15  0.91188000000E+02  0.91188000000E+02 0.  0.
    9900012    2    3    3    0    0  0.28106818477E+02 -0.23756567832E+02  0.11889393258E+01  0.54367063880E+02  0.39999953726E+02 0.  0.
         12    1    3    3    0    0 -0.28106818477E+02  0.23756567832E+02 -0.11889393258E+01  0.36820936120E+02  0.00000000000E+00 0. -1.
         11    1    4    4    0    0 -0.99974352001E+01 -0.51640447308E+01 -0.12192342942E+01  0.11318241961E+02  0.51100000000E-03 0. -1.
        -11    1    4    4    0    0  0.14965741997E+02 -0.50635520681E+01  0.36549907974E+01  0.16216409932E+02  0.51100000000E-03 0.  1.
        -12    1    4    4    0    0  0.23138511680E+02 -0.13528971033E+02 -0.12468171775E+01  0.26832411987E+02  0.00000000000E+00 0.  1.
</event>
<event>
 8    1  0.1240174E-006  0.9118800E+02  0.7816164E-02  0.1184000E+00
        -11   -1    0    0    0    0  0.00000000000E+00  0.00000000000E+00  0.45593999997E+02  0.45594000000E+02  0.51100000000E-03 0.  1.
         11   -1    0    0    0    0 -0.00000000000E+00 -0.00000000000E+00 -0.45593999997E+02  0.45594000000E+02  0.51100000000E-03 0. -1.
         23    2    1    2    0    0  0.17763568394E-14  0.00000000000E+00  0.00000000000E+00  0.91188000000E+02  0.91188000000E+02 0.  0.
    9900012    2    3    3    0    0  0.11717534530E+02  0.14044961658E+02  0.31956524799E+02  0.54367067901E+02  0.39999962894E+02 0.  0.
         12    1    3    3    0    0 -0.11717534530E+02 -0.14044961658E+02 -0.31956524799E+02  0.36820932099E+02  0.00000000000E+00 0. -1.
         11    1    4    4    0    0 -0.50088144922E+01  0.21425716972E+02  0.78089032844E+01  0.23347987946E+02  0.51100000000E-03 0. -1.
        -11    1    4    4    0    0  0.63087395326E+01 -0.62509592936E+01  0.12729717093E+02  0.15521610230E+02  0.51100000000E-03 0.  1.
         12    1    4    4    0    0  0.10417609489E+02 -0.11297960207E+01  0.11417904421E+02  0.15497469725E+02  0.00000000000E+00 0. -1.
</event>
<event>
 8    1  0.1240174E-006  0.9118800E+02  0.7816164E-02  0.1184000E+00
        -11   -1    0    0    0    0  0.00000000000E+00  0.00000000000E+00  0.45593999997E+02  0.45594000000E+02  0.51100000000E-03 0.  1.
         11   -1    0    0    0    0 -0.00000000000E+00 -0.00000000000E+00 -0.45593999997E+02  0.45594000000E+02  0.51100000000E-03 0. -1.
         23    2    1    2    0    0  0.17763568394E-14  0.00000000000E+00 -0.17763568394E-14  0.91188000000E+02  0.91188000000E+02 0.  0.
    9900012    2    3    3    0    0 -0.12296962777E+02  0.34010047852E+02  0.69196090265E+01  0.54367086954E+02  0.40000006329E+02 0.  0.
        -12    1    3    3    0    0  0.12296962777E+02 -0.34010047852E+02 -0.69196090265E+01  0.36820913046E+02  0.00000000000E+00 0.  1.
         11    1    4    4    0    0  0.27328734021E+01  0.17309221669E+01 -0.47977576204E+01  0.57864641211E+01  0.51100000000E-03 0. -1.
        -11    1    4    4    0    0  0.20316086555E+01 -0.29668222848E+01 -0.48703456182E+01  0.60539024522E+01  0.51100000000E-03 0.  1.
        -12    1    4    4    0    0 -0.17061444835E+02  0.35245947970E+02  0.16587712265E+02  0.42526720381E+02  0.00000000000E+00 0.  1.
</event>
<event>
 8    1  0.1240174E-006  0.9118800E+02  0.7816164E-02  0.1184000E+00
        -11   -1    0    0    0    0  0.00000000000E+00  0.00000000000E+00  0.45593999997E+02  0.45594000000E+02  0.51100000000E-03 0. -1.
         11   -1    0    0    0    0 -0.00000000000E+00 -0.00000000000E+00 -0.45593999997E+02  0.45594000000E+02  0.51100000000E-03 0.  1.
         23    2    1    2    0    0 -0.44408920985E-15  0.35527136788E-14  0.71054273576E-14  0.91188000000E+02  0.91188000000E+02 0.  0.
    9900012    2    3    3    0    0 -0.29865755902E+01  0.14618529712E+02  0.33662417565E+02  0.54367090166E+02  0.40000013650E+02 0.  0.
        -12    1    3    3    0    0  0.29865755902E+01 -0.14618529712E+02 -0.33662417565E+02  0.36820909834E+02  0.00000000000E+00 0.  1.
         11    1    4    4    0    0 -0.52095106049E+01 -0.10959381756E+02  0.13761577653E+02  0.18347426768E+02  0.51100000000E-03 0. -1.
        -11    1    4    4    0    0  0.21275138097E+01 -0.15245705385E+01  0.44060685864E+00  0.26541976193E+01  0.51100000000E-03 0.  1.
         12    1    4    4    0    0  0.95421204945E-01  0.27102482007E+02  0.19460233053E+02  0.33365465779E+02  0.00000000000E+00 0. -1.
</event>
<event>
 8    1  0.1240174E-006  0.9118800E+02  0.7816164E-02  0.1184000E+00
        -11   -1    0    0    0    0  0.00000000000E+00  0.00000000000E+00  0.45593999997E+02  0.45594000000E+02  0.51100000000E-03 0. -1.
         11   -1    0    0    0    0 -0.00000000000E+00 -0.00000000000E+00 -0.45593999997E+02  0.45594000000E+02  0.51100000000E-03 0.  1.
         23    2    1    2    0    0 -0.26645352591E-14  0.00000000000E+00  0.00000000000E+00  0.91188000000E+02  0.91188000000E+02 0.  0.
    9900012    2    3    3    0    0  0.65177506927E+01 -0.13891095662E+02 -0.33471513188E+02  0.54367003166E+02  0.39999815317E+02 0.  0.
        -12    1    3    3    0    0 -0.65177506927E+01  0.13891095662E+02  0.33471513188E+02  0.36820996834E+02  0.00000000000E+00 0.  1.
         11    1    4    4    0    0 -0.75007063012E+01 -0.12203179589E+02 -0.91451758456E+01  0.16994482299E+02  0.51100000000E-03 0. -1.
        -11    1    4    4    0    0 -0.25604343742E+01  0.19267631556E+01 -0.19457283348E+02  0.19719384270E+02  0.51100000000E-03 0.  1.
         12    1    4    4    0    0  0.16578891368E+02 -0.36146792284E+01 -0.48690539938E+01  0.17653136597E+02  0.00000000000E+00 0. -1.
</event>
<event>
 8    1  0.1240174E-006  0.9118800E+02  0.7816164E-02  0.1184000E+00
        -11   -1    0    0    0    0  0.00000000000E+00  0.00000000000E+00  0.45593999997E+02  0.45594000000E+02  0.51100000000E-03 0.  1.
         11   -1    0    0    0    0 -0.00000000000E+00 -0.00000000000E+00 -0.45593999997E+02  0.45594000000E+02  0.51100000000E-03 0. -1.
         23    2    1    2    0    0  0.00000000000E+00  0.00000000000E+00  0.00000000000E+00  0.91188000000E+02  0.91188000000E+02 0.  0.
    9900012    2    3    3    0    0 -0.70700627289E+00  0.11776704878E+02 -0.34879646933E+02  0.54367076521E+02  0.39999982545E+02 0.  0.
        -12    1    3    3    0    0  0.70700627289E+00 -0.11776704878E+02  0.34879646933E+02  0.36820923479E+02  0.00000000000E+00 0.  1.
         11    1    4    4    0    0 -0.33228198971E+01  0.10426243592E+02 -0.37495514711E+02  0.39059714685E+02  0.51100000000E-03 0. -1.
        -11    1    4    4    0    0 -0.25941121788E+01 -0.50105036820E+01  0.40707334970E+01  0.69574015701E+01  0.51100000000E-03 0.  1.
         12    1    4    4    0    0  0.52099258029E+01  0.63609649677E+01 -0.14548657185E+01  0.83499602665E+01  0.00000000000E+00 0. -1.
</event>
<event>
 8    1  0.1240174E-006  0.9118800E+02  0.7816164E-02  0.1184000E+00
        -11   -1    0    0    0    0  0.00000000000E+00  0.00000000000E+00  0.45593999997E+02  0.45594000000E+02  0.51100000000E-03 0.  1.
         11   -1    0    0    0    0 -0.00000000000E+00 -0.00000000000E+00 -0.45593999997E+02  0.45594000000E+02  0.51100000000E-03 0. -1.
         23    2    1    2    0    0  0.00000000000E+00  0.00000000000E+00 -0.35527136788E-14  0.91188000000E+02  0.91188000000E+02 0.  0.
    9900012    2    3    3    0    0  0.48811171557E+01  0.22905466034E+02 -0.28412909796E+02  0.54367093955E+02  0.40000022288E+02 0.  0.
        -12    1    3    3    0    0 -0.48811171557E+01 -0.22905466034E+02  0.28412909796E+02  0.36820906045E+02  0.00000000000E+00 0.  1.
         11    1    4    4    0    0  0.10910094510E+02  0.36135276271E+01 -0.25956171107E+02  0.28386802619E+02  0.51100000000E-03 0. -1.
        -11    1    4    4    0    0  0.49173151118E+01  0.44383546171E+01 -0.35144806953E+01  0.74987035169E+01  0.51100000000E-03 0.  1.
        -12    1    4    4    0    0 -0.10946292466E+02  0.14853583790E+02  0.10577420066E+01  0.18481587819E+02  0.00000000000E+00 0.  1.
</event>
<event>
 8    1  0.1240174E-006  0.9118800E+02  0.7816164E-02  0.1184000E+00
        -11   -1    0    0    0    0  0.00000000000E+00  0.00000000000E+00  0.45593999997E+02  0.45594000000E+02  0.51100000000E-03 0. -1.
         11   -1    0    0    0    0 -0.00000000000E+00 -0.00000000000E+00 -0.45593999997E+02  0.45594000000E+02  0.51100000000E-03 0.  1.
         23    2    1    2    0    0 -0.35527136788E-14 -0.17763568394E-14  0.35527136788E-14  0.91188000000E+02  0.91188000000E+02 0.  0.
    9900012    2    3    3    0    0 -0.26550603088E+02 -0.87312053977E+01  0.23971151953E+02  0.54367019595E+02  0.39999852771E+02 0.  0.
        -12    1    3    3    0    0  0.26550603088E+02  0.87312053977E+01 -0.23971151953E+02  0.36820980405E+02  0.00000000000E+00 0.  1.
         11    1    4    4    0    0 -0.14580267338E+02 -0.67629958615E+01  0.25128287806E+01  0.16267655560E+02  0.51100000000E-03 0. -1.
        -11    1    4    4    0    0 -0.25671078387E+01  0.45120099203E+01  0.25471295586E+02  0.25994906718E+02  0.51100000000E-03 0.  1.
        -12    1    4    4    0    0 -0.94032279107E+01 -0.64802194564E+01 -0.40129724137E+01  0.12104457317E+02  0.00000000000E+00 0.  1.
</event>
<event>
 8    1  0.1240174E-006  0.9118800E+02  0.7816164E-02  0.1184000E+00
        -11   -1    0    0    0    0  0.00000000000E+00  0.00000000000E+00  0.45593999997E+02  0.45594000000E+02  0.51100000000E-03 0.  1.
         11   -1    0    0    0    0 -0.00000000000E+00 -0.00000000000E+00 -0.45593999997E+02  0.45594000000E+02  0.51100000000E-03 0. -1.
         23    2    1    2    0    0 -0.71054273576E-14  0.35527136788E-14  0.35527136788E-14  0.91188000000E+02  0.91188000000E+02 0.  0.
    9900012    2    3    3    0    0 -0.25811472858E+02  0.20272639813E+02  0.16690351243E+02  0.54367083652E+02  0.39999998801E+02 0.  0.
         12    1    3    3    0    0  0.25811472858E+02 -0.20272639813E+02 -0.16690351243E+02  0.36820916348E+02  0.00000000000E+00 0. -1.
         11    1    4    4    0    0  0.97725894447E+01  0.10713704650E+02  0.74853142616E+01  0.16319218781E+02  0.51100000000E-03 0.  1.
        -11    1    4    4    0    0 -0.23316141382E+01  0.53040523008E+00  0.32031681373E-01  0.23913971831E+01  0.51100000000E-03 0. -1.
        -12    1    4    4    0    0 -0.33252448165E+02  0.90285299335E+01  0.91730053003E+01  0.35656467687E+02  0.00000000000E+00 0.  1.
</event>
<event>
 8    1  0.1240174E-006  0.9118800E+02  0.7816164E-02  0.1184000E+00
        -11   -1    0    0    0    0  0.00000000000E+00  0.00000000000E+00  0.45593999997E+02  0.45594000000E+02  0.51100000000E-03 0. -1.
         11   -1    0    0    0    0 -0.00000000000E+00 -0.00000000000E+00 -0.45593999997E+02  0.45594000000E+02  0.51100000000E-03 0.  1.
         23    2    1    2    0    0  0.17763568394E-14  0.00000000000E+00  0.00000000000E+00  0.91188000000E+02  0.91188000000E+02 0.  0.
    9900012    2    3    3    0    0  0.10754264820E+02  0.10573044296E+02 -0.33590731137E+02  0.54367072584E+02  0.39999973569E+02 0.  0.
         12    1    3    3    0    0 -0.10754264820E+02 -0.10573044296E+02  0.33590731137E+02  0.36820927416E+02  0.00000000000E+00 0. -1.
         11    1    4    4    0    0  0.10529263872E+02 -0.11305212727E+02 -0.28993990126E+01  0.15718770543E+02  0.51100000000E-03 0. -1.
        -11    1    4    4    0    0 -0.11420751877E+01  0.14183078615E+02 -0.25696160877E+02  0.29372720998E+02  0.51100000000E-03 0.  1.
         12    1    4    4    0    0  0.13670761353E+01  0.76951784085E+01 -0.49951712467E+01  0.92755810428E+01  0.00000000000E+00 0. -1.
</event>
<event>
 8    1  0.1240174E-006  0.9118800E+02  0.7816164E-02  0.1184000E+00
        -11   -1    0    0    0    0  0.00000000000E+00  0.00000000000E+00  0.45593999997E+02  0.45594000000E+02  0.51100000000E-03 0. -1.
         11   -1    0    0    0    0 -0.00000000000E+00 -0.00000000000E+00 -0.45593999997E+02  0.45594000000E+02  0.51100000000E-03 0.  1.
         23    2    1    2    0    0 -0.71054273576E-14  0.17763568394E-14  0.00000000000E+00  0.91188000000E+02  0.91188000000E+02 0.  0.
    9900012    2    3    3    0    0 -0.34618606059E+02  0.12003210147E+02 -0.36409411790E+01  0.54367063130E+02  0.39999952018E+02 0.  0.
         12    1    3    3    0    0  0.34618606059E+02 -0.12003210147E+02  0.36409411790E+01  0.36820936870E+02  0.00000000000E+00 0. -1.
         11    1    4    4    0    0 -0.40453895594E+01 -0.72236103524E+01 -0.31308168120E+00  0.82851519969E+01  0.51100000000E-03 0. -1.
        -11    1    4    4    0    0 -0.27291861053E+01 -0.70480895247E+01  0.68089174739E+00  0.75886518288E+01  0.51100000000E-03 0.  1.
        -12    1    4    4    0    0 -0.27844030394E+02  0.26274910024E+02 -0.40087512452E+01  0.38493259305E+02  0.00000000000E+00 0.  1.
</event>
<event>
 8    1  0.1240174E-006  0.9118800E+02  0.7816164E-02  0.1184000E+00
        -11   -1    0    0    0    0  0.00000000000E+00  0.00000000000E+00  0.45593999997E+02  0.45594000000E+02  0.51100000000E-03 0.  1.
         11   -1    0    0    0    0 -0.00000000000E+00 -0.00000000000E+00 -0.45593999997E+02  0.45594000000E+02  0.51100000000E-03 0. -1.
         23    2    1    2    0    0  0.88817841970E-15  0.00000000000E+00  0.00000000000E+00  0.91188000000E+02  0.91188000000E+02 0.  0.
    9900012    2    3    3    0    0  0.45298205489E+01  0.20585913020E+01 -0.36482927391E+02  0.54367339178E+02  0.40000581320E+02 0.  0.
        -12    1    3    3    0    0 -0.45298205489E+01 -0.20585913020E+01  0.36482927391E+02  0.36820660822E+02  0.00000000000E+00 0.  1.
         11    1    4    4    0    0 -0.49111282772E+01 -0.10695867295E+02 -0.10958282040E+02  0.16081190991E+02  0.51100000000E-03 0. -1.
        -11    1    4    4    0    0  0.10762762841E+01  0.13872450139E+02 -0.26358904346E+02  0.29805957158E+02  0.51100000000E-03 0.  1.
         12    1    4    4    0    0  0.83646725420E+01 -0.11179915419E+01  0.83425899581E+00  0.84801910293E+01  0.00000000000E+00 0. -1.
</event>
<event>
 8    1  0.1240174E-006  0.9118800E+02  0.7816164E-02  0.1184000E+00
        -11   -1    0    0    0    0  0.00000000000E+00  0.00000000000E+00  0.45593999997E+02  0.45594000000E+02  0.51100000000E-03 0. -1.
         11   -1    0    0    0    0 -0.00000000000E+00 -0.00000000000E+00 -0.45593999997E+02  0.45594000000E+02  0.51100000000E-03 0.  1.
         23    2    1    2    0    0  0.00000000000E+00  0.00000000000E+00  0.00000000000E+00  0.91188000000E+02  0.91188000000E+02 0.  0.
    9900012    2    3    3    0    0  0.13700318496E+02 -0.26918276946E+02 -0.21059159075E+02  0.54367074678E+02  0.39999978344E+02 0.  0.
         12    1    3    3    0    0 -0.13700318496E+02  0.26918276946E+02  0.21059159075E+02  0.36820925322E+02  0.00000000000E+00 0. -1.
         11    1    4    4    0    0  0.26520882929E+01  0.36998085112E+01 -0.17045485876E+02  0.17642866671E+02  0.51100000000E-03 0. -1.
        -11    1    4    4    0    0  0.11800679126E+02 -0.15795214756E+02 -0.81222651080E+01  0.21324071557E+02  0.51100000000E-03 0.  1.
        -12    1    4    4    0    0 -0.75244892298E+00 -0.14822870702E+02  0.41085919097E+01  0.15400136451E+02  0.00000000000E+00 0.  1.
</event>
<event>
 8    1  0.1240174E-006  0.9118800E+02  0.7816164E-02  0.1184000E+00
        -11   -1    0    0    0    0  0.00000000000E+00  0.00000000000E+00  0.45593999997E+02  0.45594000000E+02  0.51100000000E-03 0.  1.
         11   -1    0    0    0    0 -0.00000000000E+00 -0.00000000000E+00 -0.45593999997E+02  0.45594000000E+02  0.51100000000E-03 0. -1.
         23    2    1    2    0    0 -0.35527136788E-14  0.00000000000E+00  0.88817841970E-15  0.91188000000E+02  0.91188000000E+02 0.  0.
    9900012    2    3    3    0    0  0.21684640136E+02 -0.29234714157E+02  0.55576397995E+01  0.54367088961E+02  0.40000010903E+02 0.  0.
         12    1    3    3    0    0 -0.21684640136E+02  0.29234714157E+02 -0.55576397995E+01  0.36820911039E+02  0.00000000000E+00 0. -1.
         11    1    4    4    0    0  0.21823086227E+02 -0.83582179151E+01  0.16888092127E+02  0.28832525993E+02  0.51100000000E-03 0. -1.
        -11    1    4    4    0    0 -0.42128372378E+01 -0.14267269762E+02 -0.91697496819E+01  0.17475333860E+02  0.51100000000E-03 0.  1.
         12    1    4    4    0    0  0.40743911463E+01 -0.66092264800E+01 -0.21607026457E+01  0.80592291071E+01  0.00000000000E+00 0. -1.
</event>
<event>
 8    1  0.1240174E-006  0.9118800E+02  0.7816164E-02  0.1184000E+00
        -11   -1    0    0    0    0  0.00000000000E+00  0.00000000000E+00  0.45593999997E+02  0.45594000000E+02  0.51100000000E-03 0.  1.
         11   -1    0    0    0    0 -0.00000000000E+00 -0.00000000000E+00 -0.45593999997E+02  0.45594000000E+02  0.51100000000E-03 0. -1.
         23    2    1    2    0    0 -0.35527136788E-14  0.17763568394E-14  0.35527136788E-14  0.91188000000E+02  0.91188000000E+02 0.  0.
    9900012    2    3    3    0    0 -0.27117646254E+02  0.13457796629E+02  0.20959516939E+02  0.54367076889E+02  0.39999983383E+02 0.  0.
         12    1    3    3    0    0  0.27117646254E+02 -0.13457796629E+02 -0.20959516939E+02  0.36820923111E+02  0.00000000000E+00 0. -1.
         11    1    4    4    0    0 -0.11635130382E+02 -0.52945840509E+01 -0.57105232556E+01  0.14000676962E+02  0.51100000000E-03 0. -1.
        -11    1    4    4    0    0 -0.25704800154E+01  0.81955668325E+01  0.21102130944E+02  0.22783209034E+02  0.51100000000E-03 0.  1.
         12    1    4    4    0    0 -0.12912035856E+02  0.10556813848E+02  0.55679092502E+01  0.17583190893E+02  0.00000000000E+00 0. -1.
</event>
<event>
 8    1  0.1240174E-006  0.9118800E+02  0.7816164E-02  0.1184000E+00
        -11   -1    0    0    0    0  0.00000000000E+00  0.00000000000E+00  0.45593999997E+02  0.45594000000E+02  0.51100000000E-03 0. -1.
         11   -1    0    0    0    0 -0.00000000000E+00 -0.00000000000E+00 -0.45593999997E+02  0.45594000000E+02  0.51100000000E-03 0.  1.
         23    2    1    2    0    0  0.66613381478E-15  0.14210854715E-13  0.00000000000E+00  0.91188000000E+02  0.91188000000E+02 0.  0.
    9900012    2    3    3    0    0 -0.12310817547E+01 -0.36649522334E+02 -0.33282619573E+01  0.54367076910E+02  0.39999983431E+02 0.  0.
         12    1    3    3    0    0  0.12310817547E+01  0.36649522334E+02  0.33282619573E+01  0.36820923090E+02  0.00000000000E+00 0. -1.
         11    1    4    4    0    0  0.96153985861E+01 -0.45183325493E+01 -0.17501026412E+01  0.10767268851E+02  0.51100000000E-03 0. -1.
        -11    1    4    4    0    0 -0.14115055285E+01 -0.32747803117E+02 -0.57265636313E+01  0.33274682390E+02  0.51100000000E-03 0.  1.
         12    1    4    4    0    0 -0.94349748122E+01  0.61661333305E+00  0.41484043153E+01  0.10325125669E+02  0.00000000000E+00 0. -1.
</event>
<event>
 8    1  0.1240174E-006  0.9118800E+02  0.7816164E-02  0.1184000E+00
        -11   -1    0    0    0    0  0.00000000000E+00  0.00000000000E+00  0.45593999997E+02  0.45594000000E+02  0.51100000000E-03 0.  1.
         11   -1    0    0    0    0 -0.00000000000E+00 -0.00000000000E+00 -0.45593999997E+02  0.45594000000E+02  0.51100000000E-03 0. -1.
         23    2    1    2    0    0  0.88817841970E-15  0.00000000000E+00  0.00000000000E+00  0.91188000000E+02  0.91188000000E+02 0.  0.
    9900012    2    3    3    0    0 -0.50402683523E+01  0.38757654917E+01  0.36267778211E+02  0.54367114628E+02  0.40000069417E+02 0.  0.
         12    1    3    3    0    0  0.50402683523E+01 -0.38757654917E+01 -0.36267778211E+02  0.36820885372E+02  0.00000000000E+00 0. -1.
         11    1    4    4    0    0  0.10172286522E+01 -0.53520278428E+01  0.66073015469E+01  0.85636084774E+01  0.51100000000E-03 0.  1.
        -11    1    4    4    0    0  0.28792915927E+01 -0.11221369342E+02  0.52184594486E+01  0.12705973763E+02  0.51100000000E-03 0. -1.
        -12    1    4    4    0    0 -0.89367885973E+01  0.20449162676E+02  0.24442017216E+02  0.33097532388E+02  0.00000000000E+00 0.  1.
</event>
<event>
 8    1  0.1240174E-006  0.9118800E+02  0.7816164E-02  0.1184000E+00
        -11   -1    0    0    0    0  0.00000000000E+00  0.00000000000E+00  0.45593999997E+02  0.45594000000E+02  0.51100000000E-03 0. -1.
         11   -1    0    0    0    0 -0.00000000000E+00 -0.00000000000E+00 -0.45593999997E+02  0.45594000000E+02  0.51100000000E-03 0.  1.
         23    2    1    2    0    0  0.00000000000E+00  0.44408920985E-15  0.00000000000E+00  0.91188000000E+02  0.91188000000E+02 0.  0.
    9900012    2    3    3    0    0 -0.35461477021E+02  0.27418219675E+01  0.95260617029E+01  0.54367084860E+02  0.40000001554E+02 0.  0.
        -12    1    3    3    0    0  0.35461477021E+02 -0.27418219675E+01 -0.95260617029E+01  0.36820915140E+02  0.00000000000E+00 0.  1.
         11    1    4    4    0    0 -0.13038596543E+02  0.14173255762E+02  0.50380558162E+01  0.19906486013E+02  0.51100000000E-03 0. -1.
        -11    1    4    4    0    0  0.47408857949E+01 -0.12186164848E+00  0.69154172733E+00  0.47926066606E+01  0.51100000000E-03 0.  1.
        -12    1    4    4    0    0 -0.27163766273E+02 -0.11309572146E+02  0.37964641594E+01  0.29667992186E+02  0.00000000000E+00 0.  1.
</event>
<event>
 8    1  0.1240174E-006  0.9118800E+02  0.7816164E-02  0.1184000E+00
        -11   -1    0    0    0    0  0.00000000000E+00  0.00000000000E+00  0.45593999997E+02  0.45594000000E+02  0.51100000000E-03 0. -1.
         11   -1    0    0    0    0 -0.00000000000E+00 -0.00000000000E+00 -0.45593999997E+02  0.45594000000E+02  0.51100000000E-03 0.  1.
         23    2    1    2    0    0  0.00000000000E+00  0.17763568394E-14  0.00000000000E+00  0.91188000000E+02  0.91188000000E+02 0.  0.
    9900012    2    3    3    0    0 -0.34135497927E+02 -0.43236059657E+01 -0.13108675355E+02  0.54367310750E+02  0.40000516514E+02 0.  0.
         12    1    3    3    0    0  0.34135497927E+02  0.43236059657E+01  0.13108675355E+02  0.36820689250E+02  0.00000000000E+00 0. -1.
         11    1    4    4    0    0 -0.19109092921E+02 -0.12150353951E+02  0.95894412895E+01  0.24591582257E+02  0.51100000000E-03 0. -1.
        -11    1    4    4    0    0 -0.91372177876E+00  0.44107125852E+01 -0.75555957752E+01  0.87963799814E+01  0.51100000000E-03 0.  1.
         12    1    4    4    0    0 -0.14112683227E+02  0.34160353999E+01 -0.15142520869E+02  0.20979348512E+02  0.00000000000E+00 0. -1.
</event>
<event>
 8    1  0.1240174E-006  0.9118800E+02  0.7816164E-02  0.1184000E+00
        -11   -1    0    0    0    0  0.00000000000E+00  0.00000000000E+00  0.45593999997E+02  0.45594000000E+02  0.51100000000E-03 0. -1.
         11   -1    0    0    0    0 -0.00000000000E+00 -0.00000000000E+00 -0.45593999997E+02  0.45594000000E+02  0.51100000000E-03 0.  1.
         23    2    1    2    0    0  0.00000000000E+00  0.00000000000E+00  0.35527136788E-14  0.91188000000E+02  0.91188000000E+02 0.  0.
    9900012    2    3    3    0    0  0.24868816141E+02  0.11931824706E+02 -0.24391613935E+02  0.54367118867E+02  0.40000079081E+02 0.  0.
         12    1    3    3    0    0 -0.24868816141E+02 -0.11931824706E+02  0.24391613935E+02  0.36820881133E+02  0.00000000000E+00 0. -1.
         11    1    4    4    0    0  0.11321386075E+01  0.90691334495E+01 -0.75886636429E+01  0.11879340701E+02  0.51100000000E-03 0. -1.
        -11    1    4    4    0    0  0.16993942323E+02 -0.30187599369E-01  0.63948330893E+01  0.18157336739E+02  0.51100000000E-03 0.  1.
        -12    1    4    4    0    0  0.67427352104E+01  0.28928788560E+01 -0.23197783381E+02  0.24330441426E+02  0.00000000000E+00 0.  1.
</event>
<event>
 8    1  0.1240174E-006  0.9118800E+02  0.7816164E-02  0.1184000E+00
        -11   -1    0    0    0    0  0.00000000000E+00  0.00000000000E+00  0.45593999997E+02  0.45594000000E+02  0.51100000000E-03 0. -1.
         11   -1    0    0    0    0 -0.00000000000E+00 -0.00000000000E+00 -0.45593999997E+02  0.45594000000E+02  0.51100000000E-03 0.  1.
         23    2    1    2    0    0  0.71054273576E-14 -0.99920072216E-15  0.66613381478E-15  0.91188000000E+02  0.91188000000E+02 0.  0.
    9900012    2    3    3    0    0  0.36796967296E+02  0.61704674386E+00 -0.11761071902E+01  0.54367071481E+02  0.39999971056E+02 0.  0.
        -12    1    3    3    0    0 -0.36796967296E+02 -0.61704674386E+00  0.11761071902E+01  0.36820928519E+02  0.00000000000E+00 0.  1.
         11    1    4    4    0    0  0.16283076914E+02 -0.12912895621E+02 -0.64716301534E+01  0.21766108155E+02  0.51100000000E-03 0. -1.
        -11    1    4    4    0    0  0.12647811710E+02  0.87786570845E+00 -0.58818025409E+01  0.13976172246E+02  0.51100000000E-03 0.  1.
        -12    1    4    4    0    0  0.78660786715E+01  0.12652076656E+02  0.11177325504E+02  0.18624791081E+02  0.00000000000E+00 0.  1.
</event>
<event>
 8    1  0.1240174E-006  0.9118800E+02  0.7816164E-02  0.1184000E+00
        -11   -1    0    0    0    0  0.00000000000E+00  0.00000000000E+00  0.45593999997E+02  0.45594000000E+02  0.51100000000E-03 0. -1.
         11   -1    0    0    0    0 -0.00000000000E+00 -0.00000000000E+00 -0.45593999997E+02  0.45594000000E+02  0.51100000000E-03 0.  1.
         23    2    1    2    0    0 -0.88817841970E-15  0.35527136788E-14  0.00000000000E+00  0.91188000000E+02  0.91188000000E+02 0.  0.
    9900012    2    3    3    0    0 -0.49527569295E+01 -0.26325098074E+02  0.25263410756E+02  0.54367075068E+02  0.39999979232E+02 0.  0.
         12    1    3    3    0    0  0.49527569295E+01  0.26325098074E+02 -0.25263410756E+02  0.36820924932E+02  0.00000000000E+00 0. -1.
         11    1    4    4    0    0  0.42216209564E+01  0.12900746085E+01  0.91992053520E+01  0.10203516814E+02  0.51100000000E-03 0. -1.
        -11    1    4    4    0    0  0.28496765303E+01 -0.23269732034E+02  0.19968886961E+02  0.30795414139E+02  0.51100000000E-03 0.  1.
         12    1    4    4    0    0 -0.12024054416E+02 -0.43454406487E+01 -0.39046815564E+01  0.13368144116E+02  0.00000000000E+00 0. -1.
</event>
<event>
 8    1  0.1240174E-006  0.9118800E+02  0.7816164E-02  0.1184000E+00
        -11   -1    0    0    0    0  0.00000000000E+00  0.00000000000E+00  0.45593999997E+02  0.45594000000E+02  0.51100000000E-03 0.  1.
         11   -1    0    0    0    0 -0.00000000000E+00 -0.00000000000E+00 -0.45593999997E+02  0.45594000000E+02  0.51100000000E-03 0. -1.
         23    2    1    2    0    0 -0.35527136788E-14  0.00000000000E+00 -0.23592239273E-15  0.91188000000E+02  0.91188000000E+02 0.  0.
    9900012    2    3    3    0    0 -0.15759470304E+02  0.33277916038E+02 -0.24189122708E-01  0.54367065938E+02  0.39999958418E+02 0.  0.
        -12    1    3    3    0    0  0.15759470304E+02 -0.33277916038E+02  0.24189122708E-01  0.36820934062E+02  0.00000000000E+00 0.  1.
         11    1    4    4    0    0 -0.23919703690E+01  0.18187084445E+02 -0.28978536847E+01  0.18571190568E+02  0.51100000000E-03 0. -1.
        -11    1    4    4    0    0 -0.40973196056E+01 -0.10295001527E+00 -0.11949660399E+02  0.12633012727E+02  0.51100000000E-03 0.  1.
         12    1    4    4    0    0 -0.92701803294E+01  0.15193781608E+02  0.14823324961E+02  0.23162862643E+02  0.00000000000E+00 0. -1.
</event>
<event>
 8    1  0.1240174E-006  0.9118800E+02  0.7816164E-02  0.1184000E+00
        -11   -1    0    0    0    0  0.00000000000E+00  0.00000000000E+00  0.45593999997E+02  0.45594000000E+02  0.51100000000E-03 0.  1.
         11   -1    0    0    0    0 -0.00000000000E+00 -0.00000000000E+00 -0.45593999997E+02  0.45594000000E+02  0.51100000000E-03 0. -1.
         23    2    1    2    0    0  0.00000000000E+00  0.00000000000E+00 -0.35527136788E-14  0.91188000000E+02  0.91188000000E+02 0.  0.
    9900012    2    3    3    0    0 -0.15857457964E+02  0.13319595888E+02 -0.30445017661E+02  0.54367221789E+02  0.40000313711E+02 0.  0.
        -12    1    3    3    0    0  0.15857457964E+02 -0.13319595888E+02  0.30445017661E+02  0.36820778211E+02  0.00000000000E+00 0.  1.
         11    1    4    4    0    0 -0.12011572550E+02  0.15476728178E+02 -0.86097863420E+01  0.21399425491E+02  0.51100000000E-03 0. -1.
        -11    1    4    4    0    0  0.21483642957E+01 -0.33720671274E+01 -0.25517428291E+02  0.25828771800E+02  0.51100000000E-03 0.  1.
        -12    1    4    4    0    0 -0.59942497098E+01  0.12149348377E+01  0.36821969722E+01  0.71390244982E+01  0.00000000000E+00 0.  1.
</event>
<event>
 8    1  0.1240174E-006  0.9118800E+02  0.7816164E-02  0.1184000E+00
        -11   -1    0    0    0    0  0.00000000000E+00  0.00000000000E+00  0.45593999997E+02  0.45594000000E+02  0.51100000000E-03 0. -1.
         11   -1    0    0    0    0 -0.00000000000E+00 -0.00000000000E+00 -0.45593999997E+02  0.45594000000E+02  0.51100000000E-03 0.  1.
         23    2    1    2    0    0 -0.35527136788E-14  0.17763568394E-14  0.00000000000E+00  0.91188000000E+02  0.91188000000E+02 0.  0.
    9900012    2    3    3    0    0 -0.18435916107E+02 -0.11408910731E+02 -0.29761293982E+02  0.54367070269E+02  0.39999968292E+02 0.  0.
         12    1    3    3    0    0  0.18435916107E+02  0.11408910731E+02  0.29761293982E+02  0.36820929731E+02  0.00000000000E+00 0. -1.
         11    1    4    4    0    0 -0.59910782726E+01  0.14871584936E+00 -0.12725753342E+02  0.14066269358E+02  0.51100000000E-03 0. -1.
        -11    1    4    4    0    0 -0.81119647367E+01  0.53340588532E+01 -0.20352584671E+02  0.22549586666E+02  0.51100000000E-03 0.  1.
         12    1    4    4    0    0 -0.43328730976E+01 -0.16891685434E+02  0.33170440306E+01  0.17751214245E+02  0.00000000000E+00 0. -1.
</event>
<event>
 8    1  0.1240174E-006  0.9118800E+02  0.7816164E-02  0.1184000E+00
        -11   -1    0    0    0    0  0.00000000000E+00  0.00000000000E+00  0.45593999997E+02  0.45594000000E+02  0.51100000000E-03 0. -1.
         11   -1    0    0    0    0 -0.00000000000E+00 -0.00000000000E+00 -0.45593999997E+02  0.45594000000E+02  0.51100000000E-03 0.  1.
         23    2    1    2    0    0  0.44408920985E-15  0.00000000000E+00  0.71054273576E-14  0.91188000000E+02  0.91188000000E+02 0.  0.
    9900012    2    3    3    0    0 -0.16059872171E+01 -0.98901577269E+01 -0.35431416235E+02  0.54367086496E+02  0.40000005285E+02 0.  0.
         12    1    3    3    0    0  0.16059872171E+01  0.98901577269E+01  0.35431416235E+02  0.36820913504E+02  0.00000000000E+00 0. -1.
         11    1    4    4    0    0  0.75975666190E+01 -0.41073931414E+01 -0.13149534009E+02  0.15732258003E+02  0.51100000000E-03 0. -1.
        -11    1    4    4    0    0 -0.49396976572E+01 -0.16177203152E+02 -0.21523185064E+02  0.27374258170E+02  0.51100000000E-03 0.  1.
         12    1    4    4    0    0 -0.42638561789E+01  0.10394438567E+02 -0.75869716236E+00  0.11260570324E+02  0.00000000000E+00 0. -1.
</event>
<event>
 8    1  0.1240174E-006  0.9118800E+02  0.7816164E-02  0.1184000E+00
        -11   -1    0    0    0    0  0.00000000000E+00  0.00000000000E+00  0.45593999997E+02  0.45594000000E+02  0.51100000000E-03 0.  1.
         11   -1    0    0    0    0 -0.00000000000E+00 -0.00000000000E+00 -0.45593999997E+02  0.45594000000E+02  0.51100000000E-03 0. -1.
         23    2    1    2    0    0  0.35527136788E-14  0.88817841970E-15 -0.35527136788E-14  0.91188000000E+02  0.91188000000E+02 0.  0.
    9900012    2    3    3    0    0  0.17887199392E+02  0.57400769816E+01 -0.31668264494E+02  0.54367090697E+02  0.40000014861E+02 0.  0.
        -12    1    3    3    0    0 -0.17887199392E+02 -0.57400769816E+01  0.31668264494E+02  0.36820909303E+02  0.00000000000E+00 0.  1.
         11    1    4    4    0    0  0.19901734867E+02  0.11443055999E+02 -0.34710390888E+02  0.41615307486E+02  0.51100000000E-03 0. -1.
        -11    1    4    4    0    0 -0.54198243785E+01 -0.43488336491E+00  0.34932895268E+01  0.64627155139E+01  0.51100000000E-03 0.  1.
        -12    1    4    4    0    0  0.34052889038E+01 -0.52680956521E+01 -0.45116313277E+00  0.62890676965E+01  0.00000000000E+00 0.  1.
</event>
<event>
 8    1  0.1240174E-006  0.9118800E+02  0.7816164E-02  0.1184000E+00
        -11   -1    0    0    0    0  0.00000000000E+00  0.00000000000E+00  0.45593999997E+02  0.45594000000E+02  0.51100000000E-03 0. -1.
         11   -1    0    0    0    0 -0.00000000000E+00 -0.00000000000E+00 -0.45593999997E+02  0.45594000000E+02  0.51100000000E-03 0.  1.
         23    2    1    2    0    0  0.00000000000E+00  0.00000000000E+00  0.00000000000E+00  0.91188000000E+02  0.91188000000E+02 0.  0.
    9900012    2    3    3    0    0  0.23224586026E+02  0.10366355026E+02 -0.26625859006E+02  0.54367094519E+02  0.40000023576E+02 0.  0.
         12    1    3    3    0    0 -0.23224586026E+02 -0.10366355026E+02  0.26625859006E+02  0.36820905481E+02  0.00000000000E+00 0. -1.
         11    1    4    4    0    0 -0.67901875156E+00  0.11171761635E+02  0.10033182264E+01  0.11237258217E+02  0.51100000000E-03 0.  1.
        -11    1    4    4    0    0  0.21387487286E+02 -0.68314655993E+01 -0.28777031195E+02  0.36499466562E+02  0.51100000000E-03 0. -1.
         12    1    4    4    0    0  0.25161174915E+01  0.60260589904E+01  0.11478539624E+01  0.66303697413E+01  0.00000000000E+00 0. -1.
</event>
<event>
 8    1  0.1240174E-006  0.9118800E+02  0.7816164E-02  0.1184000E+00
        -11   -1    0    0    0    0  0.00000000000E+00  0.00000000000E+00  0.45593999997E+02  0.45594000000E+02  0.51100000000E-03 0. -1.
         11   -1    0    0    0    0 -0.00000000000E+00 -0.00000000000E+00 -0.45593999997E+02  0.45594000000E+02  0.51100000000E-03 0.  1.
         23    2    1    2    0    0  0.00000000000E+00  0.00000000000E+00  0.00000000000E+00  0.91188000000E+02  0.91188000000E+02 0.  0.
    9900012    2    3    3    0    0  0.91286011260E+01  0.21597331789E+02  0.28390179909E+02  0.54367103566E+02  0.40000044200E+02 0.  0.
        -12    1    3    3    0    0 -0.91286011260E+01 -0.21597331789E+02 -0.28390179909E+02  0.36820896434E+02  0.00000000000E+00 0.  1.
         11    1    4    4    0    0 -0.80058760154E+01  0.15714726163E+01  0.13095786954E+02  0.15429297235E+02  0.51100000000E-03 0. -1.
        -11    1    4    4    0    0 -0.10189703186E+01  0.14200564415E+02 -0.40161354387E+00  0.14242739340E+02  0.51100000000E-03 0.  1.
        -12    1    4    4    0    0  0.18153447460E+02  0.58252947580E+01  0.15696006499E+02  0.24695066992E+02  0.00000000000E+00 0.  1.
</event>
<event>
 8    1  0.1240174E-006  0.9118800E+02  0.7816164E-02  0.1184000E+00
        -11   -1    0    0    0    0  0.00000000000E+00  0.00000000000E+00  0.45593999997E+02  0.45594000000E+02  0.51100000000E-03 0. -1.
         11   -1    0    0    0    0 -0.00000000000E+00 -0.00000000000E+00 -0.45593999997E+02  0.45594000000E+02  0.51100000000E-03 0.  1.
         23    2    1    2    0    0 -0.35527136788E-14 -0.71054273576E-14  0.71054273576E-14  0.91188000000E+02  0.91188000000E+02 0.  0.
    9900012    2    3    3    0    0 -0.21282936133E+02 -0.19302713050E+02  0.23026557815E+02  0.54367075700E+02  0.39999980672E+02 0.  0.
        -12    1    3    3    0    0  0.21282936133E+02  0.19302713050E+02 -0.23026557815E+02  0.36820924300E+02  0.00000000000E+00 0.  1.
         11    1    4    4    0    0 -0.20127362389E+02  0.12907886113E+01  0.31709554344E+01  0.20416459306E+02  0.51100000000E-03 0. -1.
        -11    1    4    4    0    0 -0.81055644695E+01 -0.33108837393E+01  0.47065280240E+01  0.99404996256E+01  0.51100000000E-03 0.  1.
         12    1    4    4    0    0  0.69499907258E+01 -0.17282617922E+02  0.15149074356E+02  0.24010116768E+02  0.00000000000E+00 0. -1.
</event>
<event>
 8    1  0.1240174E-006  0.9118800E+02  0.7816164E-02  0.1184000E+00
        -11   -1    0    0    0    0  0.00000000000E+00  0.00000000000E+00  0.45593999997E+02  0.45594000000E+02  0.51100000000E-03 0. -1.
         11   -1    0    0    0    0 -0.00000000000E+00 -0.00000000000E+00 -0.45593999997E+02  0.45594000000E+02  0.51100000000E-03 0.  1.
         23    2    1    2    0    0  0.00000000000E+00  0.00000000000E+00 -0.88817841970E-15  0.91188000000E+02  0.91188000000E+02 0.  0.
    9900012    2    3    3    0    0 -0.32841108432E+02 -0.15578530105E+02  0.58781099691E+01  0.54367066008E+02  0.39999958578E+02 0.  0.
        -12    1    3    3    0    0  0.32841108432E+02  0.15578530105E+02 -0.58781099691E+01  0.36820933992E+02  0.00000000000E+00 0.  1.
         11    1    4    4    0    0 -0.22262159782E+02 -0.94554764693E+01  0.58121760728E+00  0.24193958081E+02  0.51100000000E-03 0. -1.
        -11    1    4    4    0    0 -0.15485724355E+00 -0.12773445679E+02 -0.53563667433E+01  0.13851915399E+02  0.51100000000E-03 0.  1.
        -12    1    4    4    0    0 -0.10424091406E+02  0.66503920433E+01  0.10653259105E+02  0.16321192528E+02  0.00000000000E+00 0.  1.
</event>
<event>
 8    1  0.1240174E-006  0.9118800E+02  0.7816164E-02  0.1184000E+00
        -11   -1    0    0    0    0  0.00000000000E+00  0.00000000000E+00  0.45593999997E+02  0.45594000000E+02  0.51100000000E-03 0. -1.
         11   -1    0    0    0    0 -0.00000000000E+00 -0.00000000000E+00 -0.45593999997E+02  0.45594000000E+02  0.51100000000E-03 0.  1.
         23    2    1    2    0    0  0.35527136788E-14  0.00000000000E+00  0.17763568394E-14  0.91188000000E+02  0.91188000000E+02 0.  0.
    9900012    2    3    3    0    0  0.28235922898E+02  0.22884833160E+02  0.58990755394E+01  0.54367054563E+02  0.39999932488E+02 0.  0.
         12    1    3    3    0    0 -0.28235922898E+02 -0.22884833160E+02 -0.58990755394E+01  0.36820945437E+02  0.00000000000E+00 0. -1.
         11    1    4    4    0    0 -0.31357469816E+01 -0.24570241655E+01  0.93261562093E+01  0.10141354287E+02  0.51100000000E-03 0. -1.
        -11    1    4    4    0    0  0.13212406125E+02  0.22434431395E+01  0.38741093481E+01  0.13950248608E+02  0.51100000000E-03 0.  1.
        -12    1    4    4    0    0  0.18159263755E+02  0.23098414186E+02 -0.73011900180E+01  0.30275451668E+02  0.00000000000E+00 0.  1.
</event>
<event>
 8    1  0.1240174E-006  0.9118800E+02  0.7816164E-02  0.1184000E+00
        -11   -1    0    0    0    0  0.00000000000E+00  0.00000000000E+00  0.45593999997E+02  0.45594000000E+02  0.51100000000E-03 0.  1.
         11   -1    0    0    0    0 -0.00000000000E+00 -0.00000000000E+00 -0.45593999997E+02  0.45594000000E+02  0.51100000000E-03 0. -1.
         23    2    1    2    0    0  0.00000000000E+00  0.00000000000E+00  0.00000000000E+00  0.91188000000E+02  0.91188000000E+02 0.  0.
    9900012    2    3    3    0    0 -0.27850845247E+02 -0.20744424570E+02 -0.12238368353E+02  0.54367103872E+02  0.40000044897E+02 0.  0.
        -12    1    3    3    0    0  0.27850845247E+02  0.20744424570E+02  0.12238368353E+02  0.36820896128E+02  0.00000000000E+00 0.  1.
         11    1    4    4    0    0 -0.53607134634E+01 -0.18861900829E+02 -0.20119423217E+02  0.28094478863E+02  0.51100000000E-03 0. -1.
        -11    1    4    4    0    0 -0.81449042616E+01  0.43803260204E+01  0.43812344776E+01  0.10233373700E+02  0.51100000000E-03 0.  1.
         12    1    4    4    0    0 -0.14345227522E+02 -0.62628497617E+01  0.34998203873E+01  0.16039251309E+02  0.00000000000E+00 0. -1.
</event>
<event>
 8    1  0.1240174E-006  0.9118800E+02  0.7816164E-02  0.1184000E+00
        -11   -1    0    0    0    0  0.00000000000E+00  0.00000000000E+00  0.45593999997E+02  0.45594000000E+02  0.51100000000E-03 0.  1.
         11   -1    0    0    0    0 -0.00000000000E+00 -0.00000000000E+00 -0.45593999997E+02  0.45594000000E+02  0.51100000000E-03 0. -1.
         23    2    1    2    0    0  0.00000000000E+00  0.71054273576E-14  0.17763568394E-14  0.91188000000E+02  0.91188000000E+02 0.  0.
    9900012    2    3    3    0    0 -0.78819775897E+01 -0.32431890806E+02  0.15550818076E+02  0.54367067708E+02  0.39999962455E+02 0.  0.
         12    1    3    3    0    0  0.78819775897E+01  0.32431890806E+02 -0.15550818076E+02  0.36820932292E+02  0.00000000000E+00 0. -1.
         11    1    4    4    0    0 -0.79067771299E+01 -0.14004101511E+01  0.28779290114E+01  0.85299911389E+01  0.51100000000E-03 0. -1.
        -11    1    4    4    0    0  0.14450120065E+00 -0.16666159492E+02  0.22813244004E+02  0.28252891092E+02  0.51100000000E-03 0.  1.
         12    1    4    4    0    0 -0.11970166048E+00 -0.14365321163E+02 -0.10140354939E+02  0.17584185477E+02  0.00000000000E+00 0. -1.
</event>
<event>
 8    1  0.1240174E-006  0.9118800E+02  0.7816164E-02  0.1184000E+00
        -11   -1    0    0    0    0  0.00000000000E+00  0.00000000000E+00  0.45593999997E+02  0.45594000000E+02  0.51100000000E-03 0. -1.
         11   -1    0    0    0    0 -0.00000000000E+00 -0.00000000000E+00 -0.45593999997E+02  0.45594000000E+02  0.51100000000E-03 0.  1.
         23    2    1    2    0    0  0.00000000000E+00  0.00000000000E+00  0.00000000000E+00  0.91188000000E+02  0.91188000000E+02 0.  0.
    9900012    2    3    3    0    0 -0.19841872645E+02  0.13804443415E+02 -0.27776209831E+02  0.54367076592E+02  0.39999982708E+02 0.  0.
         12    1    3    3    0    0  0.19841872645E+02 -0.13804443415E+02  0.27776209831E+02  0.36820923408E+02  0.00000000000E+00 0. -1.
         11    1    4    4    0    0 -0.13052026227E+01  0.23511678982E+02 -0.17042110374E+02  0.29067785067E+02  0.51100000000E-03 0. -1.
        -11    1    4    4    0    0 -0.72126701060E+01 -0.63769319443E+01 -0.44004029295E+00  0.96375052166E+01  0.51100000000E-03 0.  1.
         12    1    4    4    0    0 -0.11323999916E+02 -0.33303036228E+01 -0.10294059164E+02  0.15661786309E+02  0.00000000000E+00 0. -1.
</event>
<event>
 8    1  0.1240174E-006  0.9118800E+02  0.7816164E-02  0.1184000E+00
        -11   -1    0    0    0    0  0.00000000000E+00  0.00000000000E+00  0.45593999997E+02  0.45594000000E+02  0.51100000000E-03 0.  1.
         11   -1    0    0    0    0 -0.00000000000E+00 -0.00000000000E+00 -0.45593999997E+02  0.45594000000E+02  0.51100000000E-03 0. -1.
         23    2    1    2    0    0  0.00000000000E+00  0.22204460493E-15  0.00000000000E+00  0.91188000000E+02  0.91188000000E+02 0.  0.
    9900012    2    3    3    0    0 -0.21793110948E+02  0.11361705960E+01 -0.29657220051E+02  0.54367064792E+02  0.39999955807E+02 0.  0.
        -12    1    3    3    0    0  0.21793110948E+02 -0.11361705960E+01  0.29657220051E+02  0.36820935208E+02  0.00000000000E+00 0.  1.
         11    1    4    4    0    0 -0.39432845632E+00 -0.85259540303E+01 -0.94761318584E+00  0.85875117508E+01  0.51100000000E-03 0. -1.
        -11    1    4    4    0    0 -0.13138621176E+02  0.15121050310E+02 -0.58508974707E+01  0.20868697381E+02  0.51100000000E-03 0.  1.
         12    1    4    4    0    0 -0.82601613157E+01 -0.54589256835E+01 -0.22858709394E+02  0.24910855661E+02  0.00000000000E+00 0. -1.
</event>
<event>
 8    1  0.1240174E-006  0.9118800E+02  0.7816164E-02  0.1184000E+00
        -11   -1    0    0    0    0  0.00000000000E+00  0.00000000000E+00  0.45593999997E+02  0.45594000000E+02  0.51100000000E-03 0.  1.
         11   -1    0    0    0    0 -0.00000000000E+00 -0.00000000000E+00 -0.45593999997E+02  0.45594000000E+02  0.51100000000E-03 0. -1.
         23    2    1    2    0    0 -0.44408920985E-15  0.00000000000E+00  0.00000000000E+00  0.91188000000E+02  0.91188000000E+02 0.  0.
    9900012    2    3    3    0    0  0.38208321213E+01 -0.11815510597E+02  0.34663733077E+02  0.54367089642E+02  0.40000012457E+02 0.  0.
         12    1    3    3    0    0 -0.38208321213E+01  0.11815510597E+02 -0.34663733077E+02  0.36820910358E+02  0.00000000000E+00 0. -1.
         11    1    4    4    0    0 -0.57829318841E+01 -0.15583014533E+02  0.12367016258E+02  0.20717522403E+02  0.51100000000E-03 0. -1.
        -11    1    4    4    0    0  0.56753050409E+01  0.30742686095E+01  0.26839033710E+02  0.27604237819E+02  0.51100000000E-03 0.  1.
         12    1    4    4    0    0  0.39284589646E+01  0.69323532676E+00 -0.45423168920E+01  0.60453294205E+01  0.00000000000E+00 0. -1.
</event>
<event>
 8    1  0.1240174E-006  0.9118800E+02  0.7816164E-02  0.1184000E+00
        -11   -1    0    0    0    0  0.00000000000E+00  0.00000000000E+00  0.45593999997E+02  0.45594000000E+02  0.51100000000E-03 0. -1.
         11   -1    0    0    0    0 -0.00000000000E+00 -0.00000000000E+00 -0.45593999997E+02  0.45594000000E+02  0.51100000000E-03 0.  1.
         23    2    1    2    0    0  0.35527136788E-14  0.00000000000E+00  0.00000000000E+00  0.91188000000E+02  0.91188000000E+02 0.  0.
    9900012    2    3    3    0    0  0.17611730227E+02 -0.15135187004E+02  0.28575067847E+02  0.54367062618E+02  0.39999950850E+02 0.  0.
        -12    1    3    3    0    0 -0.17611730227E+02  0.15135187004E+02 -0.28575067847E+02  0.36820937382E+02  0.00000000000E+00 0.  1.
         11    1    4    4    0    0  0.14967118622E+02  0.29295066710E+01  0.70619303137E+01  0.16806769743E+02  0.51100000000E-03 0. -1.
        -11    1    4    4    0    0 -0.18672434250E+01 -0.15854924339E+02  0.26205785964E+02  0.30685639020E+02  0.51100000000E-03 0.  1.
        -12    1    4    4    0    0  0.45118550295E+01 -0.22097693361E+01 -0.46926484309E+01  0.68746538548E+01  0.00000000000E+00 0.  1.
</event>
<event>
 8    1  0.1240174E-006  0.9118800E+02  0.7816164E-02  0.1184000E+00
        -11   -1    0    0    0    0  0.00000000000E+00  0.00000000000E+00  0.45593999997E+02  0.45594000000E+02  0.51100000000E-03 0.  1.
         11   -1    0    0    0    0 -0.00000000000E+00 -0.00000000000E+00 -0.45593999997E+02  0.45594000000E+02  0.51100000000E-03 0. -1.
         23    2    1    2    0    0  0.00000000000E+00  0.00000000000E+00  0.88817841970E-15  0.91188000000E+02  0.91188000000E+02 0.  0.
    9900012    2    3    3    0    0  0.25353930015E+02  0.25810041619E+02 -0.68410595133E+01  0.54367080527E+02  0.39999991677E+02 0.  0.
        -12    1    3    3    0    0 -0.25353930015E+02 -0.25810041619E+02  0.68410595133E+01  0.36820919473E+02  0.00000000000E+00 0.  1.
         11    1    4    4    0    0  0.17767367154E+01  0.22740827868E+02  0.24347808917E+01  0.22939708013E+02  0.51100000000E-03 0. -1.
        -11    1    4    4    0    0  0.19325387654E+02 -0.12142979790E+01  0.11315938851E+01  0.19396536612E+02  0.51100000000E-03 0.  1.
        -12    1    4    4    0    0  0.42518056451E+01  0.42835117303E+01 -0.10407434290E+02  0.12030835902E+02  0.00000000000E+00 0.  1.
</event>
<event>
 8    1  0.1240174E-006  0.9118800E+02  0.7816164E-02  0.1184000E+00
        -11   -1    0    0    0    0  0.00000000000E+00  0.00000000000E+00  0.45593999997E+02  0.45594000000E+02  0.51100000000E-03 0. -1.
         11   -1    0    0    0    0 -0.00000000000E+00 -0.00000000000E+00 -0.45593999997E+02  0.45594000000E+02  0.51100000000E-03 0.  1.
         23    2    1    2    0    0  0.19984014443E-14  0.00000000000E+00  0.00000000000E+00  0.91188000000E+02  0.91188000000E+02 0.  0.
    9900012    2    3    3    0    0 -0.13503786470E+01 -0.33857770024E+02  0.14408594374E+02  0.54367086033E+02  0.40000004230E+02 0.  0.
        -12    1    3    3    0    0  0.13503786470E+01  0.33857770024E+02 -0.14408594374E+02  0.36820913967E+02  0.00000000000E+00 0.  1.
         11    1    4    4    0    0 -0.52852996265E+01 -0.10618141031E+02  0.11132942536E+02  0.16267197696E+02  0.51100000000E-03 0. -1.
        -11    1    4    4    0    0 -0.11711981281E+02 -0.92810800502E+01  0.74850431667E+01  0.16713312774E+02  0.51100000000E-03 0.  1.
        -12    1    4    4    0    0  0.15646902261E+02 -0.13958548943E+02 -0.42093913287E+01  0.21386575563E+02  0.00000000000E+00 0.  1.
</event>
<event>
 8    1  0.1240174E-006  0.9118800E+02  0.7816164E-02  0.1184000E+00
        -11   -1    0    0    0    0  0.00000000000E+00  0.00000000000E+00  0.45593999997E+02  0.45594000000E+02  0.51100000000E-03 0.  1.
         11   -1    0    0    0    0 -0.00000000000E+00 -0.00000000000E+00 -0.45593999997E+02  0.45594000000E+02  0.51100000000E-03 0. -1.
         23    2    1    2    0    0  0.00000000000E+00  0.00000000000E+00 -0.13322676296E-14  0.91188000000E+02  0.91188000000E+02 0.  0.
    9900012    2    3    3    0    0  0.32130520219E+02  0.17539890973E+02 -0.39700628060E+01  0.54367088774E+02  0.40000010477E+02 0.  0.
        -12    1    3    3    0    0 -0.32130520219E+02 -0.17539890973E+02  0.39700628060E+01  0.36820911226E+02  0.00000000000E+00 0.  1.
         11    1    4    4    0    0  0.99155821071E+01 -0.18805352779E+01  0.44544046889E+01  0.11031631921E+02  0.51100000000E-03 0. -1.
        -11    1    4    4    0    0  0.25220615071E+02  0.82258201083E+01  0.34381927356E+01  0.26750041319E+02  0.51100000000E-03 0.  1.
         12    1    4    4    0    0 -0.30056769596E+01  0.11194606143E+02 -0.11862660230E+02  0.16585415533E+02  0.00000000000E+00 0. -1.
</event>
<event>
 8    1  0.1240174E-006  0.9118800E+02  0.7816164E-02  0.1184000E+00
        -11   -1    0    0    0    0  0.00000000000E+00  0.00000000000E+00  0.45593999997E+02  0.45594000000E+02  0.51100000000E-03 0.  1.
         11   -1    0    0    0    0 -0.00000000000E+00 -0.00000000000E+00 -0.45593999997E+02  0.45594000000E+02  0.51100000000E-03 0. -1.
         23    2    1    2    0    0  0.00000000000E+00 -0.35527136788E-14  0.00000000000E+00  0.91188000000E+02  0.91188000000E+02 0.  0.
    9900012    2    3    3    0    0 -0.57161692118E+01 -0.31730545300E+02  0.17784186975E+02  0.54367090155E+02  0.40000013625E+02 0.  0.
         12    1    3    3    0    0  0.57161692118E+01  0.31730545300E+02 -0.17784186975E+02  0.36820909845E+02  0.00000000000E+00 0. -1.
         11    1    4    4    0    0 -0.62117188118E+01  0.66729627848E+01  0.11278441600E+02  0.14502314578E+02  0.51100000000E-03 0. -1.
        -11    1    4    4    0    0  0.43558429632E+01 -0.20142371847E+02  0.44910450491E+01  0.21091657058E+02  0.51100000000E-03 0.  1.
         12    1    4    4    0    0 -0.38602933632E+01 -0.18261136238E+02  0.20147003261E+01  0.18773118519E+02  0.00000000000E+00 0. -1.
</event>
<event>
 8    1  0.1240174E-006  0.9118800E+02  0.7816164E-02  0.1184000E+00
        -11   -1    0    0    0    0  0.00000000000E+00  0.00000000000E+00  0.45593999997E+02  0.45594000000E+02  0.51100000000E-03 0.  1.
         11   -1    0    0    0    0 -0.00000000000E+00 -0.00000000000E+00 -0.45593999997E+02  0.45594000000E+02  0.51100000000E-03 0. -1.
         23    2    1    2    0    0 -0.17763568394E-14  0.00000000000E+00 -0.35527136788E-14  0.91188000000E+02  0.91188000000E+02 0.  0.
    9900012    2    3    3    0    0 -0.15205648419E+02 -0.12160895505E+02 -0.31251904510E+02  0.54367073086E+02  0.39999974714E+02 0.  0.
        -12    1    3    3    0    0  0.15205648419E+02  0.12160895505E+02  0.31251904510E+02  0.36820926914E+02  0.00000000000E+00 0.  1.
         11    1    4    4    0    0 -0.34508732199E+01  0.10955107590E+02 -0.94088790407E+01  0.14847555804E+02  0.51100000000E-03 0. -1.
        -11    1    4    4    0    0 -0.47814360395E+01 -0.18629120077E+02 -0.24187681005E+02  0.30902267847E+02  0.51100000000E-03 0.  1.
        -12    1    4    4    0    0 -0.69733391593E+01 -0.44868830177E+01  0.23446555360E+01  0.86172494352E+01  0.00000000000E+00 0.  1.
</event>
<event>
 8    1  0.1240174E-006  0.9118800E+02  0.7816164E-02  0.1184000E+00
        -11   -1    0    0    0    0  0.00000000000E+00  0.00000000000E+00  0.45593999997E+02  0.45594000000E+02  0.51100000000E-03 0. -1.
         11   -1    0    0    0    0 -0.00000000000E+00 -0.00000000000E+00 -0.45593999997E+02  0.45594000000E+02  0.51100000000E-03 0.  1.
         23    2    1    2    0    0  0.35527136788E-14  0.00000000000E+00  0.17763568394E-14  0.91188000000E+02  0.91188000000E+02 0.  0.
    9900012    2    3    3    0    0  0.31651140273E+02  0.11410906756E+02  0.14959166649E+02  0.54367080125E+02  0.39999990761E+02 0.  0.
        -12    1    3    3    0    0 -0.31651140273E+02 -0.11410906756E+02 -0.14959166649E+02  0.36820919875E+02  0.00000000000E+00 0.  1.
         11    1    4    4    0    0  0.23548531643E+02  0.16204717570E+02  0.13131384399E+02  0.31457264194E+02  0.51100000000E-03 0. -1.
        -11    1    4    4    0    0  0.17518258184E+01  0.81598623802E+01 -0.15662929990E+00  0.83472618721E+01  0.51100000000E-03 0.  1.
         12    1    4    4    0    0  0.63507828120E+01 -0.12953673193E+02  0.19844115505E+01  0.14562554059E+02  0.00000000000E+00 0. -1.
</event>
<event>
 8    1  0.1240174E-006  0.9118800E+02  0.7816164E-02  0.1184000E+00
        -11   -1    0    0    0    0  0.00000000000E+00  0.00000000000E+00  0.45593999997E+02  0.45594000000E+02  0.51100000000E-03 0.  1.
         11   -1    0    0    0    0 -0.00000000000E+00 -0.00000000000E+00 -0.45593999997E+02  0.45594000000E+02  0.51100000000E-03 0. -1.
         23    2    1    2    0    0 -0.35527136788E-14  0.00000000000E+00 -0.88817841970E-15  0.91188000000E+02  0.91188000000E+02 0.  0.
    9900012    2    3    3    0    0  0.27701869050E+02  0.23583549053E+02  0.56749421086E+01  0.54367050763E+02  0.39999923824E+02 0.  0.
         12    1    3    3    0    0 -0.27701869050E+02 -0.23583549053E+02 -0.56749421086E+01  0.36820949237E+02  0.00000000000E+00 0. -1.
         11    1    4    4    0    0  0.10075429755E+02 -0.27459865844E+01  0.85974857156E+01  0.13526695383E+02  0.51100000000E-03 0. -1.
        -11    1    4    4    0    0  0.64973602885E+01  0.26095564443E+02  0.47664772066E+01  0.27311416652E+02  0.51100000000E-03 0.  1.
         12    1    4    4    0    0  0.11129079006E+02  0.23397119447E+00 -0.76890208137E+01  0.13528938729E+02  0.00000000000E+00 0. -1.
</event>
<event>
 8    1  0.1240174E-006  0.9118800E+02  0.7816164E-02  0.1184000E+00
        -11   -1    0    0    0    0  0.00000000000E+00  0.00000000000E+00  0.45593999997E+02  0.45594000000E+02  0.51100000000E-03 0. -1.
         11   -1    0    0    0    0 -0.00000000000E+00 -0.00000000000E+00 -0.45593999997E+02  0.45594000000E+02  0.51100000000E-03 0.  1.
         23    2    1    2    0    0  0.00000000000E+00  0.00000000000E+00 -0.35527136788E-14  0.91188000000E+02  0.91188000000E+02 0.  0.
    9900012    2    3    3    0    0  0.16962916296E+02 -0.22462118906E+02  0.23738012144E+02  0.54367074760E+02  0.39999978530E+02 0.  0.
        -12    1    3    3    0    0 -0.16962916296E+02  0.22462118906E+02 -0.23738012144E+02  0.36820925240E+02  0.00000000000E+00 0.  1.
         11    1    4    4    0    0  0.10028059635E+02 -0.26962892986E+02  0.20340620017E+02  0.35232093340E+02  0.51100000000E-03 0. -1.
        -11    1    4    4    0    0 -0.24385211925E+01 -0.12123693027E+01  0.70566365786E+01  0.75638842532E+01  0.51100000000E-03 0.  1.
        -12    1    4    4    0    0  0.93733778529E+01  0.57131433824E+01 -0.36592444512E+01  0.11571097166E+02  0.00000000000E+00 0.  1.
</event>
<event>
 8    1  0.1240174E-006  0.9118800E+02  0.7816164E-02  0.1184000E+00
        -11   -1    0    0    0    0  0.00000000000E+00  0.00000000000E+00  0.45593999997E+02  0.45594000000E+02  0.51100000000E-03 0.  1.
         11   -1    0    0    0    0 -0.00000000000E+00 -0.00000000000E+00 -0.45593999997E+02  0.45594000000E+02  0.51100000000E-03 0. -1.
         23    2    1    2    0    0  0.35527136788E-14  0.00000000000E+00  0.00000000000E+00  0.91188000000E+02  0.91188000000E+02 0.  0.
    9900012    2    3    3    0    0  0.19667783100E+02 -0.29093929038E+01 -0.30991876872E+02  0.54367045487E+02  0.39999911797E+02 0.  0.
        -12    1    3    3    0    0 -0.19667783100E+02  0.29093929038E+01  0.30991876872E+02  0.36820954513E+02  0.00000000000E+00 0.  1.
         11    1    4    4    0    0  0.20275377844E+01 -0.33777496650E+01 -0.22975949977E+02  0.23311250071E+02  0.51100000000E-03 0. -1.
        -11    1    4    4    0    0 -0.32752997190E+01 -0.67141961863E+01  0.17672775993E+00  0.74725666032E+01  0.51100000000E-03 0.  1.
         12    1    4    4    0    0  0.20915545035E+02  0.71825529475E+01 -0.81926546551E+01  0.23583228813E+02  0.00000000000E+00 0. -1.
</event>
<event>
 8    1  0.1240174E-006  0.9118800E+02  0.7816164E-02  0.1184000E+00
        -11   -1    0    0    0    0  0.00000000000E+00  0.00000000000E+00  0.45593999997E+02  0.45594000000E+02  0.51100000000E-03 0. -1.
         11   -1    0    0    0    0 -0.00000000000E+00 -0.00000000000E+00 -0.45593999997E+02  0.45594000000E+02  0.51100000000E-03 0.  1.
         23    2    1    2    0    0 -0.35527136788E-14  0.17763568394E-14 -0.14210854715E-13  0.91188000000E+02  0.91188000000E+02 0.  0.
    9900012    2    3    3    0    0  0.17574699077E+02 -0.86471814413E+01  0.31179114326E+02  0.54367068933E+02  0.39999965245E+02 0.  0.
        -12    1    3    3    0    0 -0.17574699077E+02  0.86471814413E+01 -0.31179114326E+02  0.36820931067E+02  0.00000000000E+00 0.  1.
         11    1    4    4    0    0 -0.11528316109E+01  0.10355601669E+02  0.76349621912E+01  0.12917436068E+02  0.51100000000E-03 0. -1.
        -11    1    4    4    0    0  0.17583195072E+01  0.28238989736E+01 -0.19384461955E+01  0.38501515316E+01  0.51100000000E-03 0.  1.
        -12    1    4    4    0    0  0.16969211180E+02 -0.21826682083E+02  0.25482598330E+02  0.37599481333E+02  0.00000000000E+00 0.  1.
</event>
<event>
 8    1  0.1240174E-006  0.9118800E+02  0.7816164E-02  0.1184000E+00
        -11   -1    0    0    0    0  0.00000000000E+00  0.00000000000E+00  0.45593999997E+02  0.45594000000E+02  0.51100000000E-03 0.  1.
         11   -1    0    0    0    0 -0.00000000000E+00 -0.00000000000E+00 -0.45593999997E+02  0.45594000000E+02  0.51100000000E-03 0. -1.
         23    2    1    2    0    0  0.00000000000E+00 -0.35527136788E-14  0.00000000000E+00  0.91188000000E+02  0.91188000000E+02 0.  0.
    9900012    2    3    3    0    0 -0.99946192531E+01  0.28527248471E+02 -0.21025786644E+02  0.54367081715E+02  0.39999994386E+02 0.  0.
        -12    1    3    3    0    0  0.99946192531E+01 -0.28527248471E+02  0.21025786644E+02  0.36820918285E+02  0.00000000000E+00 0.  1.
         11    1    4    4    0    0  0.45612354691E+01  0.46406955970E+01  0.23433116913E+01  0.69160707467E+01  0.51100000000E-03 0. -1.
        -11    1    4    4    0    0  0.40252557556E+00  0.99631085524E+01 -0.25034913628E+02  0.26947587266E+02  0.51100000000E-03 0.  1.
        -12    1    4    4    0    0 -0.14958380298E+02  0.13923444322E+02  0.16658152927E+01  0.20503423702E+02  0.00000000000E+00 0.  1.
</event>
<event>
 8    1  0.1240174E-006  0.9118800E+02  0.7816164E-02  0.1184000E+00
        -11   -1    0    0    0    0  0.00000000000E+00  0.00000000000E+00  0.45593999997E+02  0.45594000000E+02  0.51100000000E-03 0. -1.
         11   -1    0    0    0    0 -0.00000000000E+00 -0.00000000000E+00 -0.45593999997E+02  0.45594000000E+02  0.51100000000E-03 0.  1.
         23    2    1    2    0    0  0.00000000000E+00  0.00000000000E+00  0.88817841970E-15  0.91188000000E+02  0.91188000000E+02 0.  0.
    9900012    2    3    3    0    0 -0.84567049421E+01  0.35006811358E+02 -0.76672600428E+01  0.54367087783E+02  0.40000008219E+02 0.  0.
         12    1    3    3    0    0  0.84567049421E+01 -0.35006811358E+02  0.76672600428E+01  0.36820912217E+02  0.00000000000E+00 0. -1.
         11    1    4    4    0    0 -0.62512136638E+01  0.65197794787E+01  0.75903423459E+01  0.11798241136E+02  0.51100000000E-03 0. -1.
        -11    1    4    4    0    0 -0.50753456973E+01  0.33211112501E+02 -0.10290065591E+02  0.35137196497E+02  0.51100000000E-03 0.  1.
         12    1    4    4    0    0  0.28698544190E+01 -0.47240806222E+01 -0.49675367980E+01  0.74316501499E+01  0.00000000000E+00 0. -1.
</event>
<event>
 8    1  0.1240174E-006  0.9118800E+02  0.7816164E-02  0.1184000E+00
        -11   -1    0    0    0    0  0.00000000000E+00  0.00000000000E+00  0.45593999997E+02  0.45594000000E+02  0.51100000000E-03 0. -1.
         11   -1    0    0    0    0 -0.00000000000E+00 -0.00000000000E+00 -0.45593999997E+02  0.45594000000E+02  0.51100000000E-03 0.  1.
         23    2    1    2    0    0 -0.71054273576E-14  0.17763568394E-14  0.44408920985E-15  0.91188000000E+02  0.91188000000E+02 0.  0.
    9900012    2    3    3    0    0  0.33164900577E+02 -0.15989846842E+02 -0.43912368462E+00  0.54367100202E+02  0.40000036531E+02 0.  0.
        -12    1    3    3    0    0 -0.33164900577E+02  0.15989846842E+02  0.43912368462E+00  0.36820899798E+02  0.00000000000E+00 0.  1.
         11    1    4    4    0    0 -0.19530881963E+01 -0.17408608900E+02  0.61073161742E+00  0.17528468578E+02  0.51100000000E-03 0. -1.
        -11    1    4    4    0    0  0.24949249862E+02 -0.17013098325E+01  0.35352292845E+01  0.25255838338E+02  0.51100000000E-03 0.  1.
         12    1    4    4    0    0  0.10168738911E+02  0.31200718898E+01 -0.45850845865E+01  0.11582793286E+02  0.00000000000E+00 0. -1.
</event>
<event>
 8    1  0.1240174E-006  0.9118800E+02  0.7816164E-02  0.1184000E+00
        -11   -1    0    0    0    0  0.00000000000E+00  0.00000000000E+00  0.45593999997E+02  0.45594000000E+02  0.51100000000E-03 0.  1.
         11   -1    0    0    0    0 -0.00000000000E+00 -0.00000000000E+00 -0.45593999997E+02  0.45594000000E+02  0.51100000000E-03 0. -1.
         23    2    1    2    0    0  0.00000000000E+00  0.00000000000E+00 -0.17763568394E-14  0.91188000000E+02  0.91188000000E+02 0.  0.
    9900012    2    3    3    0    0 -0.12873809240E+02 -0.33861875698E+02 -0.65892354380E+01  0.54367087276E+02  0.40000007063E+02 0.  0.
         12    1    3    3    0    0  0.12873809240E+02  0.33861875698E+02  0.65892354380E+01  0.36820912724E+02  0.00000000000E+00 0. -1.
         11    1    4    4    0    0  0.10473055379E+02 -0.18460395749E+02  0.14067663851E+01  0.21270874267E+02  0.51100000000E-03 0. -1.
        -11    1    4    4    0    0 -0.10704924850E+02 -0.13671319273E+02 -0.10213942475E+02  0.20145098854E+02  0.51100000000E-03 0.  1.
        -12    1    4    4    0    0 -0.12641939769E+02 -0.17301606764E+01  0.22179406524E+01  0.12951114154E+02  0.00000000000E+00 0.  1.
</event>
<event>
 8    1  0.1240174E-006  0.9118800E+02  0.7816164E-02  0.1184000E+00
        -11   -1    0    0    0    0  0.00000000000E+00  0.00000000000E+00  0.45593999997E+02  0.45594000000E+02  0.51100000000E-03 0.  1.
         11   -1    0    0    0    0 -0.00000000000E+00 -0.00000000000E+00 -0.45593999997E+02  0.45594000000E+02  0.51100000000E-03 0. -1.
         23    2    1    2    0    0  0.00000000000E+00  0.00000000000E+00  0.00000000000E+00  0.91188000000E+02  0.91188000000E+02 0.  0.
    9900012    2    3    3    0    0 -0.28750045772E+02 -0.14895168210E+02 -0.17531369627E+02  0.54367080825E+02  0.39999992356E+02 0.  0.
        -12    1    3    3    0    0  0.28750045772E+02  0.14895168210E+02  0.17531369627E+02  0.36820919175E+02  0.00000000000E+00 0.  1.
         11    1    4    4    0    0 -0.98218063750E+01 -0.13624900100E+02 -0.61837298376E+01  0.17898164659E+02  0.51100000000E-03 0. -1.
        -11    1    4    4    0    0 -0.82029646559E+01 -0.14736288199E+02 -0.89327796058E+01  0.19085108613E+02  0.51100000000E-03 0.  1.
         12    1    4    4    0    0 -0.10725274741E+02  0.13466020089E+02 -0.24148601838E+01  0.17383807552E+02  0.00000000000E+00 0. -1.
</event>
<event>
 8    1  0.1240174E-006  0.9118800E+02  0.7816164E-02  0.1184000E+00
        -11   -1    0    0    0    0  0.00000000000E+00  0.00000000000E+00  0.45593999997E+02  0.45594000000E+02  0.51100000000E-03 0. -1.
         11   -1    0    0    0    0 -0.00000000000E+00 -0.00000000000E+00 -0.45593999997E+02  0.45594000000E+02  0.51100000000E-03 0.  1.
         23    2    1    2    0    0  0.17763568394E-14  0.00000000000E+00  0.33306690739E-15  0.91188000000E+02  0.91188000000E+02 0.  0.
    9900012    2    3    3    0    0  0.86185964898E+01  0.35793417104E+02 -0.57529741305E+00  0.54367083654E+02  0.39999998807E+02 0.  0.
         12    1    3    3    0    0 -0.86185964898E+01 -0.35793417104E+02  0.57529741305E+00  0.36820916346E+02  0.00000000000E+00 0. -1.
         11    1    4    4    0    0  0.16851857213E+02  0.21493520058E+02  0.71788264162E+00  0.27321637062E+02  0.51100000000E-03 0. -1.
        -11    1    4    4    0    0  0.59423848632E+01  0.92618434429E+01 -0.40968317182E+01  0.11742134057E+02  0.51100000000E-03 0.  1.
         12    1    4    4    0    0 -0.14175645586E+02  0.50380536032E+01  0.28036516635E+01  0.15303312535E+02  0.00000000000E+00 0. -1.
</event>
<event>
 8    1  0.1240174E-006  0.9118800E+02  0.7816164E-02  0.1184000E+00
        -11   -1    0    0    0    0  0.00000000000E+00  0.00000000000E+00  0.45593999997E+02  0.45594000000E+02  0.51100000000E-03 0.  1.
         11   -1    0    0    0    0 -0.00000000000E+00 -0.00000000000E+00 -0.45593999997E+02  0.45594000000E+02  0.51100000000E-03 0. -1.
         23    2    1    2    0    0 -0.17763568394E-14  0.00000000000E+00  0.00000000000E+00  0.91188000000E+02  0.91188000000E+02 0.  0.
    9900012    2    3    3    0    0  0.47293041665E+01 -0.31534401282E+02  0.18411775381E+02  0.54367105730E+02  0.40000049134E+02 0.  0.
        -12    1    3    3    0    0 -0.47293041665E+01  0.31534401282E+02 -0.18411775381E+02  0.36820894270E+02  0.00000000000E+00 0.  1.
         11    1    4    4    0    0  0.14971525681E+02 -0.18821944066E+01  0.78484731684E+01  0.17008461669E+02  0.51100000000E-03 0. -1.
        -11    1    4    4    0    0  0.21831754519E+01 -0.66187948920E-01 -0.19381936818E+01  0.29201422752E+01  0.51100000000E-03 0.  1.
         12    1    4    4    0    0 -0.12425396966E+02 -0.29586018927E+02  0.12501495894E+02  0.34438501787E+02  0.00000000000E+00 0. -1.
</event>
<event>
 8    1  0.1240174E-006  0.9118800E+02  0.7816164E-02  0.1184000E+00
        -11   -1    0    0    0    0  0.00000000000E+00  0.00000000000E+00  0.45593999997E+02  0.45594000000E+02  0.51100000000E-03 0.  1.
         11   -1    0    0    0    0 -0.00000000000E+00 -0.00000000000E+00 -0.45593999997E+02  0.45594000000E+02  0.51100000000E-03 0. -1.
         23    2    1    2    0    0 -0.71054273576E-14  0.00000000000E+00 -0.17763568394E-14  0.91188000000E+02  0.91188000000E+02 0.  0.
    9900012    2    3    3    0    0  0.33237721369E+02  0.90930167000E+01  0.12974983920E+02  0.54367091779E+02  0.40000017329E+02 0.  0.
        -12    1    3    3    0    0 -0.33237721369E+02 -0.90930167000E+01 -0.12974983920E+02  0.36820908221E+02  0.00000000000E+00 0.  1.
         11    1    4    4    0    0  0.19909740075E+02 -0.31055329548E+01  0.15164280392E+02  0.25218990560E+02  0.51100000000E-03 0. -1.
        -11    1    4    4    0    0  0.22926545642E+01 -0.49721688063E+01 -0.62794170629E+01  0.83312547974E+01  0.51100000000E-03 0.  1.
        -12    1    4    4    0    0  0.11035326729E+02  0.17170718461E+02  0.40901205910E+01  0.20816846422E+02  0.00000000000E+00 0.  1.
</event>
<event>
 8    1  0.1240174E-006  0.9118800E+02  0.7816164E-02  0.1184000E+00
        -11   -1    0    0    0    0  0.00000000000E+00  0.00000000000E+00  0.45593999997E+02  0.45594000000E+02  0.51100000000E-03 0. -1.
         11   -1    0    0    0    0 -0.00000000000E+00 -0.00000000000E+00 -0.45593999997E+02  0.45594000000E+02  0.51100000000E-03 0.  1.
         23    2    1    2    0    0 -0.35527136788E-14  0.00000000000E+00  0.00000000000E+00  0.91188000000E+02  0.91188000000E+02 0.  0.
    9900012    2    3    3    0    0 -0.71982779385E+01 -0.96649365057E+01 -0.34793002415E+02  0.54367092624E+02  0.40000019254E+02 0.  0.
         12    1    3    3    0    0  0.71982779385E+01  0.96649365057E+01  0.34793002415E+02  0.36820907376E+02  0.00000000000E+00 0. -1.
         11    1    4    4    0    0  0.11641002760E+02 -0.11179475912E+02 -0.51270063948E+01  0.16934574744E+02  0.51100000000E-03 0. -1.
        -11    1    4    4    0    0 -0.63235462875E+00 -0.16374205886E+01 -0.11102281187E+02  0.11240180887E+02  0.51100000000E-03 0.  1.
         12    1    4    4    0    0 -0.18206926070E+02  0.31519599952E+01 -0.18563714834E+02  0.26192336993E+02  0.00000000000E+00 0. -1.
</event>
<event>
 8    1  0.1240174E-006  0.9118800E+02  0.7816164E-02  0.1184000E+00
        -11   -1    0    0    0    0  0.00000000000E+00  0.00000000000E+00  0.45593999997E+02  0.45594000000E+02  0.51100000000E-03 0. -1.
         11   -1    0    0    0    0 -0.00000000000E+00 -0.00000000000E+00 -0.45593999997E+02  0.45594000000E+02  0.51100000000E-03 0.  1.
         23    2    1    2    0    0  0.00000000000E+00  0.00000000000E+00  0.00000000000E+00  0.91188000000E+02  0.91188000000E+02 0.  0.
    9900012    2    3    3    0    0  0.19693955867E+02  0.12479887056E+02 -0.28498791806E+02  0.54367073708E+02  0.39999976133E+02 0.  0.
         12    1    3    3    0    0 -0.19693955867E+02 -0.12479887056E+02  0.28498791806E+02  0.36820926292E+02  0.00000000000E+00 0. -1.
         11    1    4    4    0    0  0.88238860869E+01  0.10558858584E+02 -0.30859419976E+02  0.33788374654E+02  0.51100000000E-03 0. -1.
        -11    1    4    4    0    0  0.85931003730E+01 -0.60620201472E+01 -0.26988853369E+01  0.10856953744E+02  0.51100000000E-03 0.  1.
         12    1    4    4    0    0  0.22769694068E+01  0.79830486193E+01  0.50595135070E+01  0.97217453096E+01  0.00000000000E+00 0. -1.
</event>
<event>
 8    1  0.1240174E-006  0.9118800E+02  0.7816164E-02  0.1184000E+00
        -11   -1    0    0    0    0  0.00000000000E+00  0.00000000000E+00  0.45593999997E+02  0.45594000000E+02  0.51100000000E-03 0.  1.
         11   -1    0    0    0    0 -0.00000000000E+00 -0.00000000000E+00 -0.45593999997E+02  0.45594000000E+02  0.51100000000E-03 0. -1.
         23    2    1    2    0    0  0.00000000000E+00  0.88817841970E-15  0.00000000000E+00  0.91188000000E+02  0.91188000000E+02 0.  0.
    9900012    2    3    3    0    0  0.22481093292E+02  0.66562571151E+01  0.28391448654E+02  0.54367086499E+02  0.40000005291E+02 0.  0.
         12    1    3    3    0    0 -0.22481093292E+02 -0.66562571151E+01 -0.28391448654E+02  0.36820913501E+02  0.00000000000E+00 0. -1.
         11    1    4    4    0    0 -0.41544199111E+01 -0.60561351201E+01  0.10435197084E+02  0.12760459076E+02  0.51100000000E-03 0. -1.
        -11    1    4    4    0    0  0.26672247201E+02  0.32443164923E+01  0.83929030895E+01  0.28149159540E+02  0.51100000000E-03 0.  1.
        -12    1    4    4    0    0 -0.36733998070E-01  0.94680757430E+01  0.95633484808E+01  0.13457467883E+02  0.00000000000E+00 0.  1.
</event>
<event>
 8    1  0.1240174E-006  0.9118800E+02  0.7816164E-02  0.1184000E+00
        -11   -1    0    0    0    0  0.00000000000E+00  0.00000000000E+00  0.45593999997E+02  0.45594000000E+02  0.51100000000E-03 0.  1.
         11   -1    0    0    0    0 -0.00000000000E+00 -0.00000000000E+00 -0.45593999997E+02  0.45594000000E+02  0.51100000000E-03 0. -1.
         23    2    1    2    0    0  0.00000000000E+00  0.17763568394E-14  0.00000000000E+00  0.91188000000E+02  0.91188000000E+02 0.  0.
    9900012    2    3    3    0    0 -0.27548327180E+02 -0.14270081065E+02 -0.19830138944E+02  0.54367082649E+02  0.39999996515E+02 0.  0.
        -12    1    3    3    0    0  0.27548327180E+02  0.14270081065E+02  0.19830138944E+02  0.36820917351E+02  0.00000000000E+00 0.  1.
         11    1    4    4    0    0 -0.98115685555E+00 -0.19970288865E+02 -0.10192247958E+01  0.20020337798E+02  0.51100000000E-03 0. -1.
        -11    1    4    4    0    0 -0.11174871774E+01  0.27180074141E+01 -0.31878325559E+01  0.43357373722E+01  0.51100000000E-03 0.  1.
         12    1    4    4    0    0 -0.25449683147E+02  0.29822003860E+01 -0.15623081592E+02  0.30011007479E+02  0.00000000000E+00 0. -1.
</event>
<event>
 8    1  0.1240174E-006  0.9118800E+02  0.7816164E-02  0.1184000E+00
        -11   -1    0    0    0    0  0.00000000000E+00  0.00000000000E+00  0.45593999997E+02  0.45594000000E+02  0.51100000000E-03 0.  1.
         11   -1    0    0    0    0 -0.00000000000E+00 -0.00000000000E+00 -0.45593999997E+02  0.45594000000E+02  0.51100000000E-03 0. -1.
         23    2    1    2    0    0  0.00000000000E+00 -0.26645352591E-14  0.00000000000E+00  0.91188000000E+02  0.91188000000E+02 0.  0.
    9900012    2    3    3    0    0 -0.33292337209E+02 -0.34715409281E+01 -0.15341105777E+02  0.54367070630E+02  0.39999969115E+02 0.  0.
        -12    1    3    3    0    0  0.33292337209E+02  0.34715409281E+01  0.15341105777E+02  0.36820929370E+02  0.00000000000E+00 0.  1.
         11    1    4    4    0    0 -0.11352256005E+02 -0.14681331195E+02  0.31335671318E+01  0.18821117004E+02  0.51100000000E-03 0. -1.
        -11    1    4    4    0    0 -0.34206463597E+00 -0.28605358573E+01 -0.65275043678E+01  0.71349833314E+01  0.51100000000E-03 0.  1.
         12    1    4    4    0    0 -0.21598016568E+02  0.14070326124E+02 -0.11947168541E+02  0.28410970294E+02  0.00000000000E+00 0. -1.
</event>
<event>
 8    1  0.1240174E-006  0.9118800E+02  0.7816164E-02  0.1184000E+00
        -11   -1    0    0    0    0  0.00000000000E+00  0.00000000000E+00  0.45593999997E+02  0.45594000000E+02  0.51100000000E-03 0.  1.
         11   -1    0    0    0    0 -0.00000000000E+00 -0.00000000000E+00 -0.45593999997E+02  0.45594000000E+02  0.51100000000E-03 0. -1.
         23    2    1    2    0    0  0.31086244690E-14  0.00000000000E+00 -0.71054273576E-14  0.91188000000E+02  0.91188000000E+02 0.  0.
    9900012    2    3    3    0    0 -0.26251457569E+01 -0.15561077192E+02  0.33267684587E+02  0.54367117998E+02  0.40000077099E+02 0.  0.
         12    1    3    3    0    0  0.26251457569E+01  0.15561077192E+02 -0.33267684587E+02  0.36820882002E+02  0.00000000000E+00 0. -1.
         11    1    4    4    0    0  0.10102849235E+02  0.27809391121E+01  0.17710931866E+02  0.20578588213E+02  0.51100000000E-03 0. -1.
        -11    1    4    4    0    0  0.25126569761E+01 -0.12831488645E+02  0.33446440608E+01  0.13496191688E+02  0.51100000000E-03 0.  1.
         12    1    4    4    0    0 -0.15240651968E+02 -0.55105276592E+01  0.12212108660E+02  0.20292338097E+02  0.00000000000E+00 0. -1.
</event>
<event>
 8    1  0.1240174E-006  0.9118800E+02  0.7816164E-02  0.1184000E+00
        -11   -1    0    0    0    0  0.00000000000E+00  0.00000000000E+00  0.45593999997E+02  0.45594000000E+02  0.51100000000E-03 0. -1.
         11   -1    0    0    0    0 -0.00000000000E+00 -0.00000000000E+00 -0.45593999997E+02  0.45594000000E+02  0.51100000000E-03 0.  1.
         23    2    1    2    0    0  0.22204460493E-15  0.00000000000E+00  0.71054273576E-14  0.91188000000E+02  0.91188000000E+02 0.  0.
    9900012    2    3    3    0    0  0.31564665431E+00 -0.24766494862E+02  0.27245173994E+02  0.54367103670E+02  0.40000044436E+02 0.  0.
        -12    1    3    3    0    0 -0.31564665431E+00  0.24766494862E+02 -0.27245173994E+02  0.36820896330E+02  0.00000000000E+00 0.  1.
         11    1    4    4    0    0  0.92946382911E-01 -0.98335220727E+01  0.27451855080E+01  0.10209938252E+02  0.51100000000E-03 0. -1.
        -11    1    4    4    0    0  0.49823094018E+01 -0.10081024435E+02 -0.61126968753E+01  0.12799043870E+02  0.51100000000E-03 0.  1.
        -12    1    4    4    0    0 -0.47596091304E+01 -0.48519483548E+01  0.30612685362E+02  0.31358121547E+02  0.00000000000E+00 0.  1.
</event>
<event>
 8    1  0.1240174E-006  0.9118800E+02  0.7816164E-02  0.1184000E+00
        -11   -1    0    0    0    0  0.00000000000E+00  0.00000000000E+00  0.45593999997E+02  0.45594000000E+02  0.51100000000E-03 0.  1.
         11   -1    0    0    0    0 -0.00000000000E+00 -0.00000000000E+00 -0.45593999997E+02  0.45594000000E+02  0.51100000000E-03 0. -1.
         23    2    1    2    0    0 -0.17763568394E-14 -0.35527136788E-14  0.35527136788E-14  0.91188000000E+02  0.91188000000E+02 0.  0.
    9900012    2    3    3    0    0 -0.86483431915E+01  0.18992000784E+02  0.30336306301E+02  0.54367062835E+02  0.39999951344E+02 0.  0.
         12    1    3    3    0    0  0.86483431915E+01 -0.18992000784E+02 -0.30336306301E+02  0.36820937165E+02  0.00000000000E+00 0. -1.
         11    1    4    4    0    0 -0.41425630603E+01  0.27842634450E+02  0.14411476470E+02  0.31623784975E+02  0.51100000000E-03 0. -1.
        -11    1    4    4    0    0  0.29653253011E+01 -0.28777483288E+01 -0.39957854438E-01  0.41323342648E+01  0.51100000000E-03 0.  1.
        -12    1    4    4    0    0 -0.74711054323E+01 -0.59728853380E+01  0.15964787685E+02  0.18610943595E+02  0.00000000000E+00 0.  1.
</event>
<event>
 8    1  0.1240174E-006  0.9118800E+02  0.7816164E-02  0.1184000E+00
        -11   -1    0    0    0    0  0.00000000000E+00  0.00000000000E+00  0.45593999997E+02  0.45594000000E+02  0.51100000000E-03 0.  1.
         11   -1    0    0    0    0 -0.00000000000E+00 -0.00000000000E+00 -0.45593999997E+02  0.45594000000E+02  0.51100000000E-03 0. -1.
         23    2    1    2    0    0  0.00000000000E+00 -0.35527136788E-14  0.17763568394E-14  0.91188000000E+02  0.91188000000E+02 0.  0.
    9900012    2    3    3    0    0  0.24432640367E+02 -0.25851150315E+02  0.95154708879E+01  0.54367081025E+02  0.39999992813E+02 0.  0.
         12    1    3    3    0    0 -0.24432640367E+02  0.25851150315E+02 -0.95154708879E+01  0.36820918975E+02  0.00000000000E+00 0. -1.
         11    1    4    4    0    0  0.13638757454E+02  0.43076997517E+01 -0.47954013631E+01  0.15085352383E+02  0.51100000000E-03 0. -1.
        -11    1    4    4    0    0  0.12839607653E+02 -0.23459249793E+02  0.43351018581E+01  0.27092158163E+02  0.51100000000E-03 0.  1.
         12    1    4    4    0    0 -0.20457247398E+01 -0.66996002741E+01  0.99757703928E+01  0.12189570479E+02  0.00000000000E+00 0. -1.
</event>
<event>
 8    1  0.1240174E-006  0.9118800E+02  0.7816164E-02  0.1184000E+00
        -11   -1    0    0    0    0  0.00000000000E+00  0.00000000000E+00  0.45593999997E+02  0.45594000000E+02  0.51100000000E-03 0. -1.
         11   -1    0    0    0    0 -0.00000000000E+00 -0.00000000000E+00 -0.45593999997E+02  0.45594000000E+02  0.51100000000E-03 0.  1.
         23    2    1    2    0    0 -0.88817841970E-15  0.00000000000E+00  0.22204460493E-14  0.91188000000E+02  0.91188000000E+02 0.  0.
    9900012    2    3    3    0    0 -0.69752608373E+01  0.36005791713E+02 -0.32723604102E+01  0.54367086876E+02  0.40000006150E+02 0.  0.
        -12    1    3    3    0    0  0.69752608373E+01 -0.36005791713E+02  0.32723604102E+01  0.36820913124E+02  0.00000000000E+00 0.  1.
         11    1    4    4    0    0 -0.15082636218E+02  0.22013274458E+02  0.73596878151E+01  0.27680953247E+02  0.51100000000E-03 0. -1.
        -11    1    4    4    0    0  0.16576012994E+01  0.53110279423E+01 -0.14237375770E+02  0.15285860426E+02  0.51100000000E-03 0.  1.
         12    1    4    4    0    0  0.64497740816E+01  0.86814893131E+01  0.36053275449E+01  0.11400273203E+02  0.00000000000E+00 0. -1.
</event>
<event>
 8    1  0.1240174E-006  0.9118800E+02  0.7816164E-02  0.1184000E+00
        -11   -1    0    0    0    0  0.00000000000E+00  0.00000000000E+00  0.45593999997E+02  0.45594000000E+02  0.51100000000E-03 0.  1.
         11   -1    0    0    0    0 -0.00000000000E+00 -0.00000000000E+00 -0.45593999997E+02  0.45594000000E+02  0.51100000000E-03 0. -1.
         23    2    1    2    0    0  0.17763568394E-14 -0.17763568394E-14  0.00000000000E+00  0.91188000000E+02  0.91188000000E+02 0.  0.
    9900012    2    3    3    0    0  0.13807320736E+02 -0.87095918716E+01  0.33004292935E+02  0.54367048782E+02  0.39999919308E+02 0.  0.
         12    1    3    3    0    0 -0.13807320736E+02  0.87095918716E+01 -0.33004292935E+02  0.36820951218E+02  0.00000000000E+00 0. -1.
         11    1    4    4    0    0  0.87968027151E+01 -0.70324437994E+00 -0.85336794006E+00  0.88660322450E+01  0.51100000000E-03 0. -1.
        -11    1    4    4    0    0  0.63754033230E+00  0.99512153528E+01  0.48080278270E+01  0.11070242839E+02  0.51100000000E-03 0.  1.
        -12    1    4    4    0    0  0.43729776887E+01 -0.17957562844E+02  0.29049633048E+02  0.34430773698E+02  0.00000000000E+00 0.  1.
</event>
<event>
 8    1  0.1240174E-006  0.9118800E+02  0.7816164E-02  0.1184000E+00
        -11   -1    0    0    0    0  0.00000000000E+00  0.00000000000E+00  0.45593999997E+02  0.45594000000E+02  0.51100000000E-03 0. -1.
         11   -1    0    0    0    0 -0.00000000000E+00 -0.00000000000E+00 -0.45593999997E+02  0.45594000000E+02  0.51100000000E-03 0.  1.
         23    2    1    2    0    0  0.17763568394E-14  0.00000000000E+00  0.35527136788E-14  0.91188000000E+02  0.91188000000E+02 0.  0.
    9900012    2    3    3    0    0  0.14176384432E+02 -0.18854313177E+02  0.28272193871E+02  0.54367191383E+02  0.40000244395E+02 0.  0.
        -12    1    3    3    0    0 -0.14176384432E+02  0.18854313177E+02 -0.28272193871E+02  0.36820808617E+02  0.00000000000E+00 0.  1.
         11    1    4    4    0    0 -0.34489758390E+01 -0.46418229250E+01  0.89664249606E+01  0.10669523478E+02  0.51100000000E-03 0. -1.
        -11    1    4    4    0    0 -0.80000680219E+01 -0.10716682626E+00 -0.10378613778E+01  0.80678206217E+01  0.51100000000E-03 0.  1.
         12    1    4    4    0    0  0.25625428293E+02 -0.14105323426E+02  0.20343630288E+02  0.35629847284E+02  0.00000000000E+00 0. -1.
</event>
<event>
 8    1  0.1240174E-006  0.9118800E+02  0.7816164E-02  0.1184000E+00
        -11   -1    0    0    0    0  0.00000000000E+00  0.00000000000E+00  0.45593999997E+02  0.45594000000E+02  0.51100000000E-03 0.  1.
         11   -1    0    0    0    0 -0.00000000000E+00 -0.00000000000E+00 -0.45593999997E+02  0.45594000000E+02  0.51100000000E-03 0. -1.
         23    2    1    2    0    0  0.17763568394E-14  0.31918911958E-15  0.00000000000E+00  0.91188000000E+02  0.91188000000E+02 0.  0.
    9900012    2    3    3    0    0 -0.11663984949E+02 -0.11138755963E+00 -0.34924504840E+02  0.54367055004E+02  0.39999933493E+02 0.  0.
        -12    1    3    3    0    0  0.11663984949E+02  0.11138755963E+00  0.34924504840E+02  0.36820944996E+02  0.00000000000E+00 0.  1.
         11    1    4    4    0    0  0.92230591492E+01  0.26741911675E+01 -0.56296093762E+01  0.11131424907E+02  0.51100000000E-03 0. -1.
        -11    1    4    4    0    0 -0.17697888093E+02  0.76954713407E+00 -0.49030624411E+01  0.18380627500E+02  0.51100000000E-03 0.  1.
         12    1    4    4    0    0 -0.31891560052E+01 -0.35551258612E+01 -0.24391833022E+02  0.24855002597E+02  0.00000000000E+00 0. -1.
</event>
<event>
 8    1  0.1240174E-006  0.9118800E+02  0.7816164E-02  0.1184000E+00
        -11   -1    0    0    0    0  0.00000000000E+00  0.00000000000E+00  0.45593999997E+02  0.45594000000E+02  0.51100000000E-03 0.  1.
         11   -1    0    0    0    0 -0.00000000000E+00 -0.00000000000E+00 -0.45593999997E+02  0.45594000000E+02  0.51100000000E-03 0. -1.
         23    2    1    2    0    0  0.00000000000E+00 -0.22204460493E-15 -0.13322676296E-14  0.91188000000E+02  0.91188000000E+02 0.  0.
    9900012    2    3    3    0    0  0.36608756846E+02 -0.18583524762E+01  0.34821799041E+01  0.54367080285E+02  0.39999991126E+02 0.  0.
        -12    1    3    3    0    0 -0.36608756846E+02  0.18583524762E+01 -0.34821799041E+01  0.36820919715E+02  0.00000000000E+00 0.  1.
         11    1    4    4    0    0  0.12296469534E+02  0.87131576107E+00 -0.56717415283E+01  0.13569488066E+02  0.51100000000E-03 0. -1.
        -11    1    4    4    0    0 -0.26836039248E+01  0.77613123309E+00 -0.80996534459E+01  0.85678758115E+01  0.51100000000E-03 0.  1.
         12    1    4    4    0    0  0.26995891237E+02 -0.35057994704E+01  0.17253574878E+02  0.32229716407E+02  0.00000000000E+00 0. -1.
</event>
<event>
 8    1  0.1240174E-006  0.9118800E+02  0.7816164E-02  0.1184000E+00
        -11   -1    0    0    0    0  0.00000000000E+00  0.00000000000E+00  0.45593999997E+02  0.45594000000E+02  0.51100000000E-03 0.  1.
         11   -1    0    0    0    0 -0.00000000000E+00 -0.00000000000E+00 -0.45593999997E+02  0.45594000000E+02  0.51100000000E-03 0. -1.
         23    2    1    2    0    0  0.00000000000E+00  0.00000000000E+00  0.88817841970E-15  0.91188000000E+02  0.91188000000E+02 0.  0.
    9900012    2    3    3    0    0 -0.34156440389E+02  0.12640542513E+02 -0.54156895283E+01  0.54367144114E+02  0.40000136637E+02 0.  0.
         12    1    3    3    0    0  0.34156440389E+02 -0.12640542513E+02  0.54156895283E+01  0.36820855886E+02  0.00000000000E+00 0. -1.
         11    1    4    4    0    0 -0.13265641213E+02  0.69566353545E+01 -0.48478750223E+01  0.15744011711E+02  0.51100000000E-03 0.  1.
        -11    1    4    4    0    0 -0.24638579826E+02  0.99154859648E+00  0.98865851179E+01  0.26566658616E+02  0.51100000000E-03 0. -1.
         12    1    4    4    0    0  0.37477806505E+01  0.46923585622E+01 -0.10454399624E+02  0.12056473787E+02  0.00000000000E+00 0. -1.
</event>
<event>
 8    1  0.1240174E-006  0.9118800E+02  0.7816164E-02  0.1184000E+00
        -11   -1    0    0    0    0  0.00000000000E+00  0.00000000000E+00  0.45593999997E+02  0.45594000000E+02  0.51100000000E-03 0.  1.
         11   -1    0    0    0    0 -0.00000000000E+00 -0.00000000000E+00 -0.45593999997E+02  0.45594000000E+02  0.51100000000E-03 0. -1.
         23    2    1    2    0    0  0.00000000000E+00  0.88817841970E-15  0.00000000000E+00  0.91188000000E+02  0.91188000000E+02 0.  0.
    9900012    2    3    3    0    0 -0.24619890994E+02  0.22638745153E+01 -0.27285823177E+02  0.54367077866E+02  0.39999985611E+02 0.  0.
        -12    1    3    3    0    0  0.24619890994E+02 -0.22638745153E+01  0.27285823177E+02  0.36820922134E+02  0.00000000000E+00 0.  1.
         11    1    4    4    0    0 -0.74510869892E+01  0.19272390559E+02 -0.97490100547E+01  0.22847033341E+02  0.51100000000E-03 0. -1.
        -11    1    4    4    0    0 -0.18440457392E+01 -0.66590937813E+00 -0.60164173285E+01  0.63278130282E+01  0.51100000000E-03 0.  1.
        -12    1    4    4    0    0 -0.15324758266E+02 -0.16342606666E+02 -0.11520395794E+02  0.25192231496E+02  0.00000000000E+00 0.  1.
</event>
<event>
 8    1  0.1240174E-006  0.9118800E+02  0.7816164E-02  0.1184000E+00
        -11   -1    0    0    0    0  0.00000000000E+00  0.00000000000E+00  0.45593999997E+02  0.45594000000E+02  0.51100000000E-03 0.  1.
         11   -1    0    0    0    0 -0.00000000000E+00 -0.00000000000E+00 -0.45593999997E+02  0.45594000000E+02  0.51100000000E-03 0. -1.
         23    2    1    2    0    0 -0.35527136788E-14  0.17763568394E-14  0.00000000000E+00  0.91188000000E+02  0.91188000000E+02 0.  0.
    9900012    2    3    3    0    0  0.18170355906E+02 -0.11409952431E+02  0.29923739934E+02  0.54367094799E+02  0.40000024213E+02 0.  0.
         12    1    3    3    0    0 -0.18170355906E+02  0.11409952431E+02 -0.29923739934E+02  0.36820905201E+02  0.00000000000E+00 0. -1.
         11    1    4    4    0    0  0.24383869196E+02 -0.11632869836E+02  0.11725285771E+02  0.29451299874E+02  0.51100000000E-03 0. -1.
        -11    1    4    4    0    0  0.44386621920E+01  0.34951846406E+01  0.42897636452E+01  0.70936669022E+01  0.51100000000E-03 0.  1.
         12    1    4    4    0    0 -0.10652175482E+02 -0.32722672348E+01  0.13908690517E+02  0.17822128023E+02  0.00000000000E+00 0. -1.
</event>
<event>
 8    1  0.1240174E-006  0.9118800E+02  0.7816164E-02  0.1184000E+00
        -11   -1    0    0    0    0  0.00000000000E+00  0.00000000000E+00  0.45593999997E+02  0.45594000000E+02  0.51100000000E-03 0.  1.
         11   -1    0    0    0    0 -0.00000000000E+00 -0.00000000000E+00 -0.45593999997E+02  0.45594000000E+02  0.51100000000E-03 0. -1.
         23    2    1    2    0    0  0.00000000000E+00 -0.35527136788E-14  0.00000000000E+00  0.91188000000E+02  0.91188000000E+02 0.  0.
    9900012    2    3    3    0    0 -0.63938799244E+01 -0.25253055984E+02 -0.26022704166E+02  0.54367086525E+02  0.40000005352E+02 0.  0.
        -12    1    3    3    0    0  0.63938799244E+01  0.25253055984E+02  0.26022704166E+02  0.36820913475E+02  0.00000000000E+00 0.  1.
         11    1    4    4    0    0 -0.19416259063E+02 -0.23436091305E+01 -0.58563188028E+01  0.20415192626E+02  0.51100000000E-03 0. -1.
        -11    1    4    4    0    0  0.11454740055E+01 -0.44003361872E+01 -0.69152372915E+01  0.82762054298E+01  0.51100000000E-03 0.  1.
         12    1    4    4    0    0  0.11876905133E+02 -0.18509110666E+02 -0.13251148072E+02  0.25675688470E+02  0.00000000000E+00 0. -1.
</event>
<event>
 8    1  0.1240174E-006  0.9118800E+02  0.7816164E-02  0.1184000E+00
        -11   -1    0    0    0    0  0.00000000000E+00  0.00000000000E+00  0.45593999997E+02  0.45594000000E+02  0.51100000000E-03 0. -1.
         11   -1    0    0    0    0 -0.00000000000E+00 -0.00000000000E+00 -0.45593999997E+02  0.45594000000E+02  0.51100000000E-03 0.  1.
         23    2    1    2    0    0  0.00000000000E+00  0.00000000000E+00  0.17763568394E-14  0.91188000000E+02  0.91188000000E+02 0.  0.
    9900012    2    3    3    0    0 -0.31044856003E+02 -0.17483694275E+02  0.92907226151E+01  0.54367079635E+02  0.39999989645E+02 0.  0.
         12    1    3    3    0    0  0.31044856003E+02  0.17483694275E+02 -0.92907226151E+01  0.36820920365E+02  0.00000000000E+00 0. -1.
         11    1    4    4    0    0 -0.13306038754E+02  0.48967294948E+01  0.16426706971E+02  0.21699431542E+02  0.51100000000E-03 0. -1.
        -11    1    4    4    0    0 -0.45444557438E+00 -0.11368476804E+02 -0.22207900333E+01  0.11592268727E+02  0.51100000000E-03 0.  1.
         12    1    4    4    0    0 -0.17284371675E+02 -0.11011946967E+02 -0.49151943228E+01  0.21075379366E+02  0.00000000000E+00 0. -1.
</event>
<event>
 8    1  0.1240174E-006  0.9118800E+02  0.7816164E-02  0.1184000E+00
        -11   -1    0    0    0    0  0.00000000000E+00  0.00000000000E+00  0.45593999997E+02  0.45594000000E+02  0.51100000000E-03 0. -1.
         11   -1    0    0    0    0 -0.00000000000E+00 -0.00000000000E+00 -0.45593999997E+02  0.45594000000E+02  0.51100000000E-03 0.  1.
         23    2    1    2    0    0  0.00000000000E+00 -0.17763568394E-14  0.00000000000E+00  0.91188000000E+02  0.91188000000E+02 0.  0.
    9900012    2    3    3    0    0 -0.25097211232E+02 -0.12468074278E+02 -0.23884240808E+02  0.54367084112E+02  0.39999999850E+02 0.  0.
        -12    1    3    3    0    0  0.25097211232E+02  0.12468074278E+02  0.23884240808E+02  0.36820915888E+02  0.00000000000E+00 0.  1.
         11    1    4    4    0    0  0.13605871544E+01 -0.46879712500E+01 -0.12371310016E+02  0.13299533211E+02  0.51100000000E-03 0. -1.
        -11    1    4    4    0    0 -0.77899287817E+01  0.10040397366E+02 -0.80126066789E+01  0.15023130025E+02  0.51100000000E-03 0.  1.
         12    1    4    4    0    0 -0.18667869605E+02 -0.17820500394E+02 -0.35003241128E+01  0.26044420876E+02  0.00000000000E+00 0. -1.
</event>
<event>
 8    1  0.1240174E-006  0.9118800E+02  0.7816164E-02  0.1184000E+00
        -11   -1    0    0    0    0  0.00000000000E+00  0.00000000000E+00  0.45593999997E+02  0.45594000000E+02  0.51100000000E-03 0. -1.
         11   -1    0    0    0    0 -0.00000000000E+00 -0.00000000000E+00 -0.45593999997E+02  0.45594000000E+02  0.51100000000E-03 0.  1.
         23    2    1    2    0    0 -0.35527136788E-14  0.00000000000E+00 -0.35527136788E-14  0.91188000000E+02  0.91188000000E+02 0.  0.
    9900012    2    3    3    0    0 -0.19794070904E+02 -0.52314717263E+01 -0.30604045694E+02  0.54367066386E+02  0.39999959441E+02 0.  0.
        -12    1    3    3    0    0  0.19794070904E+02  0.52314717263E+01  0.30604045694E+02  0.36820933614E+02  0.00000000000E+00 0.  1.
         11    1    4    4    0    0 -0.23588315689E+01 -0.66216152601E+01 -0.12822838672E+02  0.14623100454E+02  0.51100000000E-03 0. -1.
        -11    1    4    4    0    0 -0.43717508211E+00 -0.12881166959E+02 -0.96726892795E+01  0.16114481141E+02  0.51100000000E-03 0.  1.
         12    1    4    4    0    0 -0.16998064253E+02  0.14271310493E+02 -0.81085177423E+01  0.23629484791E+02  0.00000000000E+00 0. -1.
</event>
<event>
 8    1  0.1240174E-006  0.9118800E+02  0.7816164E-02  0.1184000E+00
        -11   -1    0    0    0    0  0.00000000000E+00  0.00000000000E+00  0.45593999997E+02  0.45594000000E+02  0.51100000000E-03 0.  1.
         11   -1    0    0    0    0 -0.00000000000E+00 -0.00000000000E+00 -0.45593999997E+02  0.45594000000E+02  0.51100000000E-03 0. -1.
         23    2    1    2    0    0  0.00000000000E+00  0.00000000000E+00 -0.35527136788E-14  0.91188000000E+02  0.91188000000E+02 0.  0.
    9900012    2    3    3    0    0  0.17707332973E+02 -0.99582804662E+01 -0.30709356485E+02  0.54367060759E+02  0.39999946613E+02 0.  0.
        -12    1    3    3    0    0 -0.17707332973E+02  0.99582804662E+01  0.30709356485E+02  0.36820939241E+02  0.00000000000E+00 0.  1.
         11    1    4    4    0    0  0.58626661988E+01 -0.15310486246E+02 -0.77197645495E+01  0.18121164670E+02  0.51100000000E-03 0. -1.
        -11    1    4    4    0    0  0.29084604580E+01  0.53727653158E+01  0.43389050080E+01  0.74934535632E+01  0.51100000000E-03 0.  1.
        -12    1    4    4    0    0  0.89362063162E+01 -0.20559536074E-01 -0.27328496943E+02  0.28752442526E+02  0.00000000000E+00 0.  1.
</event>
<event>
 8    1  0.1240174E-006  0.9118800E+02  0.7816164E-02  0.1184000E+00
        -11   -1    0    0    0    0  0.00000000000E+00  0.00000000000E+00  0.45593999997E+02  0.45594000000E+02  0.51100000000E-03 0. -1.
         11   -1    0    0    0    0 -0.00000000000E+00 -0.00000000000E+00 -0.45593999997E+02  0.45594000000E+02  0.51100000000E-03 0.  1.
         23    2    1    2    0    0  0.44408920985E-15 -0.35527136788E-14  0.00000000000E+00  0.91188000000E+02  0.91188000000E+02 0.  0.
    9900012    2    3    3    0    0 -0.31816483608E+01 -0.26318316885E+02  0.25553920760E+02  0.54367088059E+02  0.40000008848E+02 0.  0.
        -12    1    3    3    0    0  0.31816483608E+01  0.26318316885E+02 -0.25553920760E+02  0.36820911941E+02  0.00000000000E+00 0.  1.
         11    1    4    4    0    0 -0.67995694359E+01 -0.73910047405E+01  0.21525394142E+02  0.23752972210E+02  0.51100000000E-03 0. -1.
        -11    1    4    4    0    0  0.87689592065E+01  0.10480712723E+01  0.46402153227E+01  0.99762065665E+01  0.51100000000E-03 0.  1.
         12    1    4    4    0    0 -0.51510381314E+01 -0.19975383417E+02 -0.61168870455E+00  0.20637909283E+02  0.00000000000E+00 0. -1.
</event>
<event>
 8    1  0.1240174E-006  0.9118800E+02  0.7816164E-02  0.1184000E+00
        -11   -1    0    0    0    0  0.00000000000E+00  0.00000000000E+00  0.45593999997E+02  0.45594000000E+02  0.51100000000E-03 0.  1.
         11   -1    0    0    0    0 -0.00000000000E+00 -0.00000000000E+00 -0.45593999997E+02  0.45594000000E+02  0.51100000000E-03 0. -1.
         23    2    1    2    0    0 -0.88817841970E-15  0.00000000000E+00  0.00000000000E+00  0.91188000000E+02  0.91188000000E+02 0.  0.
    9900012    2    3    3    0    0  0.33997919604E+01 -0.32826942825E+02  0.16328355919E+02  0.54367055313E+02  0.39999934196E+02 0.  0.
         12    1    3    3    0    0 -0.33997919604E+01  0.32826942825E+02 -0.16328355919E+02  0.36820944687E+02  0.00000000000E+00 0. -1.
         11    1    4    4    0    0  0.61892440556E+01 -0.26667487486E+01  0.11288802528E+02  0.13147446659E+02  0.51100000000E-03 0.  1.
        -11    1    4    4    0    0 -0.57606942680E+01 -0.31281294359E+02  0.11659802963E+02  0.33877071606E+02  0.51100000000E-03 0. -1.
         12    1    4    4    0    0  0.29712421727E+01  0.11211002819E+01 -0.66202495725E+01  0.73425370474E+01  0.00000000000E+00 0. -1.
</event>
<event>
 8    1  0.1240174E-006  0.9118800E+02  0.7816164E-02  0.1184000E+00
        -11   -1    0    0    0    0  0.00000000000E+00  0.00000000000E+00  0.45593999997E+02  0.45594000000E+02  0.51100000000E-03 0.  1.
         11   -1    0    0    0    0 -0.00000000000E+00 -0.00000000000E+00 -0.45593999997E+02  0.45594000000E+02  0.51100000000E-03 0. -1.
         23    2    1    2    0    0  0.17763568394E-14  0.00000000000E+00 -0.71054273576E-14  0.91188000000E+02  0.91188000000E+02 0.  0.
    9900012    2    3    3    0    0 -0.15963149255E+02 -0.10740721134E+02  0.31394197540E+02  0.54367070302E+02  0.39999968367E+02 0.  0.
         12    1    3    3    0    0  0.15963149255E+02  0.10740721134E+02 -0.31394197540E+02  0.36820929698E+02  0.00000000000E+00 0. -1.
         11    1    4    4    0    0 -0.15446647129E+02 -0.42763491075E+01  0.13331978231E+02  0.20847726807E+02  0.51100000000E-03 0. -1.
        -11    1    4    4    0    0 -0.98217593952E+01  0.21185670013E+01  0.18278789890E+02  0.20858318338E+02  0.51100000000E-03 0.  1.
         12    1    4    4    0    0  0.93052572690E+01 -0.85829390283E+01 -0.21657058123E+00  0.12661025157E+02  0.00000000000E+00 0. -1.
</event>
<event>
 8    1  0.1240174E-006  0.9118800E+02  0.7816164E-02  0.1184000E+00
        -11   -1    0    0    0    0  0.00000000000E+00  0.00000000000E+00  0.45593999997E+02  0.45594000000E+02  0.51100000000E-03 0.  1.
         11   -1    0    0    0    0 -0.00000000000E+00 -0.00000000000E+00 -0.45593999997E+02  0.45594000000E+02  0.51100000000E-03 0. -1.
         23    2    1    2    0    0  0.00000000000E+00  0.00000000000E+00  0.00000000000E+00  0.91188000000E+02  0.91188000000E+02 0.  0.
    9900012    2    3    3    0    0  0.84047395729E+01 -0.32455945693E+02 -0.15223617924E+02  0.54366992398E+02  0.39999790769E+02 0.  0.
        -12    1    3    3    0    0 -0.84047395729E+01  0.32455945693E+02  0.15223617924E+02  0.36821007602E+02  0.00000000000E+00 0.  1.
         11    1    4    4    0    0 -0.15097710215E+02 -0.15163953443E+02 -0.48089471148E+01  0.21931992850E+02  0.51100000000E-03 0. -1.
        -11    1    4    4    0    0  0.32219599988E+00  0.70156789459E+00  0.71368903111E+00  0.10513610547E+01  0.51100000000E-03 0.  1.
         12    1    4    4    0    0  0.23180253788E+02 -0.17993560145E+02 -0.11128359841E+02  0.31383638494E+02  0.00000000000E+00 0. -1.
</event>
<event>
 8    1  0.1240174E-006  0.9118800E+02  0.7816164E-02  0.1184000E+00
        -11   -1    0    0    0    0  0.00000000000E+00  0.00000000000E+00  0.45593999997E+02  0.45594000000E+02  0.51100000000E-03 0. -1.
         11   -1    0    0    0    0 -0.00000000000E+00 -0.00000000000E+00 -0.45593999997E+02  0.45594000000E+02  0.51100000000E-03 0.  1.
         23    2    1    2    0    0 -0.71054273576E-14  0.34694469520E-15 -0.35527136788E-14  0.91188000000E+02  0.91188000000E+02 0.  0.
    9900012    2    3    3    0    0 -0.36313460741E+02 -0.36959163926E-01 -0.60919715266E+01  0.54367069620E+02  0.39999966812E+02 0.  0.
         12    1    3    3    0    0  0.36313460741E+02  0.36959163926E-01  0.60919715266E+01  0.36820930380E+02  0.00000000000E+00 0. -1.
         11    1    4    4    0    0 -0.33252443838E+02 -0.58886750665E+01  0.76039621056E+01  0.34615339883E+02  0.51100000000E-03 0. -1.
        -11    1    4    4    0    0 -0.13372450289E+01  0.57914586097E+01 -0.15887424621E+02  0.16962885322E+02  0.51100000000E-03 0.  1.
        -12    1    4    4    0    0 -0.17237718740E+01  0.60257292810E-01  0.21914909888E+01  0.27888444146E+01  0.00000000000E+00 0.  1.
</event>
<event>
 8    1  0.1240174E-006  0.9118800E+02  0.7816164E-02  0.1184000E+00
        -11   -1    0    0    0    0  0.00000000000E+00  0.00000000000E+00  0.45593999997E+02  0.45594000000E+02  0.51100000000E-03 0.  1.
         11   -1    0    0    0    0 -0.00000000000E+00 -0.00000000000E+00 -0.45593999997E+02  0.45594000000E+02  0.51100000000E-03 0. -1.
         23    2    1    2    0    0  0.00000000000E+00  0.00000000000E+00  0.00000000000E+00  0.91188000000E+02  0.91188000000E+02 0.  0.
    9900012    2    3    3    0    0 -0.32583678878E+01 -0.31603929914E+02  0.18610583824E+02  0.54367093200E+02  0.40000020568E+02 0.  0.
         12    1    3    3    0    0  0.32583678878E+01  0.31603929914E+02 -0.18610583824E+02  0.36820906800E+02  0.00000000000E+00 0. -1.
         11    1    4    4    0    0 -0.12015229803E+02 -0.15108648183E+02  0.89206611323E+01  0.21265351924E+02  0.51100000000E-03 0. -1.
        -11    1    4    4    0    0  0.43276512192E+01 -0.12952627984E+02  0.18274034049E+02  0.22813142209E+02  0.51100000000E-03 0.  1.
        -12    1    4    4    0    0  0.44292106955E+01 -0.35426537466E+01 -0.85841113581E+01  0.10288599067E+02  0.00000000000E+00 0.  1.
</event>
<event>
 8    1  0.1240174E-006  0.9118800E+02  0.7816164E-02  0.1184000E+00
        -11   -1    0    0    0    0  0.00000000000E+00  0.00000000000E+00  0.45593999997E+02  0.45594000000E+02  0.51100000000E-03 0. -1.
         11   -1    0    0    0    0 -0.00000000000E+00 -0.00000000000E+00 -0.45593999997E+02  0.45594000000E+02  0.51100000000E-03 0.  1.
         23    2    1    2    0    0  0.00000000000E+00 -0.19984014443E-14  0.00000000000E+00  0.91188000000E+02  0.91188000000E+02 0.  0.
    9900012    2    3    3    0    0  0.11650406745E+02 -0.16618334086E+01  0.34889631405E+02  0.54367081392E+02  0.39999993649E+02 0.  0.
        -12    1    3    3    0    0 -0.11650406745E+02  0.16618334086E+01 -0.34889631405E+02  0.36820918608E+02  0.00000000000E+00 0.  1.
         11    1    4    4    0    0 -0.70042967401E+01  0.12675922343E+02  0.22918781050E+02  0.27111062413E+02  0.51100000000E-03 0. -1.
        -11    1    4    4    0    0  0.35592639088E+01 -0.64754591090E+01  0.26450513509E+01  0.78483263919E+01  0.51100000000E-03 0.  1.
         12    1    4    4    0    0  0.15095439576E+02 -0.78622966429E+01  0.93257990034E+01  0.19407692587E+02  0.00000000000E+00 0. -1.
</event>
<event>
 8    1  0.1240174E-006  0.9118800E+02  0.7816164E-02  0.1184000E+00
        -11   -1    0    0    0    0  0.00000000000E+00  0.00000000000E+00  0.45593999997E+02  0.45594000000E+02  0.51100000000E-03 0. -1.
         11   -1    0    0    0    0 -0.00000000000E+00 -0.00000000000E+00 -0.45593999997E+02  0.45594000000E+02  0.51100000000E-03 0.  1.
         23    2    1    2    0    0 -0.71054273576E-14  0.00000000000E+00  0.44408920985E-15  0.91188000000E+02  0.91188000000E+02 0.  0.
    9900012    2    3    3    0    0 -0.31656954317E+02 -0.18504849673E+02  0.33446569997E+01  0.54367096311E+02  0.40000027659E+02 0.  0.
         12    1    3    3    0    0  0.31656954317E+02  0.18504849673E+02 -0.33446569997E+01  0.36820903689E+02  0.00000000000E+00 0. -1.
         11    1    4    4    0    0 -0.10541561148E+02 -0.15223323713E+02  0.25540537208E+01  0.18692171810E+02  0.51100000000E-03 0. -1.
        -11    1    4    4    0    0 -0.26922745070E+02 -0.74278797031E+01 -0.20293872591E+01  0.28002250122E+02  0.51100000000E-03 0.  1.
         12    1    4    4    0    0  0.58073519014E+01  0.41463537433E+01  0.28199905381E+01  0.76726743777E+01  0.00000000000E+00 0. -1.
</event>
<event>
 8    1  0.1240174E-006  0.9118800E+02  0.7816164E-02  0.1184000E+00
        -11   -1    0    0    0    0  0.00000000000E+00  0.00000000000E+00  0.45593999997E+02  0.45594000000E+02  0.51100000000E-03 0.  1.
         11   -1    0    0    0    0 -0.00000000000E+00 -0.00000000000E+00 -0.45593999997E+02  0.45594000000E+02  0.51100000000E-03 0. -1.
         23    2    1    2    0    0  0.00000000000E+00  0.71054273576E-14  0.00000000000E+00  0.91188000000E+02  0.91188000000E+02 0.  0.
    9900012    2    3    3    0    0 -0.12057673781E+02 -0.33664737052E+02  0.87794062454E+01  0.54367082143E+02  0.39999995362E+02 0.  0.
         12    1    3    3    0    0  0.12057673781E+02  0.33664737052E+02 -0.87794062454E+01  0.36820917857E+02  0.00000000000E+00 0. -1.
         11    1    4    4    0    0 -0.24687179525E+00 -0.64794137769E+00 -0.10904341971E+02  0.10926364802E+02  0.51100000000E-03 0. -1.
        -11    1    4    4    0    0 -0.39198131895E+01 -0.26215162044E+02  0.19695557272E+02  0.33022941009E+02  0.51100000000E-03 0.  1.
        -12    1    4    4    0    0 -0.78909887964E+01 -0.68016336309E+01 -0.11809055311E-01  0.10417776331E+02  0.00000000000E+00 0.  1.
</event>
<event>
 8    1  0.1240174E-006  0.9118800E+02  0.7816164E-02  0.1184000E+00
        -11   -1    0    0    0    0  0.00000000000E+00  0.00000000000E+00  0.45593999997E+02  0.45594000000E+02  0.51100000000E-03 0. -1.
         11   -1    0    0    0    0 -0.00000000000E+00 -0.00000000000E+00 -0.45593999997E+02  0.45594000000E+02  0.51100000000E-03 0.  1.
         23    2    1    2    0    0  0.71054273576E-14 -0.71054273576E-14 -0.35527136788E-14  0.91188000000E+02  0.91188000000E+02 0.  0.
    9900012    2    3    3    0    0 -0.22338706002E+02  0.27183963865E+02  0.10853316128E+02  0.54367080019E+02  0.39999990519E+02 0.  0.
         12    1    3    3    0    0  0.22338706002E+02 -0.27183963865E+02 -0.10853316128E+02  0.36820919981E+02  0.00000000000E+00 0. -1.
         11    1    4    4    0    0 -0.98472154171E+01  0.12318519327E+01 -0.17506033398E+01  0.10077188247E+02  0.51100000000E-03 0. -1.
        -11    1    4    4    0    0 -0.21234105816E+02  0.12959398013E+02  0.11776142016E+01  0.24904216955E+02  0.51100000000E-03 0.  1.
         12    1    4    4    0    0  0.87426152310E+01  0.12992713919E+02  0.11426305267E+02  0.19385674817E+02  0.00000000000E+00 0. -1.
</event>
<event>
 8    1  0.1240174E-006  0.9118800E+02  0.7816164E-02  0.1184000E+00
        -11   -1    0    0    0    0  0.00000000000E+00  0.00000000000E+00  0.45593999997E+02  0.45594000000E+02  0.51100000000E-03 0. -1.
         11   -1    0    0    0    0 -0.00000000000E+00 -0.00000000000E+00 -0.45593999997E+02  0.45594000000E+02  0.51100000000E-03 0.  1.
         23    2    1    2    0    0  0.00000000000E+00  0.71054273576E-14  0.17763568394E-14  0.91188000000E+02  0.91188000000E+02 0.  0.
    9900012    2    3    3    0    0 -0.12215158325E+02 -0.32271489204E+02 -0.12849940550E+02  0.54367080939E+02  0.39999992617E+02 0.  0.
         12    1    3    3    0    0  0.12215158325E+02  0.32271489204E+02  0.12849940550E+02  0.36820919061E+02  0.00000000000E+00 0. -1.
         11    1    4    4    0    0 -0.83641888247E+00  0.17040002682E+01  0.27009129552E+01  0.33012337866E+01  0.51100000000E-03 0. -1.
        -11    1    4    4    0    0 -0.20774871722E+01 -0.24659674637E+02 -0.24754852240E+02  0.35003117230E+02  0.51100000000E-03 0.  1.
         12    1    4    4    0    0 -0.93012522703E+01 -0.93158148354E+01  0.92039987348E+01  0.16062729922E+02  0.00000000000E+00 0. -1.
</event>
<event>
 8    1  0.1240174E-006  0.9118800E+02  0.7816164E-02  0.1184000E+00
        -11   -1    0    0    0    0  0.00000000000E+00  0.00000000000E+00  0.45593999997E+02  0.45594000000E+02  0.51100000000E-03 0.  1.
         11   -1    0    0    0    0 -0.00000000000E+00 -0.00000000000E+00 -0.45593999997E+02  0.45594000000E+02  0.51100000000E-03 0. -1.
         23    2    1    2    0    0 -0.35527136788E-14  0.88817841970E-15 -0.35527136788E-14  0.91188000000E+02  0.91188000000E+02 0.  0.
    9900012    2    3    3    0    0  0.18558587461E+02  0.24948508278E+01  0.31704006410E+02  0.54366953415E+02  0.39999701898E+02 0.  0.
         12    1    3    3    0    0 -0.18558587461E+02 -0.24948508278E+01 -0.31704006410E+02  0.36821046585E+02  0.00000000000E+00 0. -1.
         11    1    4    4    0    0 -0.58568543661E+01 -0.60801371137E+01  0.16301921316E+02  0.18358198420E+02  0.51100000000E-03 0. -1.
        -11    1    4    4    0    0  0.22017066580E+02  0.14636557235E+01  0.17559632453E+02  0.28199897181E+02  0.51100000000E-03 0.  1.
         12    1    4    4    0    0  0.23983752472E+01  0.71113322181E+01 -0.21575473592E+01  0.78088578134E+01  0.00000000000E+00 0. -1.
</event>
<event>
 8    1  0.1240174E-006  0.9118800E+02  0.7816164E-02  0.1184000E+00
        -11   -1    0    0    0    0  0.00000000000E+00  0.00000000000E+00  0.45593999997E+02  0.45594000000E+02  0.51100000000E-03 0. -1.
         11   -1    0    0    0    0 -0.00000000000E+00 -0.00000000000E+00 -0.45593999997E+02  0.45594000000E+02  0.51100000000E-03 0.  1.
         23    2    1    2    0    0 -0.35527136788E-14 -0.17763568394E-14 -0.35527136788E-14  0.91188000000E+02  0.91188000000E+02 0.  0.
    9900012    2    3    3    0    0 -0.30827473819E+02 -0.11795061513E+02 -0.16319616181E+02  0.54366993896E+02  0.39999794185E+02 0.  0.
         12    1    3    3    0    0  0.30827473819E+02  0.11795061513E+02  0.16319616181E+02  0.36821006104E+02  0.00000000000E+00 0. -1.
         11    1    4    4    0    0 -0.78394992734E+01 -0.23380644936E+01 -0.21218801436E+02  0.22741192340E+02  0.51100000000E-03 0. -1.
        -11    1    4    4    0    0  0.21383572452E+01  0.19733969074E+01  0.26408098678E+01  0.39294712216E+01  0.51100000000E-03 0.  1.
         12    1    4    4    0    0 -0.25126331791E+02 -0.11430393927E+02  0.22583753869E+01  0.27696330334E+02  0.00000000000E+00 0. -1.
</event>
<event>
 8    1  0.1240174E-006  0.9118800E+02  0.7816164E-02  0.1184000E+00
        -11   -1    0    0    0    0  0.00000000000E+00  0.00000000000E+00  0.45593999997E+02  0.45594000000E+02  0.51100000000E-03 0. -1.
         11   -1    0    0    0    0 -0.00000000000E+00 -0.00000000000E+00 -0.45593999997E+02  0.45594000000E+02  0.51100000000E-03 0.  1.
         23    2    1    2    0    0 -0.35527136788E-14  0.00000000000E+00 -0.71054273576E-14  0.91188000000E+02  0.91188000000E+02 0.  0.
    9900012    2    3    3    0    0 -0.15948548985E+02  0.77161160066E+01 -0.32278243711E+02  0.54367086405E+02  0.40000005077E+02 0.  0.
         12    1    3    3    0    0  0.15948548985E+02 -0.77161160066E+01  0.32278243711E+02  0.36820913595E+02  0.00000000000E+00 0. -1.
         11    1    4    4    0    0 -0.56117758197E+01  0.77296662632E+01 -0.22186960416E+02  0.24155764967E+02  0.51100000000E-03 0. -1.
        -11    1    4    4    0    0 -0.14328951282E+02  0.62775878413E+01 -0.14686458857E+02  0.21457377006E+02  0.51100000000E-03 0.  1.
         12    1    4    4    0    0  0.39921781170E+01 -0.62911380978E+01  0.45951755615E+01  0.87539444323E+01  0.00000000000E+00 0. -1.
</event>
<event>
 8    1  0.1240174E-006  0.9118800E+02  0.7816164E-02  0.1184000E+00
        -11   -1    0    0    0    0  0.00000000000E+00  0.00000000000E+00  0.45593999997E+02  0.45594000000E+02  0.51100000000E-03 0. -1.
         11   -1    0    0    0    0 -0.00000000000E+00 -0.00000000000E+00 -0.45593999997E+02  0.45594000000E+02  0.51100000000E-03 0.  1.
         23    2    1    2    0    0  0.00000000000E+00  0.17763568394E-14  0.00000000000E+00  0.91188000000E+02  0.91188000000E+02 0.  0.
    9900012    2    3    3    0    0  0.13537412318E+02 -0.11087023658E+02 -0.32397469452E+02  0.54367086748E+02  0.40000005858E+02 0.  0.
         12    1    3    3    0    0 -0.13537412318E+02  0.11087023658E+02  0.32397469452E+02  0.36820913252E+02  0.00000000000E+00 0. -1.
         11    1    4    4    0    0  0.23507580174E+01  0.30622077092E+01 -0.25573490414E+02  0.25863228559E+02  0.51100000000E-03 0. -1.
        -11    1    4    4    0    0 -0.42764387692E+01  0.15290097138E+01 -0.44452118572E+01  0.63549750565E+01  0.51100000000E-03 0.  1.
         12    1    4    4    0    0  0.15463093070E+02 -0.15678241081E+02 -0.23787671808E+01  0.22148883132E+02  0.00000000000E+00 0. -1.
</event>
<event>
 8    1  0.1240174E-006  0.9118800E+02  0.7816164E-02  0.1184000E+00
        -11   -1    0    0    0    0  0.00000000000E+00  0.00000000000E+00  0.45593999997E+02  0.45594000000E+02  0.51100000000E-03 0. -1.
         11   -1    0    0    0    0 -0.00000000000E+00 -0.00000000000E+00 -0.45593999997E+02  0.45594000000E+02  0.51100000000E-03 0.  1.
         23    2    1    2    0    0  0.17763568394E-14  0.17763568394E-14  0.00000000000E+00  0.91188000000E+02  0.91188000000E+02 0.  0.
    9900012    2    3    3    0    0 -0.64606207692E+01 -0.99453732176E+01 -0.34858727776E+02  0.54367068843E+02  0.39999965040E+02 0.  0.
         12    1    3    3    0    0  0.64606207692E+01  0.99453732176E+01  0.34858727776E+02  0.36820931157E+02  0.00000000000E+00 0. -1.
         11    1    4    4    0    0 -0.15575447109E+02 -0.17669134242E+02 -0.25604533999E+02  0.34790588082E+02  0.51100000000E-03 0.  1.
        -11    1    4    4    0    0  0.97095749949E+01  0.21885043769E+01 -0.98182974455E+01  0.13980857019E+02  0.51100000000E-03 0. -1.
         12    1    4    4    0    0 -0.59474865500E+00  0.55352566472E+01  0.56410366877E+00  0.55956237420E+01  0.00000000000E+00 0. -1.
</event>
<event>
 8    1  0.1240174E-006  0.9118800E+02  0.7816164E-02  0.1184000E+00
        -11   -1    0    0    0    0  0.00000000000E+00  0.00000000000E+00  0.45593999997E+02  0.45594000000E+02  0.51100000000E-03 0. -1.
         11   -1    0    0    0    0 -0.00000000000E+00 -0.00000000000E+00 -0.45593999997E+02  0.45594000000E+02  0.51100000000E-03 0.  1.
         23    2    1    2    0    0 -0.17763568394E-14  0.00000000000E+00 -0.35527136788E-14  0.91188000000E+02  0.91188000000E+02 0.  0.
    9900012    2    3    3    0    0 -0.15317089426E+02 -0.22283475369E+02 -0.24992257175E+02  0.54367089885E+02  0.40000013012E+02 0.  0.
         12    1    3    3    0    0  0.15317089426E+02  0.22283475369E+02  0.24992257175E+02  0.36820910115E+02  0.00000000000E+00 0. -1.
         11    1    4    4    0    0  0.76510801729E+01 -0.34899435466E+01  0.37149926079E+01  0.91934707324E+01  0.51100000000E-03 0. -1.
        -11    1    4    4    0    0 -0.49327824126E+00 -0.65529959454E+00  0.25129564353E+01  0.26434241598E+01  0.51100000000E-03 0.  1.
        -12    1    4    4    0    0 -0.22474891357E+02 -0.18138232228E+02 -0.31220206218E+02  0.42530194993E+02  0.00000000000E+00 0.  1.
</event>
<event>
 8    1  0.1240174E-006  0.9118800E+02  0.7816164E-02  0.1184000E+00
        -11   -1    0    0    0    0  0.00000000000E+00  0.00000000000E+00  0.45593999997E+02  0.45594000000E+02  0.51100000000E-03 0.  1.
         11   -1    0    0    0    0 -0.00000000000E+00 -0.00000000000E+00 -0.45593999997E+02  0.45594000000E+02  0.51100000000E-03 0. -1.
         23    2    1    2    0    0  0.00000000000E+00  0.00000000000E+00 -0.35527136788E-14  0.91188000000E+02  0.91188000000E+02 0.  0.
    9900012    2    3    3    0    0  0.32628247656E+02  0.83863521092E+01  0.14860903023E+02  0.54367083587E+02  0.39999998654E+02 0.  0.
         12    1    3    3    0    0 -0.32628247656E+02 -0.83863521092E+01 -0.14860903023E+02  0.36820916413E+02  0.00000000000E+00 0. -1.
         11    1    4    4    0    0 -0.34859089830E+01 -0.23689926720E+01 -0.28447467448E+01  0.50849062942E+01  0.51100000000E-03 0. -1.
        -11    1    4    4    0    0  0.35737994984E+02  0.63554369565E+00  0.12285165344E+02  0.37795945405E+02  0.51100000000E-03 0.  1.
         12    1    4    4    0    0  0.37616165493E+00  0.10119801086E+02  0.54204844234E+01  0.11486231888E+02  0.00000000000E+00 0. -1.
</event>
<event>
 8    1  0.1240174E-006  0.9118800E+02  0.7816164E-02  0.1184000E+00
        -11   -1    0    0    0    0  0.00000000000E+00  0.00000000000E+00  0.45593999997E+02  0.45594000000E+02  0.51100000000E-03 0.  1.
         11   -1    0    0    0    0 -0.00000000000E+00 -0.00000000000E+00 -0.45593999997E+02  0.45594000000E+02  0.51100000000E-03 0. -1.
         23    2    1    2    0    0  0.00000000000E+00  0.00000000000E+00  0.35527136788E-14  0.91188000000E+02  0.91188000000E+02 0.  0.
    9900012    2    3    3    0    0  0.18484983536E+02  0.25240360374E+02 -0.19416714149E+02  0.54367092944E+02  0.40000019984E+02 0.  0.
        -12    1    3    3    0    0 -0.18484983536E+02 -0.25240360374E+02  0.19416714149E+02  0.36820907056E+02  0.00000000000E+00 0.  1.
         11    1    4    4    0    0 -0.81847753315E+01  0.10079416820E+02 -0.77292795927E+01  0.15110491519E+02  0.51100000000E-03 0. -1.
        -11    1    4    4    0    0 -0.13655121264E+01  0.59403425015E+01  0.24042399981E+01  0.65523020865E+01  0.51100000000E-03 0.  1.
        -12    1    4    4    0    0  0.28035270994E+02  0.92206010519E+01 -0.14091674554E+02  0.32704299338E+02  0.00000000000E+00 0.  1.
</event>
<event>
 8    1  0.1240174E-006  0.9118800E+02  0.7816164E-02  0.1184000E+00
        -11   -1    0    0    0    0  0.00000000000E+00  0.00000000000E+00  0.45593999997E+02  0.45594000000E+02  0.51100000000E-03 0.  1.
         11   -1    0    0    0    0 -0.00000000000E+00 -0.00000000000E+00 -0.45593999997E+02  0.45594000000E+02  0.51100000000E-03 0. -1.
         23    2    1    2    0    0  0.00000000000E+00 -0.17763568394E-14  0.00000000000E+00  0.91188000000E+02  0.91188000000E+02 0.  0.
    9900012    2    3    3    0    0 -0.31927687544E+02 -0.13423587946E+02  0.12498178256E+02  0.54367158009E+02  0.40000168312E+02 0.  0.
         12    1    3    3    0    0  0.31927687544E+02  0.13423587946E+02 -0.12498178256E+02  0.36820841991E+02  0.00000000000E+00 0. -1.
         11    1    4    4    0    0  0.17733593712E+01 -0.39818323818E+01 -0.16248577510E+01  0.46518765620E+01  0.51100000000E-03 0. -1.
        -11    1    4    4    0    0 -0.20507454932E+02 -0.79557025327E+00 -0.84353176764E+01  0.22188808539E+02  0.51100000000E-03 0.  1.
        -12    1    4    4    0    0 -0.13193591983E+02 -0.86461853109E+01  0.22558353683E+02  0.27526472908E+02  0.00000000000E+00 0.  1.
</event>
<event>
 8    1  0.1240174E-006  0.9118800E+02  0.7816164E-02  0.1184000E+00
        -11   -1    0    0    0    0  0.00000000000E+00  0.00000000000E+00  0.45593999997E+02  0.45594000000E+02  0.51100000000E-03 0. -1.
         11   -1    0    0    0    0 -0.00000000000E+00 -0.00000000000E+00 -0.45593999997E+02  0.45594000000E+02  0.51100000000E-03 0.  1.
         23    2    1    2    0    0  0.00000000000E+00  0.00000000000E+00  0.35527136788E-14  0.91188000000E+02  0.91188000000E+02 0.  0.
    9900012    2    3    3    0    0 -0.28417725441E+02  0.12294924136E+02 -0.19926082716E+02  0.54367067758E+02  0.39999962569E+02 0.  0.
         12    1    3    3    0    0  0.28417725441E+02 -0.12294924136E+02  0.19926082716E+02  0.36820932242E+02  0.00000000000E+00 0. -1.
         11    1    4    4    0    0 -0.48529865064E+00  0.19401954997E+02 -0.13167445899E+02  0.23453208826E+02  0.51100000000E-03 0. -1.
        -11    1    4    4    0    0 -0.27029303222E+02 -0.55881260137E+01 -0.43732493858E+01  0.27945226703E+02  0.51100000000E-03 0.  1.
         12    1    4    4    0    0 -0.90312356795E+00 -0.15189048477E+01 -0.23853874316E+01  0.29686322295E+01  0.00000000000E+00 0. -1.
</event>
<event>
 8    1  0.1240174E-006  0.9118800E+02  0.7816164E-02  0.1184000E+00
        -11   -1    0    0    0    0  0.00000000000E+00  0.00000000000E+00  0.45593999997E+02  0.45594000000E+02  0.51100000000E-03 0. -1.
         11   -1    0    0    0    0 -0.00000000000E+00 -0.00000000000E+00 -0.45593999997E+02  0.45594000000E+02  0.51100000000E-03 0.  1.
         23    2    1    2    0    0  0.17763568394E-14  0.00000000000E+00 -0.35527136788E-14  0.91188000000E+02  0.91188000000E+02 0.  0.
    9900012    2    3    3    0    0 -0.81316522306E+01  0.26988080548E+02  0.23691793540E+02  0.54367063825E+02  0.39999953602E+02 0.  0.
        -12    1    3    3    0    0  0.81316522306E+01 -0.26988080548E+02 -0.23691793540E+02  0.36820936175E+02  0.00000000000E+00 0.  1.
         11    1    4    4    0    0  0.66955913029E+00  0.49740172762E+01 -0.11849880984E+01  0.51568744747E+01  0.51100000000E-03 0. -1.
        -11    1    4    4    0    0 -0.23695480816E+01  0.25346128404E+02  0.23702753096E+01  0.25566759444E+02  0.51100000000E-03 0.  1.
         12    1    4    4    0    0 -0.64316632793E+01 -0.33320651325E+01  0.22506506329E+02  0.23643429906E+02  0.00000000000E+00 0. -1.
</event>
<event>
 8    1  0.1240174E-006  0.9118800E+02  0.7816164E-02  0.1184000E+00
        -11   -1    0    0    0    0  0.00000000000E+00  0.00000000000E+00  0.45593999997E+02  0.45594000000E+02  0.51100000000E-03 0. -1.
         11   -1    0    0    0    0 -0.00000000000E+00 -0.00000000000E+00 -0.45593999997E+02  0.45594000000E+02  0.51100000000E-03 0.  1.
         23    2    1    2    0    0  0.00000000000E+00  0.00000000000E+00 -0.71054273576E-14  0.91188000000E+02  0.91188000000E+02 0.  0.
    9900012    2    3    3    0    0 -0.94151205293E+01 -0.28925567241E+02  0.20747208653E+02  0.54367087441E+02  0.40000007438E+02 0.  0.
        -12    1    3    3    0    0  0.94151205293E+01  0.28925567241E+02 -0.20747208653E+02  0.36820912559E+02  0.00000000000E+00 0.  1.
         11    1    4    4    0    0 -0.80229900097E+01  0.68271048559E+01  0.44131559510E+01  0.11421631894E+02  0.51100000000E-03 0. -1.
        -11    1    4    4    0    0  0.70386661927E+01 -0.12016491461E+02  0.94598789483E+01  0.16835325918E+02  0.51100000000E-03 0.  1.
         12    1    4    4    0    0 -0.84307967123E+01 -0.23736180637E+02  0.68741737537E+01  0.26110129629E+02  0.00000000000E+00 0. -1.
</event>
<event>
 8    1  0.1240174E-006  0.9118800E+02  0.7816164E-02  0.1184000E+00
        -11   -1    0    0    0    0  0.00000000000E+00  0.00000000000E+00  0.45593999997E+02  0.45594000000E+02  0.51100000000E-03 0.  1.
         11   -1    0    0    0    0 -0.00000000000E+00 -0.00000000000E+00 -0.45593999997E+02  0.45594000000E+02  0.51100000000E-03 0. -1.
         23    2    1    2    0    0  0.00000000000E+00  0.00000000000E+00 -0.17763568394E-14  0.91188000000E+02  0.91188000000E+02 0.  0.
    9900012    2    3    3    0    0  0.12111646686E+02 -0.34140200053E+02  0.65984150447E+01  0.54367023285E+02  0.39999861183E+02 0.  0.
        -12    1    3    3    0    0 -0.12111646686E+02  0.34140200053E+02 -0.65984150447E+01  0.36820976715E+02  0.00000000000E+00 0.  1.
         11    1    4    4    0    0  0.45051776925E+00 -0.26526198291E+02 -0.11384803150E+02  0.28869636386E+02  0.51100000000E-03 0. -1.
        -11    1    4    4    0    0  0.77703354209E+01  0.17106090217E+01  0.74049103363E+01  0.10869084282E+02  0.51100000000E-03 0.  1.
         12    1    4    4    0    0  0.38907934961E+01 -0.93246107839E+01  0.10578307859E+02  0.14628302617E+02  0.00000000000E+00 0. -1.
</event>
<event>
 8    1  0.1240174E-006  0.9118800E+02  0.7816164E-02  0.1184000E+00
        -11   -1    0    0    0    0  0.00000000000E+00  0.00000000000E+00  0.45593999997E+02  0.45594000000E+02  0.51100000000E-03 0. -1.
         11   -1    0    0    0    0 -0.00000000000E+00 -0.00000000000E+00 -0.45593999997E+02  0.45594000000E+02  0.51100000000E-03 0.  1.
         23    2    1    2    0    0  0.00000000000E+00  0.00000000000E+00  0.13322676296E-14  0.91188000000E+02  0.91188000000E+02 0.  0.
    9900012    2    3    3    0    0  0.23538232392E+02 -0.28258353626E+02  0.17877957166E+01  0.54367093611E+02  0.40000021505E+02 0.  0.
         12    1    3    3    0    0 -0.23538232392E+02  0.28258353626E+02 -0.17877957166E+01  0.36820906389E+02  0.00000000000E+00 0. -1.
         11    1    4    4    0    0  0.90232663834E+00 -0.25529511439E+02  0.10660796449E+02  0.27680728474E+02  0.51100000000E-03 0. -1.
        -11    1    4    4    0    0  0.22421276863E+01 -0.19529604269E+01  0.19792075515E+01  0.35718977846E+01  0.51100000000E-03 0.  1.
         12    1    4    4    0    0  0.20393778067E+02 -0.77588176004E+00 -0.10852208283E+02  0.23114467352E+02  0.00000000000E+00 0. -1.
</event>
<event>
 8    1  0.1240174E-006  0.9118800E+02  0.7816164E-02  0.1184000E+00
        -11   -1    0    0    0    0  0.00000000000E+00  0.00000000000E+00  0.45593999997E+02  0.45594000000E+02  0.51100000000E-03 0. -1.
         11   -1    0    0    0    0 -0.00000000000E+00 -0.00000000000E+00 -0.45593999997E+02  0.45594000000E+02  0.51100000000E-03 0.  1.
         23    2    1    2    0    0 -0.17763568394E-14  0.00000000000E+00 -0.35527136788E-14  0.91188000000E+02  0.91188000000E+02 0.  0.
    9900012    2    3    3    0    0  0.82631390170E+01 -0.31043321706E+02 -0.17994919063E+02  0.54367022270E+02  0.39999858868E+02 0.  0.
         12    1    3    3    0    0 -0.82631390170E+01  0.31043321706E+02  0.17994919063E+02  0.36820977730E+02  0.00000000000E+00 0. -1.
         11    1    4    4    0    0 -0.46096848284E+01 -0.33594415723E+01  0.76085579735E+01  0.95092164026E+01  0.51100000000E-03 0. -1.
        -11    1    4    4    0    0 -0.21262043738E+01 -0.18024849014E+02 -0.81351074754E+01  0.19889592779E+02  0.51100000000E-03 0.  1.
         12    1    4    4    0    0  0.14999028219E+02 -0.96590311191E+01 -0.17468369561E+02  0.24968213088E+02  0.00000000000E+00 0. -1.
</event>
<event>
 8    1  0.1240174E-006  0.9118800E+02  0.7816164E-02  0.1184000E+00
        -11   -1    0    0    0    0  0.00000000000E+00  0.00000000000E+00  0.45593999997E+02  0.45594000000E+02  0.51100000000E-03 0.  1.
         11   -1    0    0    0    0 -0.00000000000E+00 -0.00000000000E+00 -0.45593999997E+02  0.45594000000E+02  0.51100000000E-03 0. -1.
         23    2    1    2    0    0  0.35527136788E-14  0.00000000000E+00  0.00000000000E+00  0.91188000000E+02  0.91188000000E+02 0.  0.
    9900012    2    3    3    0    0  0.26671173616E+02  0.18380029944E+02  0.17510005109E+02  0.54367118945E+02  0.40000079258E+02 0.  0.
         12    1    3    3    0    0 -0.26671173616E+02 -0.18380029944E+02 -0.17510005109E+02  0.36820881055E+02  0.00000000000E+00 0. -1.
         11    1    4    4    0    0  0.26127564582E+02  0.21804598480E+02  0.72711324053E+01  0.34798843552E+02  0.51100000000E-03 0. -1.
        -11    1    4    4    0    0  0.41273129059E+01 -0.65430235843E+01  0.12186025626E+02  0.14434163996E+02  0.51100000000E-03 0.  1.
         12    1    4    4    0    0 -0.35837038719E+01  0.31184550485E+01 -0.19471529222E+01  0.51341113967E+01  0.00000000000E+00 0. -1.
</event>
<event>
 8    1  0.1240174E-006  0.9118800E+02  0.7816164E-02  0.1184000E+00
        -11   -1    0    0    0    0  0.00000000000E+00  0.00000000000E+00  0.45593999997E+02  0.45594000000E+02  0.51100000000E-03 0. -1.
         11   -1    0    0    0    0 -0.00000000000E+00 -0.00000000000E+00 -0.45593999997E+02  0.45594000000E+02  0.51100000000E-03 0.  1.
         23    2    1    2    0    0  0.00000000000E+00 -0.22204460493E-15  0.00000000000E+00  0.91188000000E+02  0.91188000000E+02 0.  0.
    9900012    2    3    3    0    0 -0.11666642978E+02 -0.11755829676E+01  0.34903954676E+02  0.54367100966E+02  0.40000038272E+02 0.  0.
        -12    1    3    3    0    0  0.11666642978E+02  0.11755829676E+01 -0.34903954676E+02  0.36820899034E+02  0.00000000000E+00 0.  1.
         11    1    4    4    0    0 -0.58375470191E+01 -0.77371362811E+01 -0.34165190450E+01  0.10276810579E+02  0.51100000000E-03 0. -1.
        -11    1    4    4    0    0  0.73087638604E+01  0.85875877471E+00  0.10846643307E+02  0.13107447009E+02  0.51100000000E-03 0.  1.
         12    1    4    4    0    0 -0.13137859819E+02  0.57027945388E+01  0.27473830413E+02  0.30982843378E+02  0.00000000000E+00 0. -1.
</event>
<event>
 8    1  0.1240174E-006  0.9118800E+02  0.7816164E-02  0.1184000E+00
        -11   -1    0    0    0    0  0.00000000000E+00  0.00000000000E+00  0.45593999997E+02  0.45594000000E+02  0.51100000000E-03 0.  1.
         11   -1    0    0    0    0 -0.00000000000E+00 -0.00000000000E+00 -0.45593999997E+02  0.45594000000E+02  0.51100000000E-03 0. -1.
         23    2    1    2    0    0  0.00000000000E+00  0.88817841970E-15  0.00000000000E+00  0.91188000000E+02  0.91188000000E+02 0.  0.
    9900012    2    3    3    0    0 -0.29985123804E+02  0.72283568215E+01  0.20110266565E+02  0.54367087284E+02  0.40000007082E+02 0.  0.
         12    1    3    3    0    0  0.29985123804E+02 -0.72283568215E+01 -0.20110266565E+02  0.36820912716E+02  0.00000000000E+00 0. -1.
         11    1    4    4    0    0 -0.59607954109E+00 -0.22547901754E+01 -0.81076748464E+01  0.84364554897E+01  0.51100000000E-03 0. -1.
        -11    1    4    4    0    0 -0.19468551088E+02  0.72731723151E+01  0.29065912986E+02  0.35731650045E+02  0.51100000000E-03 0.  1.
        -12    1    4    4    0    0 -0.99204931754E+01  0.22099746818E+01 -0.84797157434E+00  0.10198981750E+02  0.00000000000E+00 0.  1.
</event>
<event>
 8    1  0.1240174E-006  0.9118800E+02  0.7816164E-02  0.1184000E+00
        -11   -1    0    0    0    0  0.00000000000E+00  0.00000000000E+00  0.45593999997E+02  0.45594000000E+02  0.51100000000E-03 0.  1.
         11   -1    0    0    0    0 -0.00000000000E+00 -0.00000000000E+00 -0.45593999997E+02  0.45594000000E+02  0.51100000000E-03 0. -1.
         23    2    1    2    0    0  0.00000000000E+00 -0.35527136788E-14 -0.35527136788E-14  0.91188000000E+02  0.91188000000E+02 0.  0.
    9900012    2    3    3    0    0 -0.14845596076E+02 -0.26584555869E+02 -0.20703690314E+02  0.54367175372E+02  0.40000207896E+02 0.  0.
         12    1    3    3    0    0  0.14845596076E+02  0.26584555869E+02  0.20703690314E+02  0.36820824628E+02  0.00000000000E+00 0. -1.
         11    1    4    4    0    0 -0.28656724329E+01  0.25514044102E+01  0.17332025544E+01  0.42101940945E+01  0.51100000000E-03 0. -1.
        -11    1    4    4    0    0  0.87975086100E+00 -0.27995218411E+01  0.76264044582E+01  0.81714949267E+01  0.51100000000E-03 0.  1.
        -12    1    4    4    0    0 -0.12859674504E+02 -0.26336438438E+02 -0.30063297327E+02  0.41985486351E+02  0.00000000000E+00 0.  1.
</event>
<event>
 8    1  0.1240174E-006  0.9118800E+02  0.7816164E-02  0.1184000E+00
        -11   -1    0    0    0    0  0.00000000000E+00  0.00000000000E+00  0.45593999997E+02  0.45594000000E+02  0.51100000000E-03 0. -1.
         11   -1    0    0    0    0 -0.00000000000E+00 -0.00000000000E+00 -0.45593999997E+02  0.45594000000E+02  0.51100000000E-03 0.  1.
         23    2    1    2    0    0  0.00000000000E+00  0.35527136788E-14 -0.17763568394E-14  0.91188000000E+02  0.91188000000E+02 0.  0.
    9900012    2    3    3    0    0  0.22824452311E+02 -0.27465671953E+02 -0.89700734276E+01  0.54367068773E+02  0.39999964883E+02 0.  0.
         12    1    3    3    0    0 -0.22824452311E+02  0.27465671953E+02  0.89700734276E+01  0.36820931227E+02  0.00000000000E+00 0. -1.
         11    1    4    4    0    0 -0.48986112600E+01 -0.10152427688E+02 -0.57000772886E+01  0.12631668995E+02  0.51100000000E-03 0. -1.
        -11    1    4    4    0    0  0.25261133518E+02 -0.18151431534E+02 -0.11454042136E+02  0.33148068041E+02  0.51100000000E-03 0.  1.
         12    1    4    4    0    0  0.24619300532E+01  0.83818726941E+00  0.81840459972E+01  0.85873317375E+01  0.00000000000E+00 0. -1.
</event>
<event>
 8    1  0.1240174E-006  0.9118800E+02  0.7816164E-02  0.1184000E+00
        -11   -1    0    0    0    0  0.00000000000E+00  0.00000000000E+00  0.45593999997E+02  0.45594000000E+02  0.51100000000E-03 0. -1.
         11   -1    0    0    0    0 -0.00000000000E+00 -0.00000000000E+00 -0.45593999997E+02  0.45594000000E+02  0.51100000000E-03 0.  1.
         23    2    1    2    0    0  0.17763568394E-14  0.00000000000E+00  0.88817841970E-15  0.91188000000E+02  0.91188000000E+02 0.  0.
    9900012    2    3    3    0    0  0.15511168521E+02  0.32856869276E+02  0.59673061944E+01  0.54367096280E+02  0.40000027590E+02 0.  0.
         12    1    3    3    0    0 -0.15511168521E+02 -0.32856869276E+02 -0.59673061944E+01  0.36820903720E+02  0.00000000000E+00 0. -1.
         11    1    4    4    0    0 -0.11874523682E+02  0.10019879815E+02 -0.37909278538E+01  0.15992918384E+02  0.51100000000E-03 0. -1.
        -11    1    4    4    0    0  0.12772849120E+02  0.17215075777E+02  0.62557279635E+01  0.22330218119E+02  0.51100000000E-03 0.  1.
         12    1    4    4    0    0  0.14612843083E+02  0.56219136845E+01  0.35025060847E+01  0.16043959777E+02  0.00000000000E+00 0. -1.
</event>
<event>
 8    1  0.1240174E-006  0.9118800E+02  0.7816164E-02  0.1184000E+00
        -11   -1    0    0    0    0  0.00000000000E+00  0.00000000000E+00  0.45593999997E+02  0.45594000000E+02  0.51100000000E-03 0. -1.
         11   -1    0    0    0    0 -0.00000000000E+00 -0.00000000000E+00 -0.45593999997E+02  0.45594000000E+02  0.51100000000E-03 0.  1.
         23    2    1    2    0    0  0.00000000000E+00  0.00000000000E+00  0.35527136788E-14  0.91188000000E+02  0.91188000000E+02 0.  0.
    9900012    2    3    3    0    0  0.34491869835E+02 -0.34062299818E+01  0.12429200956E+02  0.54367129236E+02  0.40000102719E+02 0.  0.
        -12    1    3    3    0    0 -0.34491869835E+02  0.34062299818E+01 -0.12429200956E+02  0.36820870764E+02  0.00000000000E+00 0.  1.
         11    1    4    4    0    0 -0.21708490844E-01 -0.32379242680E+01  0.19341505337E+01  0.37716791184E+01  0.51100000000E-03 0. -1.
        -11    1    4    4    0    0 -0.70537735297E+01  0.47726252585E+00 -0.16998010662E+01  0.72713701909E+01  0.51100000000E-03 0.  1.
         12    1    4    4    0    0  0.41567351856E+02 -0.64556823969E+00  0.12194851489E+02  0.43324079927E+02  0.00000000000E+00 0. -1.
</event>
<event>
 8    1  0.1240174E-006  0.9118800E+02  0.7816164E-02  0.1184000E+00
        -11   -1    0    0    0    0  0.00000000000E+00  0.00000000000E+00  0.45593999997E+02  0.45594000000E+02  0.51100000000E-03 0. -1.
         11   -1    0    0    0    0 -0.00000000000E+00 -0.00000000000E+00 -0.45593999997E+02  0.45594000000E+02  0.51100000000E-03 0.  1.
         23    2    1    2    0    0  0.13322676296E-14  0.00000000000E+00  0.17763568394E-14  0.91188000000E+02  0.91188000000E+02 0.  0.
    9900012    2    3    3    0    0 -0.28499104745E+01 -0.34802750913E+02 -0.11680154004E+02  0.54367089387E+02  0.40000011876E+02 0.  0.
         12    1    3    3    0    0  0.28499104745E+01  0.34802750913E+02  0.11680154004E+02  0.36820910613E+02  0.00000000000E+00 0. -1.
         11    1    4    4    0    0 -0.16874550015E+02 -0.15126947087E+02  0.39696775809E+01  0.23007244658E+02  0.51100000000E-03 0. -1.
        -11    1    4    4    0    0  0.37960611189E+01  0.37871960614E+00 -0.54304339134E+01  0.66364991756E+01  0.51100000000E-03 0.  1.
         12    1    4    4    0    0  0.10228578422E+02 -0.20054523432E+02 -0.10219397671E+02  0.24723345554E+02  0.00000000000E+00 0. -1.
</event>
<event>
 8    1  0.1240174E-006  0.9118800E+02  0.7816164E-02  0.1184000E+00
        -11   -1    0    0    0    0  0.00000000000E+00  0.00000000000E+00  0.45593999997E+02  0.45594000000E+02  0.51100000000E-03 0.  1.
         11   -1    0    0    0    0 -0.00000000000E+00 -0.00000000000E+00 -0.45593999997E+02  0.45594000000E+02  0.51100000000E-03 0. -1.
         23    2    1    2    0    0 -0.35527136788E-14  0.00000000000E+00 -0.13322676296E-14  0.91188000000E+02  0.91188000000E+02 0.  0.
    9900012    2    3    3    0    0  0.21419854935E+02  0.29703341396E+02  0.38315737226E+01  0.54367087020E+02  0.40000006479E+02 0.  0.
        -12    1    3    3    0    0 -0.21419854935E+02 -0.29703341396E+02 -0.38315737226E+01  0.36820912980E+02  0.00000000000E+00 0.  1.
         11    1    4    4    0    0 -0.42084912344E+01 -0.91832137144E+00  0.40651967613E+01  0.59228825398E+01  0.51100000000E-03 0. -1.
        -11    1    4    4    0    0  0.70381281696E+01  0.23196745362E+02  0.96843427541E+01  0.26103845279E+02  0.51100000000E-03 0.  1.
         12    1    4    4    0    0  0.18590218000E+02  0.74249174055E+01 -0.99179657928E+01  0.22340359201E+02  0.00000000000E+00 0. -1.
</event>
<event>
 8    1  0.1240174E-006  0.9118800E+02  0.7816164E-02  0.1184000E+00
        -11   -1    0    0    0    0  0.00000000000E+00  0.00000000000E+00  0.45593999997E+02  0.45594000000E+02  0.51100000000E-03 0.  1.
         11   -1    0    0    0    0 -0.00000000000E+00 -0.00000000000E+00 -0.45593999997E+02  0.45594000000E+02  0.51100000000E-03 0. -1.
         23    2    1    2    0    0  0.00000000000E+00 -0.17763568394E-14  0.00000000000E+00  0.91188000000E+02  0.91188000000E+02 0.  0.
    9900012    2    3    3    0    0 -0.27821169368E+02 -0.66328564947E+01  0.23189798379E+02  0.54367095623E+02  0.40000026092E+02 0.  0.
         12    1    3    3    0    0  0.27821169368E+02  0.66328564947E+01 -0.23189798379E+02  0.36820904377E+02  0.00000000000E+00 0. -1.
         11    1    4    4    0    0 -0.12712095835E+02 -0.19384774282E+02  0.15316607715E+02  0.27784264011E+02  0.51100000000E-03 0. -1.
        -11    1    4    4    0    0 -0.95255560599E+01  0.65108236973E+01  0.12503602793E+02  0.17013733468E+02  0.51100000000E-03 0.  1.
         12    1    4    4    0    0 -0.55835174728E+01  0.62410940899E+01 -0.46304121282E+01  0.95690981438E+01  0.00000000000E+00 0. -1.
</event>
<event>
 8    1  0.1240174E-006  0.9118800E+02  0.7816164E-02  0.1184000E+00
        -11   -1    0    0    0    0  0.00000000000E+00  0.00000000000E+00  0.45593999997E+02  0.45594000000E+02  0.51100000000E-03 0. -1.
         11   -1    0    0    0    0 -0.00000000000E+00 -0.00000000000E+00 -0.45593999997E+02  0.45594000000E+02  0.51100000000E-03 0.  1.
         23    2    1    2    0    0  0.00000000000E+00  0.00000000000E+00  0.17763568394E-14  0.91188000000E+02  0.91188000000E+02 0.  0.
    9900012    2    3    3    0    0 -0.10834484716E+02  0.34176555473E+02  0.83878723831E+01  0.54367090096E+02  0.40000013491E+02 0.  0.
         12    1    3    3    0    0  0.10834484716E+02 -0.34176555473E+02 -0.83878723831E+01  0.36820909904E+02  0.00000000000E+00 0. -1.
         11    1    4    4    0    0 -0.15346883304E+02  0.37347391437E+02  0.14855184372E+02  0.43023609533E+02  0.51100000000E-03 0. -1.
        -11    1    4    4    0    0  0.25556005214E+01  0.11245962773E+01 -0.59781711317E+01  0.65980558616E+01  0.51100000000E-03 0.  1.
         12    1    4    4    0    0  0.19567980675E+01 -0.42954322409E+01 -0.48914085686E+00  0.47454247008E+01  0.00000000000E+00 0. -1.
</event>
<event>
 8    1  0.1240174E-006  0.9118800E+02  0.7816164E-02  0.1184000E+00
        -11   -1    0    0    0    0  0.00000000000E+00  0.00000000000E+00  0.45593999997E+02  0.45594000000E+02  0.51100000000E-03 0. -1.
         11   -1    0    0    0    0 -0.00000000000E+00 -0.00000000000E+00 -0.45593999997E+02  0.45594000000E+02  0.51100000000E-03 0.  1.
         23    2    1    2    0    0 -0.35527136788E-14  0.00000000000E+00  0.00000000000E+00  0.91188000000E+02  0.91188000000E+02 0.  0.
    9900012    2    3    3    0    0 -0.21880850993E+02 -0.29140697512E+02 -0.52753647145E+01  0.54367063503E+02  0.39999952868E+02 0.  0.
        -12    1    3    3    0    0  0.21880850993E+02  0.29140697512E+02  0.52753647145E+01  0.36820936497E+02  0.00000000000E+00 0.  1.
         11    1    4    4    0    0 -0.18649298954E+02 -0.19833942880E+02 -0.20467478141E+01  0.27301480153E+02  0.51100000000E-03 0. -1.
        -11    1    4    4    0    0  0.61933771249E+01  0.39466013766E+01  0.49555362118E+01  0.88595102599E+01  0.51100000000E-03 0.  1.
        -12    1    4    4    0    0 -0.94249291636E+01 -0.13253356008E+02 -0.81841531121E+01  0.18206073090E+02  0.00000000000E+00 0.  1.
</event>
<event>
 8    1  0.1240174E-006  0.9118800E+02  0.7816164E-02  0.1184000E+00
        -11   -1    0    0    0    0  0.00000000000E+00  0.00000000000E+00  0.45593999997E+02  0.45594000000E+02  0.51100000000E-03 0.  1.
         11   -1    0    0    0    0 -0.00000000000E+00 -0.00000000000E+00 -0.45593999997E+02  0.45594000000E+02  0.51100000000E-03 0. -1.
         23    2    1    2    0    0 -0.35527136788E-14 -0.66613381478E-15  0.00000000000E+00  0.91188000000E+02  0.91188000000E+02 0.  0.
    9900012    2    3    3    0    0  0.24318977353E+02  0.18168353650E+01 -0.27587428990E+02  0.54367084904E+02  0.40000001656E+02 0.  0.
        -12    1    3    3    0    0 -0.24318977353E+02 -0.18168353650E+01  0.27587428990E+02  0.36820915096E+02  0.00000000000E+00 0.  1.
         11    1    4    4    0    0  0.17473152019E+02  0.10085370513E+02 -0.40984912848E+01  0.20586970903E+02  0.51100000000E-03 0. -1.
        -11    1    4    4    0    0  0.37920548464E+01  0.60583098905E+01 -0.14121019939E+01  0.72853847523E+01  0.51100000000E-03 0.  1.
        -12    1    4    4    0    0  0.30537704870E+01 -0.14326845039E+02 -0.22076835711E+02  0.26494729249E+02  0.00000000000E+00 0.  1.
</event>
<event>
 8    1  0.1240174E-006  0.9118800E+02  0.7816164E-02  0.1184000E+00
        -11   -1    0    0    0    0  0.00000000000E+00  0.00000000000E+00  0.45593999997E+02  0.45594000000E+02  0.51100000000E-03 0. -1.
         11   -1    0    0    0    0 -0.00000000000E+00 -0.00000000000E+00 -0.45593999997E+02  0.45594000000E+02  0.51100000000E-03 0.  1.
         23    2    1    2    0    0  0.00000000000E+00  0.00000000000E+00 -0.17763568394E-14  0.91188000000E+02  0.91188000000E+02 0.  0.
    9900012    2    3    3    0    0 -0.18650595596E+02  0.30925752325E+02  0.71787855812E+01  0.54367057109E+02  0.39999938292E+02 0.  0.
         12    1    3    3    0    0  0.18650595596E+02 -0.30925752325E+02 -0.71787855812E+01  0.36820942891E+02  0.00000000000E+00 0. -1.
         11    1    4    4    0    0  0.19492738410E+01  0.11018367435E+02  0.59918561524E+01  0.12692770771E+02  0.51100000000E-03 0.  1.
        -11    1    4    4    0    0 -0.21535979781E+02  0.68991666792E+01 -0.97760960075E+01  0.24636740438E+02  0.51100000000E-03 0. -1.
         12    1    4    4    0    0  0.93611034418E+00  0.13008218211E+02  0.10963025436E+02  0.17037545901E+02  0.00000000000E+00 0. -1.
</event>
<event>
 8    1  0.1240174E-006  0.9118800E+02  0.7816164E-02  0.1184000E+00
        -11   -1    0    0    0    0  0.00000000000E+00  0.00000000000E+00  0.45593999997E+02  0.45594000000E+02  0.51100000000E-03 0.  1.
         11   -1    0    0    0    0 -0.00000000000E+00 -0.00000000000E+00 -0.45593999997E+02  0.45594000000E+02  0.51100000000E-03 0. -1.
         23    2    1    2    0    0  0.00000000000E+00  0.00000000000E+00 -0.17763568394E-14  0.91188000000E+02  0.91188000000E+02 0.  0.
    9900012    2    3    3    0    0 -0.25110709841E+02 -0.22724741059E+02  0.14450528434E+02  0.54367090493E+02  0.40000014397E+02 0.  0.
         12    1    3    3    0    0  0.25110709841E+02  0.22724741059E+02 -0.14450528434E+02  0.36820909507E+02  0.00000000000E+00 0. -1.
         11    1    4    4    0    0 -0.26461285300E+02 -0.14690312840E+02 -0.43056573557E+01  0.30570305799E+02  0.51100000000E-03 0. -1.
        -11    1    4    4    0    0  0.47648919850E+01 -0.95988067998E+01  0.12175826236E+02  0.16220111972E+02  0.51100000000E-03 0.  1.
         12    1    4    4    0    0 -0.34143165257E+01  0.15643785817E+01  0.65803595536E+01  0.75766727222E+01  0.00000000000E+00 0. -1.
</event>
<event>
 8    1  0.1240174E-006  0.9118800E+02  0.7816164E-02  0.1184000E+00
        -11   -1    0    0    0    0  0.00000000000E+00  0.00000000000E+00  0.45593999997E+02  0.45594000000E+02  0.51100000000E-03 0.  1.
         11   -1    0    0    0    0 -0.00000000000E+00 -0.00000000000E+00 -0.45593999997E+02  0.45594000000E+02  0.51100000000E-03 0. -1.
         23    2    1    2    0    0  0.00000000000E+00  0.35527136788E-14  0.35527136788E-14  0.91188000000E+02  0.91188000000E+02 0.  0.
    9900012    2    3    3    0    0 -0.25140624135E+02  0.19817930549E+02  0.18192798588E+02  0.54367091896E+02  0.40000017595E+02 0.  0.
         12    1    3    3    0    0  0.25140624135E+02 -0.19817930549E+02 -0.18192798588E+02  0.36820908104E+02  0.00000000000E+00 0. -1.
         11    1    4    4    0    0 -0.74863376166E+01 -0.45879731468E+01  0.79588726440E+01  0.11850670974E+02  0.51100000000E-03 0. -1.
        -11    1    4    4    0    0 -0.22130292725E+02  0.14624260371E+02 -0.15373416021E+01  0.26570326813E+02  0.51100000000E-03 0.  1.
        -12    1    4    4    0    0  0.44760062065E+01  0.97816433252E+01  0.11771267546E+02  0.15946094109E+02  0.00000000000E+00 0.  1.
</event>
<event>
 8    1  0.1240174E-006  0.9118800E+02  0.7816164E-02  0.1184000E+00
        -11   -1    0    0    0    0  0.00000000000E+00  0.00000000000E+00  0.45593999997E+02  0.45594000000E+02  0.51100000000E-03 0. -1.
         11   -1    0    0    0    0 -0.00000000000E+00 -0.00000000000E+00 -0.45593999997E+02  0.45594000000E+02  0.51100000000E-03 0.  1.
         23    2    1    2    0    0 -0.35527136788E-14  0.00000000000E+00 -0.35527136788E-14  0.91188000000E+02  0.91188000000E+02 0.  0.
    9900012    2    3    3    0    0  0.27944839942E+02  0.13723360384E+02 -0.19660528362E+02  0.54367067433E+02  0.39999961826E+02 0.  0.
         12    1    3    3    0    0 -0.27944839942E+02 -0.13723360384E+02  0.19660528362E+02  0.36820932567E+02  0.00000000000E+00 0. -1.
         11    1    4    4    0    0 -0.55928870737E+01  0.54874505994E+01 -0.27408438672E+01  0.83008870168E+01  0.51100000000E-03 0. -1.
        -11    1    4    4    0    0  0.19344225412E+02  0.51792289146E+01 -0.22849570323E+02  0.30382994144E+02  0.51100000000E-03 0.  1.
         12    1    4    4    0    0  0.14193501604E+02  0.30566808703E+01  0.59298858272E+01  0.15683186272E+02  0.00000000000E+00 0. -1.
</event>
<event>
 8    1  0.1240174E-006  0.9118800E+02  0.7816164E-02  0.1184000E+00
        -11   -1    0    0    0    0  0.00000000000E+00  0.00000000000E+00  0.45593999997E+02  0.45594000000E+02  0.51100000000E-03 0.  1.
         11   -1    0    0    0    0 -0.00000000000E+00 -0.00000000000E+00 -0.45593999997E+02  0.45594000000E+02  0.51100000000E-03 0. -1.
         23    2    1    2    0    0  0.71054273576E-14  0.88817841970E-15 -0.35527136788E-14  0.91188000000E+02  0.91188000000E+02 0.  0.
    9900012    2    3    3    0    0 -0.31005538295E+02 -0.39146991991E+01  0.19470787637E+02  0.54367084123E+02  0.39999999876E+02 0.  0.
        -12    1    3    3    0    0  0.31005538295E+02  0.39146991991E+01 -0.19470787637E+02  0.36820915877E+02  0.00000000000E+00 0.  1.
         11    1    4    4    0    0 -0.58611043172E+01 -0.12941345896E+01  0.67689791575E+01  0.90469004222E+01  0.51100000000E-03 0. -1.
        -11    1    4    4    0    0 -0.13372759089E+02  0.11986973692E+02  0.18402049462E+02  0.25712908210E+02  0.51100000000E-03 0.  1.
         12    1    4    4    0    0 -0.11771674889E+02 -0.14607538302E+02 -0.57002409822E+01  0.19607275491E+02  0.00000000000E+00 0. -1.
</event>
<event>
 8    1  0.1240174E-006  0.9118800E+02  0.7816164E-02  0.1184000E+00
        -11   -1    0    0    0    0  0.00000000000E+00  0.00000000000E+00  0.45593999997E+02  0.45594000000E+02  0.51100000000E-03 0. -1.
         11   -1    0    0    0    0 -0.00000000000E+00 -0.00000000000E+00 -0.45593999997E+02  0.45594000000E+02  0.51100000000E-03 0.  1.
         23    2    1    2    0    0  0.00000000000E+00 -0.35527136788E-14  0.00000000000E+00  0.91188000000E+02  0.91188000000E+02 0.  0.
    9900012    2    3    3    0    0  0.19428295565E+02 -0.31109122673E+02  0.32470134514E+01  0.54367091831E+02  0.40000017447E+02 0.  0.
         12    1    3    3    0    0 -0.19428295565E+02  0.31109122673E+02 -0.32470134514E+01  0.36820908169E+02  0.00000000000E+00 0. -1.
         11    1    4    4    0    0 -0.20704049399E+01 -0.15550340590E+01  0.74835155366E+01  0.79188201512E+01  0.51100000000E-03 0. -1.
        -11    1    4    4    0    0  0.21806897539E+01 -0.24433205979E+02  0.39593151851E+01  0.24847799484E+02  0.51100000000E-03 0.  1.
        -12    1    4    4    0    0  0.19318010751E+02 -0.51208826351E+01 -0.81958172703E+01  0.21600472195E+02  0.00000000000E+00 0.  1.
</event>
<event>
 8    1  0.1240174E-006  0.9118800E+02  0.7816164E-02  0.1184000E+00
        -11   -1    0    0    0    0  0.00000000000E+00  0.00000000000E+00  0.45593999997E+02  0.45594000000E+02  0.51100000000E-03 0.  1.
         11   -1    0    0    0    0 -0.00000000000E+00 -0.00000000000E+00 -0.45593999997E+02  0.45594000000E+02  0.51100000000E-03 0. -1.
         23    2    1    2    0    0  0.00000000000E+00  0.00000000000E+00  0.00000000000E+00  0.91188000000E+02  0.91188000000E+02 0.  0.
    9900012    2    3    3    0    0  0.13986951726E+02 -0.89905693354E+01  0.32852913590E+02  0.54367094431E+02  0.40000023375E+02 0.  0.
         12    1    3    3    0    0 -0.13986951726E+02  0.89905693354E+01 -0.32852913590E+02  0.36820905569E+02  0.00000000000E+00 0. -1.
         11    1    4    4    0    0 -0.24467297103E+00  0.50341475947E+01  0.24581714402E+02  0.25093090484E+02  0.51100000000E-03 0. -1.
        -11    1    4    4    0    0  0.14185966908E+02 -0.21949723033E+00  0.30323069524E+01  0.14508091599E+02  0.51100000000E-03 0.  1.
         12    1    4    4    0    0  0.45657789394E-01 -0.13805219700E+02  0.52388922356E+01  0.14765912347E+02  0.00000000000E+00 0. -1.
</event>
<event>
 8    1  0.1240174E-006  0.9118800E+02  0.7816164E-02  0.1184000E+00
        -11   -1    0    0    0    0  0.00000000000E+00  0.00000000000E+00  0.45593999997E+02  0.45594000000E+02  0.51100000000E-03 0.  1.
         11   -1    0    0    0    0 -0.00000000000E+00 -0.00000000000E+00 -0.45593999997E+02  0.45594000000E+02  0.51100000000E-03 0. -1.
         23    2    1    2    0    0  0.00000000000E+00  0.00000000000E+00  0.66613381478E-15  0.91188000000E+02  0.91188000000E+02 0.  0.
    9900012    2    3    3    0    0  0.33900576557E+02 -0.14275715827E+02 -0.16537588706E+01  0.54367081059E+02  0.39999992891E+02 0.  0.
         12    1    3    3    0    0 -0.33900576557E+02  0.14275715827E+02  0.16537588706E+01  0.36820918941E+02  0.00000000000E+00 0. -1.
         11    1    4    4    0    0 -0.47269289191E+01 -0.56509740519E-01 -0.93771398051E+01  0.10501323800E+02  0.51100000000E-03 0. -1.
        -11    1    4    4    0    0  0.11165032086E+02 -0.19699021218E+01 -0.33486669246E+01  0.11821676120E+02  0.51100000000E-03 0.  1.
         12    1    4    4    0    0  0.27462473390E+02 -0.12249303964E+02  0.11072047859E+02  0.32044081140E+02  0.00000000000E+00 0. -1.
</event>
<event>
 8    1  0.1240174E-006  0.9118800E+02  0.7816164E-02  0.1184000E+00
        -11   -1    0    0    0    0  0.00000000000E+00  0.00000000000E+00  0.45593999997E+02  0.45594000000E+02  0.51100000000E-03 0. -1.
         11   -1    0    0    0    0 -0.00000000000E+00 -0.00000000000E+00 -0.45593999997E+02  0.45594000000E+02  0.51100000000E-03 0.  1.
         23    2    1    2    0    0  0.00000000000E+00  0.00000000000E+00  0.00000000000E+00  0.91188000000E+02  0.91188000000E+02 0.  0.
    9900012    2    3    3    0    0 -0.17366524219E+02  0.24612887079E+02  0.21175253296E+02  0.54367058595E+02  0.39999941678E+02 0.  0.
        -12    1    3    3    0    0  0.17366524219E+02 -0.24612887079E+02 -0.21175253296E+02  0.36820941405E+02  0.00000000000E+00 0.  1.
         11    1    4    4    0    0 -0.37723652743E+01  0.16623746746E+02  0.26875036051E+02  0.31825261329E+02  0.51100000000E-03 0. -1.
        -11    1    4    4    0    0  0.29334685135E+01  0.21045933518E+01 -0.31928557421E+01  0.48196347110E+01  0.51100000000E-03 0.  1.
         12    1    4    4    0    0 -0.16527627458E+02  0.58845469812E+01 -0.25069270128E+01  0.17722162554E+02  0.00000000000E+00 0. -1.
</event>
<event>
 8    1  0.1240174E-006  0.9118800E+02  0.7816164E-02  0.1184000E+00
        -11   -1    0    0    0    0  0.00000000000E+00  0.00000000000E+00  0.45593999997E+02  0.45594000000E+02  0.51100000000E-03 0.  1.
         11   -1    0    0    0    0 -0.00000000000E+00 -0.00000000000E+00 -0.45593999997E+02  0.45594000000E+02  0.51100000000E-03 0. -1.
         23    2    1    2    0    0  0.00000000000E+00  0.00000000000E+00  0.00000000000E+00  0.91188000000E+02  0.91188000000E+02 0.  0.
    9900012    2    3    3    0    0  0.34827448657E+02 -0.10465742575E+02 -0.57705279005E+01  0.54367055690E+02  0.39999935056E+02 0.  0.
        -12    1    3    3    0    0 -0.34827448657E+02  0.10465742575E+02  0.57705279005E+01  0.36820944310E+02  0.00000000000E+00 0.  1.
         11    1    4    4    0    0  0.11201217055E+02 -0.39702286494E+01  0.89569324052E+01  0.14881418528E+02  0.51100000000E-03 0. -1.
        -11    1    4    4    0    0  0.24384205657E+01 -0.56860064623E+01  0.68524747551E+01  0.92321706481E+01  0.51100000000E-03 0.  1.
         12    1    4    4    0    0  0.21187811037E+02 -0.80950746319E+00 -0.21579935061E+02  0.30253466514E+02  0.00000000000E+00 0. -1.
</event>
<event>
 8    1  0.1240174E-006  0.9118800E+02  0.7816164E-02  0.1184000E+00
        -11   -1    0    0    0    0  0.00000000000E+00  0.00000000000E+00  0.45593999997E+02  0.45594000000E+02  0.51100000000E-03 0.  1.
         11   -1    0    0    0    0 -0.00000000000E+00 -0.00000000000E+00 -0.45593999997E+02  0.45594000000E+02  0.51100000000E-03 0. -1.
         23    2    1    2    0    0 -0.44408920985E-15  0.00000000000E+00  0.00000000000E+00  0.91188000000E+02  0.91188000000E+02 0.  0.
    9900012    2    3    3    0    0  0.23656354402E+01  0.17761965439E+02  0.32166657381E+02  0.54367116056E+02  0.40000072674E+02 0.  0.
         12    1    3    3    0    0 -0.23656354402E+01 -0.17761965439E+02 -0.32166657381E+02  0.36820883944E+02  0.00000000000E+00 0. -1.
         11    1    4    4    0    0  0.44408117136E+01  0.14022650623E+02  0.14927027604E+02  0.20956423657E+02  0.51100000000E-03 0. -1.
        -11    1    4    4    0    0  0.12697803778E+02  0.53662030050E-01  0.11523545183E+02  0.17147279500E+02  0.51100000000E-03 0.  1.
         12    1    4    4    0    0 -0.14772980051E+02  0.36856527865E+01  0.57160845943E+01  0.16263412899E+02  0.00000000000E+00 0. -1.
</event>
<event>
 8    1  0.1240174E-006  0.9118800E+02  0.7816164E-02  0.1184000E+00
        -11   -1    0    0    0    0  0.00000000000E+00  0.00000000000E+00  0.45593999997E+02  0.45594000000E+02  0.51100000000E-03 0.  1.
         11   -1    0    0    0    0 -0.00000000000E+00 -0.00000000000E+00 -0.45593999997E+02  0.45594000000E+02  0.51100000000E-03 0. -1.
         23    2    1    2    0    0  0.00000000000E+00  0.00000000000E+00 -0.35527136788E-14  0.91188000000E+02  0.91188000000E+02 0.  0.
    9900012    2    3    3    0    0  0.26022197905E+02  0.18820766417E+02  0.18011229855E+02  0.54367076149E+02  0.39999981697E+02 0.  0.
         12    1    3    3    0    0 -0.26022197905E+02 -0.18820766417E+02 -0.18011229855E+02  0.36820923851E+02  0.00000000000E+00 0. -1.
         11    1    4    4    0    0  0.74535243119E+01  0.61013670918E+01 -0.38263589077E+01  0.10364493611E+02  0.51100000000E-03 0. -1.
        -11    1    4    4    0    0  0.18357159739E+02  0.12284799610E+01 -0.10113879764E+01  0.18425997465E+02  0.51100000000E-03 0.  1.
        -12    1    4    4    0    0  0.21151385419E+00  0.11490919364E+02  0.22848976740E+02  0.25576585073E+02  0.00000000000E+00 0.  1.
</event>
<event>
 8    1  0.1240174E-006  0.9118800E+02  0.7816164E-02  0.1184000E+00
        -11   -1    0    0    0    0  0.00000000000E+00  0.00000000000E+00  0.45593999997E+02  0.45594000000E+02  0.51100000000E-03 0.  1.
         11   -1    0    0    0    0 -0.00000000000E+00 -0.00000000000E+00 -0.45593999997E+02  0.45594000000E+02  0.51100000000E-03 0. -1.
         23    2    1    2    0    0 -0.71054273576E-14  0.00000000000E+00  0.00000000000E+00  0.91188000000E+02  0.91188000000E+02 0.  0.
    9900012    2    3    3    0    0  0.33211919261E+02 -0.12928464797E+02 -0.92521796289E+01  0.54367087316E+02  0.40000007153E+02 0.  0.
        -12    1    3    3    0    0 -0.33211919261E+02  0.12928464797E+02  0.92521796289E+01  0.36820912684E+02  0.00000000000E+00 0.  1.
         11    1    4    4    0    0  0.27245036702E+02 -0.13360997632E+02 -0.51215955529E+01  0.30773999153E+02  0.51100000000E-03 0.  1.
        -11    1    4    4    0    0  0.17043689525E-01 -0.69769735177E+01 -0.10170313247E+02  0.12333439170E+02  0.51100000000E-03 0. -1.
        -12    1    4    4    0    0  0.59498388701E+01  0.74095063534E+01  0.60397291708E+01  0.11259648993E+02  0.00000000000E+00 0.  1.
</event>
<event>
 8    1  0.1240174E-006  0.9118800E+02  0.7816164E-02  0.1184000E+00
        -11   -1    0    0    0    0  0.00000000000E+00  0.00000000000E+00  0.45593999997E+02  0.45594000000E+02  0.51100000000E-03 0. -1.
         11   -1    0    0    0    0 -0.00000000000E+00 -0.00000000000E+00 -0.45593999997E+02  0.45594000000E+02  0.51100000000E-03 0.  1.
         23    2    1    2    0    0  0.13322676296E-14 -0.35527136788E-14  0.00000000000E+00  0.91188000000E+02  0.91188000000E+02 0.  0.
    9900012    2    3    3    0    0 -0.37794150354E+01  0.24224918450E+02  0.27470873355E+02  0.54367088349E+02  0.40000009509E+02 0.  0.
        -12    1    3    3    0    0  0.37794150354E+01 -0.24224918450E+02 -0.27470873355E+02  0.36820911651E+02  0.00000000000E+00 0.  1.
         11    1    4    4    0    0  0.54963557984E+01  0.22842139153E+02  0.12936767614E+02  0.26820387855E+02  0.51100000000E-03 0. -1.
        -11    1    4    4    0    0 -0.81491740582E+01 -0.12677378122E+01 -0.37338924350E+01  0.90530740618E+01  0.51100000000E-03 0.  1.
        -12    1    4    4    0    0 -0.11265967756E+01  0.26505171095E+01  0.18267998176E+02  0.18493626432E+02  0.00000000000E+00 0.  1.
</event>
<event>
 8    1  0.1240174E-006  0.9118800E+02  0.7816164E-02  0.1184000E+00
        -11   -1    0    0    0    0  0.00000000000E+00  0.00000000000E+00  0.45593999997E+02  0.45594000000E+02  0.51100000000E-03 0. -1.
         11   -1    0    0    0    0 -0.00000000000E+00 -0.00000000000E+00 -0.45593999997E+02  0.45594000000E+02  0.51100000000E-03 0.  1.
         23    2    1    2    0    0  0.44408920985E-15 -0.71054273576E-14  0.17763568394E-14  0.91188000000E+02  0.91188000000E+02 0.  0.
    9900012    2    3    3    0    0 -0.35027609151E+01  0.36371285291E+02 -0.45432176265E+01  0.54367074507E+02  0.39999977954E+02 0.  0.
         12    1    3    3    0    0  0.35027609151E+01 -0.36371285291E+02  0.45432176265E+01  0.36820925493E+02  0.00000000000E+00 0. -1.
         11    1    4    4    0    0  0.63268124305E+01  0.24605480144E+02 -0.46972034967E+01  0.25836445762E+02  0.51100000000E-03 0.  1.
        -11    1    4    4    0    0 -0.15046056495E+02  0.11065911112E+02  0.69556719242E+01  0.19930368210E+02  0.51100000000E-03 0. -1.
        -12    1    4    4    0    0  0.52164831494E+01  0.69989403509E+00 -0.68016860540E+01  0.86002605359E+01  0.00000000000E+00 0.  1.
</event>
<event>
 8    1  0.1240174E-006  0.9118800E+02  0.7816164E-02  0.1184000E+00
        -11   -1    0    0    0    0  0.00000000000E+00  0.00000000000E+00  0.45593999997E+02  0.45594000000E+02  0.51100000000E-03 0. -1.
         11   -1    0    0    0    0 -0.00000000000E+00 -0.00000000000E+00 -0.45593999997E+02  0.45594000000E+02  0.51100000000E-03 0.  1.
         23    2    1    2    0    0  0.17763568394E-14  0.00000000000E+00  0.00000000000E+00  0.91188000000E+02  0.91188000000E+02 0.  0.
    9900012    2    3    3    0    0  0.12533216938E+02 -0.23245492193E+02 -0.25658244616E+02  0.54367082699E+02  0.39999996629E+02 0.  0.
         12    1    3    3    0    0 -0.12533216938E+02  0.23245492193E+02  0.25658244616E+02  0.36820917301E+02  0.00000000000E+00 0. -1.
         11    1    4    4    0    0  0.16483179884E+02 -0.21385005048E+02 -0.57483366025E+01  0.27605380525E+02  0.51100000000E-03 0. -1.
        -11    1    4    4    0    0 -0.21601996290E+01  0.76313869509E+01 -0.66112575312E+01  0.10325369516E+02  0.51100000000E-03 0.  1.
        -12    1    4    4    0    0 -0.17897633174E+01 -0.94918740968E+01 -0.13298650482E+02  0.16436332658E+02  0.00000000000E+00 0.  1.
</event>
<event>
 8    1  0.1240174E-006  0.9118800E+02  0.7816164E-02  0.1184000E+00
        -11   -1    0    0    0    0  0.00000000000E+00  0.00000000000E+00  0.45593999997E+02  0.45594000000E+02  0.51100000000E-03 0. -1.
         11   -1    0    0    0    0 -0.00000000000E+00 -0.00000000000E+00 -0.45593999997E+02  0.45594000000E+02  0.51100000000E-03 0.  1.
         23    2    1    2    0    0  0.00000000000E+00  0.00000000000E+00 -0.17763568394E-14  0.91188000000E+02  0.91188000000E+02 0.  0.
    9900012    2    3    3    0    0  0.35018265161E+02  0.55107165295E+01  0.99566378856E+01  0.54367061262E+02  0.39999947759E+02 0.  0.
        -12    1    3    3    0    0 -0.35018265161E+02 -0.55107165295E+01 -0.99566378856E+01  0.36820938738E+02  0.00000000000E+00 0.  1.
         11    1    4    4    0    0  0.25140454686E+02  0.10201925928E+02  0.12676293551E+02  0.29946789025E+02  0.51100000000E-03 0. -1.
        -11    1    4    4    0    0  0.56767157292E+01  0.75435544931E+01  0.34974382994E+01  0.10067889093E+02  0.51100000000E-03 0.  1.
        -12    1    4    4    0    0  0.42010947457E+01 -0.12234763892E+02 -0.62170939652E+01  0.14352383144E+02  0.00000000000E+00 0.  1.
</event>
<event>
 8    1  0.1240174E-006  0.9118800E+02  0.7816164E-02  0.1184000E+00
        -11   -1    0    0    0    0  0.00000000000E+00  0.00000000000E+00  0.45593999997E+02  0.45594000000E+02  0.51100000000E-03 0. -1.
         11   -1    0    0    0    0 -0.00000000000E+00 -0.00000000000E+00 -0.45593999997E+02  0.45594000000E+02  0.51100000000E-03 0.  1.
         23    2    1    2    0    0  0.35527136788E-14  0.17763568394E-14 -0.35527136788E-14  0.91188000000E+02  0.91188000000E+02 0.  0.
    9900012    2    3    3    0    0 -0.14446986408E+02 -0.15257026177E+02  0.30237189073E+02  0.54367083837E+02  0.39999999224E+02 0.  0.
        -12    1    3    3    0    0  0.14446986408E+02  0.15257026177E+02 -0.30237189073E+02  0.36820916163E+02  0.00000000000E+00 0.  1.
         11    1    4    4    0    0  0.64845345816E+01 -0.86821551855E+01 -0.40922131471E+01  0.11583402614E+02  0.51100000000E-03 0. -1.
        -11    1    4    4    0    0 -0.56401288458E+01  0.29899286472E+01  0.41140378709E+01  0.75944739499E+01  0.51100000000E-03 0.  1.
         12    1    4    4    0    0 -0.15291392144E+02 -0.95647996384E+01  0.30215364349E+02  0.35189207274E+02  0.00000000000E+00 0. -1.
</event>
<event>
 8    1  0.1240174E-006  0.9118800E+02  0.7816164E-02  0.1184000E+00
        -11   -1    0    0    0    0  0.00000000000E+00  0.00000000000E+00  0.45593999997E+02  0.45594000000E+02  0.51100000000E-03 0.  1.
         11   -1    0    0    0    0 -0.00000000000E+00 -0.00000000000E+00 -0.45593999997E+02  0.45594000000E+02  0.51100000000E-03 0. -1.
         23    2    1    2    0    0  0.00000000000E+00  0.00000000000E+00  0.71054273576E-14  0.91188000000E+02  0.91188000000E+02 0.  0.
    9900012    2    3    3    0    0 -0.96661170108E+01  0.11732190493E+02 -0.33536574945E+02  0.54367082428E+02  0.39999996011E+02 0.  0.
        -12    1    3    3    0    0  0.96661170108E+01 -0.11732190493E+02  0.33536574945E+02  0.36820917572E+02  0.00000000000E+00 0.  1.
         11    1    4    4    0    0  0.26457244350E+01  0.20938177036E+02 -0.31680493738E+02  0.38066531220E+02  0.51100000000E-03 0. -1.
        -11    1    4    4    0    0 -0.51204918360E+01 -0.45603926012E+01  0.16442621632E+01  0.70512563166E+01  0.51100000000E-03 0.  1.
         12    1    4    4    0    0 -0.71913496098E+01 -0.46455939414E+01 -0.35003433698E+01  0.92492948913E+01  0.00000000000E+00 0. -1.
</event>
<event>
 8    1  0.1240174E-006  0.9118800E+02  0.7816164E-02  0.1184000E+00
        -11   -1    0    0    0    0  0.00000000000E+00  0.00000000000E+00  0.45593999997E+02  0.45594000000E+02  0.51100000000E-03 0.  1.
         11   -1    0    0    0    0 -0.00000000000E+00 -0.00000000000E+00 -0.45593999997E+02  0.45594000000E+02  0.51100000000E-03 0. -1.
         23    2    1    2    0    0  0.00000000000E+00  0.00000000000E+00 -0.17763568394E-14  0.91188000000E+02  0.91188000000E+02 0.  0.
    9900012    2    3    3    0    0 -0.35005391242E+02  0.85936712539E+01  0.75204641649E+01  0.54367000789E+02  0.39999809899E+02 0.  0.
        -12    1    3    3    0    0  0.35005391242E+02 -0.85936712539E+01 -0.75204641649E+01  0.36820999211E+02  0.00000000000E+00 0.  1.
         11    1    4    4    0    0 -0.34690378881E+02  0.59797087271E+01  0.20196852148E+02  0.40584382961E+02  0.51100000000E-03 0. -1.
        -11    1    4    4    0    0  0.15928611427E+01  0.11980446223E+01 -0.19218180163E+01  0.27687365866E+01  0.51100000000E-03 0.  1.
         12    1    4    4    0    0 -0.19078735035E+01  0.14159179045E+01 -0.10754569967E+02  0.11013881241E+02  0.00000000000E+00 0. -1.
</event>
<event>
 8    1  0.1240174E-006  0.9118800E+02  0.7816164E-02  0.1184000E+00
        -11   -1    0    0    0    0  0.00000000000E+00  0.00000000000E+00  0.45593999997E+02  0.45594000000E+02  0.51100000000E-03 0.  1.
         11   -1    0    0    0    0 -0.00000000000E+00 -0.00000000000E+00 -0.45593999997E+02  0.45594000000E+02  0.51100000000E-03 0. -1.
         23    2    1    2    0    0 -0.35527136788E-14  0.35527136788E-14  0.49960036108E-15  0.91188000000E+02  0.91188000000E+02 0.  0.
    9900012    2    3    3    0    0 -0.31823906237E+02  0.18520494397E+02  0.95262651858E-01  0.54367098384E+02  0.40000032385E+02 0.  0.
         12    1    3    3    0    0  0.31823906237E+02 -0.18520494397E+02 -0.95262651858E-01  0.36820901616E+02  0.00000000000E+00 0. -1.
         11    1    4    4    0    0 -0.17865589808E+02  0.36741856801E+01 -0.89005646372E+01  0.20295294792E+02  0.51100000000E-03 0. -1.
        -11    1    4    4    0    0 -0.84087974254E+01 -0.14851619007E+01 -0.66199602318E+01  0.10804510805E+02  0.51100000000E-03 0.  1.
        -12    1    4    4    0    0 -0.55495190038E+01  0.16331470617E+02  0.15615787521E+02  0.23267292786E+02  0.00000000000E+00 0.  1.
</event>
<event>
 8    1  0.1240174E-006  0.9118800E+02  0.7816164E-02  0.1184000E+00
        -11   -1    0    0    0    0  0.00000000000E+00  0.00000000000E+00  0.45593999997E+02  0.45594000000E+02  0.51100000000E-03 0.  1.
         11   -1    0    0    0    0 -0.00000000000E+00 -0.00000000000E+00 -0.45593999997E+02  0.45594000000E+02  0.51100000000E-03 0. -1.
         23    2    1    2    0    0  0.35527136788E-14  0.00000000000E+00  0.00000000000E+00  0.91188000000E+02  0.91188000000E+02 0.  0.
    9900012    2    3    3    0    0  0.18788230841E+02  0.22691992943E+02 -0.22087473570E+02  0.54367073198E+02  0.39999974968E+02 0.  0.
        -12    1    3    3    0    0 -0.18788230841E+02 -0.22691992943E+02  0.22087473570E+02  0.36820926802E+02  0.00000000000E+00 0.  1.
         11    1    4    4    0    0  0.51180924682E+01  0.69453028205E+01 -0.12273832785E+02  0.15002635545E+02  0.51100000000E-03 0. -1.
        -11    1    4    4    0    0 -0.88323274302E+01  0.31553669049E+01  0.39014930079E+01  0.10158149245E+02  0.51100000000E-03 0.  1.
        -12    1    4    4    0    0  0.22502465803E+02  0.12591323218E+02 -0.13715133793E+02  0.29206288408E+02  0.00000000000E+00 0.  1.
</event>
<event>
 8    1  0.1240174E-006  0.9118800E+02  0.7816164E-02  0.1184000E+00
        -11   -1    0    0    0    0  0.00000000000E+00  0.00000000000E+00  0.45593999997E+02  0.45594000000E+02  0.51100000000E-03 0.  1.
         11   -1    0    0    0    0 -0.00000000000E+00 -0.00000000000E+00 -0.45593999997E+02  0.45594000000E+02  0.51100000000E-03 0. -1.
         23    2    1    2    0    0  0.00000000000E+00 -0.66613381478E-15  0.35527136788E-14  0.91188000000E+02  0.91188000000E+02 0.  0.
    9900012    2    3    3    0    0 -0.21082594631E+02 -0.11625257890E+01  0.30165417007E+02  0.54367086842E+02  0.40000006073E+02 0.  0.
        -12    1    3    3    0    0  0.21082594631E+02  0.11625257890E+01 -0.30165417007E+02  0.36820913158E+02  0.00000000000E+00 0.  1.
         11    1    4    4    0    0 -0.76018094037E+01 -0.13825674766E+02  0.63815171167E+01  0.17019416850E+02  0.51100000000E-03 0.  1.
        -11    1    4    4    0    0  0.43880935310E+01 -0.14865781983E+01  0.91651979432E+01  0.10269670549E+02  0.51100000000E-03 0. -1.
        -12    1    4    4    0    0 -0.17868878759E+02  0.14149727175E+02  0.14618701947E+02  0.27077999443E+02  0.00000000000E+00 0.  1.
</event>
<event>
 8    1  0.1240174E-006  0.9118800E+02  0.7816164E-02  0.1184000E+00
        -11   -1    0    0    0    0  0.00000000000E+00  0.00000000000E+00  0.45593999997E+02  0.45594000000E+02  0.51100000000E-03 0.  1.
         11   -1    0    0    0    0 -0.00000000000E+00 -0.00000000000E+00 -0.45593999997E+02  0.45594000000E+02  0.51100000000E-03 0. -1.
         23    2    1    2    0    0 -0.17763568394E-14  0.00000000000E+00 -0.35527136788E-14  0.91188000000E+02  0.91188000000E+02 0.  0.
    9900012    2    3    3    0    0 -0.13046214569E+02 -0.22597780828E+02 -0.25979171322E+02  0.54367071773E+02  0.39999971720E+02 0.  0.
        -12    1    3    3    0    0  0.13046214569E+02  0.22597780828E+02  0.25979171322E+02  0.36820928227E+02  0.00000000000E+00 0.  1.
         11    1    4    4    0    0  0.13742431915E+01 -0.10465190087E+02 -0.11805642239E+02  0.15836096010E+02  0.51100000000E-03 0.  1.
        -11    1    4    4    0    0  0.79635086286E+01  0.24910870576E+01 -0.68849966951E+01  0.10817863197E+02  0.51100000000E-03 0. -1.
         12    1    4    4    0    0 -0.22383966390E+02 -0.14623677798E+02 -0.72885323880E+01  0.27713112565E+02  0.00000000000E+00 0. -1.
</event>
<event>
 8    1  0.1240174E-006  0.9118800E+02  0.7816164E-02  0.1184000E+00
        -11   -1    0    0    0    0  0.00000000000E+00  0.00000000000E+00  0.45593999997E+02  0.45594000000E+02  0.51100000000E-03 0.  1.
         11   -1    0    0    0    0 -0.00000000000E+00 -0.00000000000E+00 -0.45593999997E+02  0.45594000000E+02  0.51100000000E-03 0. -1.
         23    2    1    2    0    0  0.00000000000E+00  0.35527136788E-14  0.00000000000E+00  0.91188000000E+02  0.91188000000E+02 0.  0.
    9900012    2    3    3    0    0  0.28330432484E+02 -0.21470609849E+02 -0.96009637583E+01  0.54367095651E+02  0.40000026155E+02 0.  0.
        -12    1    3    3    0    0 -0.28330432484E+02  0.21470609849E+02  0.96009637583E+01  0.36820904349E+02  0.00000000000E+00 0.  1.
         11    1    4    4    0    0  0.13113384838E+02 -0.50132181198E+00  0.23793889489E+01  0.13336929088E+02  0.51100000000E-03 0.  1.
        -11    1    4    4    0    0 -0.52204478511E+01 -0.48505085014E+01 -0.13169732094E+02  0.14974055969E+02  0.51100000000E-03 0. -1.
         12    1    4    4    0    0  0.20437495497E+02 -0.16118779536E+02  0.11893793868E+01  0.26056110593E+02  0.00000000000E+00 0. -1.
</event>
<event>
 8    1  0.1240174E-006  0.9118800E+02  0.7816164E-02  0.1184000E+00
        -11   -1    0    0    0    0  0.00000000000E+00  0.00000000000E+00  0.45593999997E+02  0.45594000000E+02  0.51100000000E-03 0.  1.
         11   -1    0    0    0    0 -0.00000000000E+00 -0.00000000000E+00 -0.45593999997E+02  0.45594000000E+02  0.51100000000E-03 0. -1.
         23    2    1    2    0    0 -0.35527136788E-14 -0.35527136788E-14  0.17763568394E-14  0.91188000000E+02  0.91188000000E+02 0.  0.
    9900012    2    3    3    0    0 -0.18096695149E+02  0.30246260839E+02 -0.10651528622E+02  0.54367058512E+02  0.39999941491E+02 0.  0.
        -12    1    3    3    0    0  0.18096695149E+02 -0.30246260839E+02  0.10651528622E+02  0.36820941488E+02  0.00000000000E+00 0.  1.
         11    1    4    4    0    0 -0.15628161098E+02  0.11838568258E+01  0.83404688279E+01  0.17753995517E+02  0.51100000000E-03 0. -1.
        -11    1    4    4    0    0 -0.20361253355E+01  0.28874908021E+02 -0.20212237101E+02  0.35304966344E+02  0.51100000000E-03 0.  1.
        -12    1    4    4    0    0 -0.43240871595E+00  0.18749599144E+00  0.12202396513E+01  0.13080966520E+01  0.00000000000E+00 0.  1.
</event>
<event>
 8    1  0.1240174E-006  0.9118800E+02  0.7816164E-02  0.1184000E+00
        -11   -1    0    0    0    0  0.00000000000E+00  0.00000000000E+00  0.45593999997E+02  0.45594000000E+02  0.51100000000E-03 0.  1.
         11   -1    0    0    0    0 -0.00000000000E+00 -0.00000000000E+00 -0.45593999997E+02  0.45594000000E+02  0.51100000000E-03 0. -1.
         23    2    1    2    0    0 -0.88817841970E-15  0.44408920985E-15  0.00000000000E+00  0.91188000000E+02  0.91188000000E+02 0.  0.
    9900012    2    3    3    0    0  0.44755003628E+01  0.21565699055E+01 -0.36484269114E+02  0.54367044146E+02  0.39999908739E+02 0.  0.
        -12    1    3    3    0    0 -0.44755003628E+01 -0.21565699055E+01  0.36484269114E+02  0.36820955854E+02  0.00000000000E+00 0.  1.
         11    1    4    4    0    0  0.11620594820E+02 -0.27255513527E+01 -0.83368792044E+01  0.14559203594E+02  0.51100000000E-03 0. -1.
        -11    1    4    4    0    0  0.71872308938E+01  0.10526058950E+02 -0.12794479746E+02  0.18059704238E+02  0.51100000000E-03 0.  1.
        -12    1    4    4    0    0 -0.14332325351E+02 -0.56439376920E+01 -0.15352910164E+02  0.21748136314E+02  0.00000000000E+00 0.  1.
</event>
<event>
 8    1  0.1240174E-006  0.9118800E+02  0.7816164E-02  0.1184000E+00
        -11   -1    0    0    0    0  0.00000000000E+00  0.00000000000E+00  0.45593999997E+02  0.45594000000E+02  0.51100000000E-03 0.  1.
         11   -1    0    0    0    0 -0.00000000000E+00 -0.00000000000E+00 -0.45593999997E+02  0.45594000000E+02  0.51100000000E-03 0. -1.
         23    2    1    2    0    0 -0.35527136788E-14  0.35527136788E-14  0.53290705182E-14  0.91188000000E+02  0.91188000000E+02 0.  0.
    9900012    2    3    3    0    0  0.28478770810E+02 -0.18835483809E+02 -0.13782746343E+02  0.54367082930E+02  0.39999997155E+02 0.  0.
        -12    1    3    3    0    0 -0.28478770810E+02  0.18835483809E+02  0.13782746343E+02  0.36820917070E+02  0.00000000000E+00 0.  1.
         11    1    4    4    0    0  0.22843449572E+02 -0.18246565661E+02 -0.13539601557E+02  0.32219266866E+02  0.51100000000E-03 0. -1.
        -11    1    4    4    0    0 -0.26171800271E+01 -0.82886188408E+01  0.46367056747E+01  0.98513894126E+01  0.51100000000E-03 0.  1.
        -12    1    4    4    0    0  0.82525012645E+01  0.76997006925E+01 -0.48798504605E+01  0.12296426651E+02  0.00000000000E+00 0.  1.
</event>
<event>
 8    1  0.1240174E-006  0.9118800E+02  0.7816164E-02  0.1184000E+00
        -11   -1    0    0    0    0  0.00000000000E+00  0.00000000000E+00  0.45593999997E+02  0.45594000000E+02  0.51100000000E-03 0.  1.
         11   -1    0    0    0    0 -0.00000000000E+00 -0.00000000000E+00 -0.45593999997E+02  0.45594000000E+02  0.51100000000E-03 0. -1.
         23    2    1    2    0    0  0.17763568394E-14  0.00000000000E+00  0.71054273576E-14  0.91188000000E+02  0.91188000000E+02 0.  0.
    9900012    2    3    3    0    0  0.10648701493E+02 -0.61909503747E+01 -0.34699528293E+02  0.54367082388E+02  0.39999995921E+02 0.  0.
        -12    1    3    3    0    0 -0.10648701493E+02  0.61909503747E+01  0.34699528293E+02  0.36820917612E+02  0.00000000000E+00 0.  1.
         11    1    4    4    0    0  0.16684340094E+02 -0.40775655349E+01 -0.13359949766E+01  0.17227264086E+02  0.51100000000E-03 0.  1.
        -11    1    4    4    0    0 -0.53657542735E+01  0.59527013469E+01 -0.19563355431E+02  0.21141212081E+02  0.51100000000E-03 0. -1.
         12    1    4    4    0    0 -0.66988432734E+00 -0.80660861867E+01 -0.13800177885E+02  0.15998606222E+02  0.00000000000E+00 0. -1.
</event>
<event>
 8    1  0.1240174E-006  0.9118800E+02  0.7816164E-02  0.1184000E+00
        -11   -1    0    0    0    0  0.00000000000E+00  0.00000000000E+00  0.45593999997E+02  0.45594000000E+02  0.51100000000E-03 0. -1.
         11   -1    0    0    0    0 -0.00000000000E+00 -0.00000000000E+00 -0.45593999997E+02  0.45594000000E+02  0.51100000000E-03 0.  1.
         23    2    1    2    0    0  0.00000000000E+00  0.00000000000E+00 -0.35527136788E-14  0.91188000000E+02  0.91188000000E+02 0.  0.
    9900012    2    3    3    0    0 -0.18805192233E+02  0.43298999110E+01 -0.31359147340E+02  0.54367090044E+02  0.40000013372E+02 0.  0.
         12    1    3    3    0    0  0.18805192233E+02 -0.43298999110E+01  0.31359147340E+02  0.36820909956E+02  0.00000000000E+00 0. -1.
         11    1    4    4    0    0 -0.16000916422E+02  0.10896177460E+02 -0.15001771393E+02  0.24491001506E+02  0.51100000000E-03 0. -1.
        -11    1    4    4    0    0  0.10098827711E+02 -0.49349542203E+01 -0.11251369868E+02  0.15903880610E+02  0.51100000000E-03 0.  1.
        -12    1    4    4    0    0 -0.12903103521E+02 -0.16313233289E+01 -0.51060060791E+01  0.13972207927E+02  0.00000000000E+00 0.  1.
</event>
<event>
 8    1  0.1240174E-006  0.9118800E+02  0.7816164E-02  0.1184000E+00
        -11   -1    0    0    0    0  0.00000000000E+00  0.00000000000E+00  0.45593999997E+02  0.45594000000E+02  0.51100000000E-03 0. -1.
         11   -1    0    0    0    0 -0.00000000000E+00 -0.00000000000E+00 -0.45593999997E+02  0.45594000000E+02  0.51100000000E-03 0.  1.
         23    2    1    2    0    0  0.00000000000E+00 -0.35527136788E-14  0.00000000000E+00  0.91188000000E+02  0.91188000000E+02 0.  0.
    9900012    2    3    3    0    0  0.69530788055E+01 -0.28278434376E+02 -0.22533616330E+02  0.54367095332E+02  0.40000025429E+02 0.  0.
         12    1    3    3    0    0 -0.69530788055E+01  0.28278434376E+02  0.22533616330E+02  0.36820904668E+02  0.00000000000E+00 0. -1.
         11    1    4    4    0    0  0.60999615056E+01  0.40496391594E+01 -0.22236432468E+01  0.76520387637E+01  0.51100000000E-03 0. -1.
        -11    1    4    4    0    0  0.44493295783E+01 -0.22133220825E+02  0.12352562947E+01  0.22609773465E+02  0.51100000000E-03 0.  1.
        -12    1    4    4    0    0 -0.35962122783E+01 -0.10194852710E+02 -0.21545229378E+02  0.24105283103E+02  0.00000000000E+00 0.  1.
</event>
<event>
 8    1  0.1240174E-006  0.9118800E+02  0.7816164E-02  0.1184000E+00
        -11   -1    0    0    0    0  0.00000000000E+00  0.00000000000E+00  0.45593999997E+02  0.45594000000E+02  0.51100000000E-03 0. -1.
         11   -1    0    0    0    0 -0.00000000000E+00 -0.00000000000E+00 -0.45593999997E+02  0.45594000000E+02  0.51100000000E-03 0.  1.
         23    2    1    2    0    0  0.00000000000E+00 -0.17763568394E-14  0.88817841970E-15  0.91188000000E+02  0.91188000000E+02 0.  0.
    9900012    2    3    3    0    0 -0.32538555422E+02  0.15606279160E+02 -0.73121066038E+01  0.54367076041E+02  0.39999981452E+02 0.  0.
        -12    1    3    3    0    0  0.32538555422E+02 -0.15606279160E+02  0.73121066038E+01  0.36820923959E+02  0.00000000000E+00 0.  1.
         11    1    4    4    0    0 -0.10741771059E+02  0.12454800741E+02  0.11363289803E+02  0.19990799443E+02  0.51100000000E-03 0. -1.
        -11    1    4    4    0    0  0.26332328185E+01 -0.26464796212E+01 -0.20067032275E+01  0.42384699558E+01  0.51100000000E-03 0.  1.
         12    1    4    4    0    0 -0.24430017182E+02  0.57979580406E+01 -0.16668693179E+02  0.30137806643E+02  0.00000000000E+00 0. -1.
</event>
<event>
 8    1  0.1240174E-006  0.9118800E+02  0.7816164E-02  0.1184000E+00
        -11   -1    0    0    0    0  0.00000000000E+00  0.00000000000E+00  0.45593999997E+02  0.45594000000E+02  0.51100000000E-03 0.  1.
         11   -1    0    0    0    0 -0.00000000000E+00 -0.00000000000E+00 -0.45593999997E+02  0.45594000000E+02  0.51100000000E-03 0. -1.
         23    2    1    2    0    0 -0.53290705182E-14 -0.88817841970E-15  0.00000000000E+00  0.91188000000E+02  0.91188000000E+02 0.  0.
    9900012    2    3    3    0    0 -0.11732372099E+02  0.34820591269E+01 -0.34727613797E+02  0.54367075910E+02  0.39999981152E+02 0.  0.
        -12    1    3    3    0    0  0.11732372099E+02 -0.34820591269E+01  0.34727613797E+02  0.36820924090E+02  0.00000000000E+00 0.  1.
         11    1    4    4    0    0 -0.57961745157E+01 -0.10973968983E+02 -0.11489767714E+02  0.16912669708E+02  0.51100000000E-03 0. -1.
        -11    1    4    4    0    0  0.56943343131E+01  0.12502960450E+02 -0.21527190767E+02  0.25537607677E+02  0.51100000000E-03 0.  1.
        -12    1    4    4    0    0 -0.11630531896E+02  0.19530676604E+01 -0.17106553157E+01  0.11916798525E+02  0.00000000000E+00 0.  1.
</event>
<event>
 8    1  0.1240174E-006  0.9118800E+02  0.7816164E-02  0.1184000E+00
        -11   -1    0    0    0    0  0.00000000000E+00  0.00000000000E+00  0.45593999997E+02  0.45594000000E+02  0.51100000000E-03 0.  1.
         11   -1    0    0    0    0 -0.00000000000E+00 -0.00000000000E+00 -0.45593999997E+02  0.45594000000E+02  0.51100000000E-03 0. -1.
         23    2    1    2    0    0 -0.35527136788E-14 -0.17763568394E-14 -0.35527136788E-14  0.91188000000E+02  0.91188000000E+02 0.  0.
    9900012    2    3    3    0    0 -0.27863983032E+02 -0.14008835341E+02 -0.19573734843E+02  0.54367080488E+02  0.39999991588E+02 0.  0.
        -12    1    3    3    0    0  0.27863983032E+02  0.14008835341E+02  0.19573734843E+02  0.36820919512E+02  0.00000000000E+00 0.  1.
         11    1    4    4    0    0 -0.11616744157E+02 -0.39249110903E+00 -0.88788427287E+01  0.14626573165E+02  0.51100000000E-03 0. -1.
        -11    1    4    4    0    0 -0.17630210083E+02  0.55870662842E+01 -0.85279759956E+01  0.20365804479E+02  0.51100000000E-03 0.  1.
         12    1    4    4    0    0  0.13829712081E+01 -0.19203410516E+02 -0.21669161184E+01  0.19374702844E+02  0.00000000000E+00 0. -1.
</event>
<event>
 8    1  0.1240174E-006  0.9118800E+02  0.7816164E-02  0.1184000E+00
        -11   -1    0    0    0    0  0.00000000000E+00  0.00000000000E+00  0.45593999997E+02  0.45594000000E+02  0.51100000000E-03 0. -1.
         11   -1    0    0    0    0 -0.00000000000E+00 -0.00000000000E+00 -0.45593999997E+02  0.45594000000E+02  0.51100000000E-03 0.  1.
         23    2    1    2    0    0  0.00000000000E+00 -0.17763568394E-14 -0.17763568394E-14  0.91188000000E+02  0.91188000000E+02 0.  0.
    9900012    2    3    3    0    0  0.33441645300E+02 -0.13016875695E+02 -0.82463013739E+01  0.54367025276E+02  0.39999865722E+02 0.  0.
         12    1    3    3    0    0 -0.33441645300E+02  0.13016875695E+02  0.82463013739E+01  0.36820974724E+02  0.00000000000E+00 0. -1.
         11    1    4    4    0    0  0.14876626986E+02 -0.88338456796E+01 -0.93836134839E+01  0.19682557309E+02  0.51100000000E-03 0. -1.
        -11    1    4    4    0    0  0.19613267864E+02  0.45107478492E+01 -0.83364720814E+01  0.21783569255E+02  0.51100000000E-03 0.  1.
         12    1    4    4    0    0 -0.10482495491E+01 -0.86937778646E+01  0.94737841914E+01  0.12900898712E+02  0.00000000000E+00 0. -1.
</event>
<event>
 8    1  0.1240174E-006  0.9118800E+02  0.7816164E-02  0.1184000E+00
        -11   -1    0    0    0    0  0.00000000000E+00  0.00000000000E+00  0.45593999997E+02  0.45594000000E+02  0.51100000000E-03 0. -1.
         11   -1    0    0    0    0 -0.00000000000E+00 -0.00000000000E+00 -0.45593999997E+02  0.45594000000E+02  0.51100000000E-03 0.  1.
         23    2    1    2    0    0  0.00000000000E+00  0.00000000000E+00  0.00000000000E+00  0.91188000000E+02  0.91188000000E+02 0.  0.
    9900012    2    3    3    0    0 -0.33063322043E+02  0.42157066635E+01  0.15646799445E+02  0.54367112178E+02  0.40000063831E+02 0.  0.
        -12    1    3    3    0    0  0.33063322043E+02 -0.42157066635E+01 -0.15646799445E+02  0.36820887822E+02  0.00000000000E+00 0.  1.
         11    1    4    4    0    0 -0.10536509606E+02 -0.10197181260E+02  0.10568661340E+02  0.18074765368E+02  0.51100000000E-03 0. -1.
        -11    1    4    4    0    0 -0.91535176454E+01  0.19317648193E+02  0.69121702511E+00  0.21387758139E+02  0.51100000000E-03 0.  1.
        -12    1    4    4    0    0 -0.13373294791E+02 -0.49047602692E+01  0.43869210795E+01  0.14904588670E+02  0.00000000000E+00 0.  1.
</event>
<event>
 8    1  0.1240174E-006  0.9118800E+02  0.7816164E-02  0.1184000E+00
        -11   -1    0    0    0    0  0.00000000000E+00  0.00000000000E+00  0.45593999997E+02  0.45594000000E+02  0.51100000000E-03 0.  1.
         11   -1    0    0    0    0 -0.00000000000E+00 -0.00000000000E+00 -0.45593999997E+02  0.45594000000E+02  0.51100000000E-03 0. -1.
         23    2    1    2    0    0  0.00000000000E+00 -0.17763568394E-14  0.00000000000E+00  0.91188000000E+02  0.91188000000E+02 0.  0.
    9900012    2    3    3    0    0  0.34464476024E+02 -0.74479522659E+01  0.10606921469E+02  0.54367097191E+02  0.40000029667E+02 0.  0.
        -12    1    3    3    0    0 -0.34464476024E+02  0.74479522659E+01 -0.10606921469E+02  0.36820902809E+02  0.00000000000E+00 0.  1.
         11    1    4    4    0    0  0.52769580767E+01 -0.14134413808E+02  0.29719297113E+01  0.15377265905E+02  0.51100000000E-03 0. -1.
        -11    1    4    4    0    0  0.36402902980E+01  0.80079414251E+01  0.99774293037E+01  0.13301426055E+02  0.51100000000E-03 0.  1.
         12    1    4    4    0    0  0.25547227650E+02 -0.13214798826E+01 -0.23424375463E+01  0.25688405231E+02  0.00000000000E+00 0. -1.
</event>
<event>
 8    1  0.1240174E-006  0.9118800E+02  0.7816164E-02  0.1184000E+00
        -11   -1    0    0    0    0  0.00000000000E+00  0.00000000000E+00  0.45593999997E+02  0.45594000000E+02  0.51100000000E-03 0.  1.
         11   -1    0    0    0    0 -0.00000000000E+00 -0.00000000000E+00 -0.45593999997E+02  0.45594000000E+02  0.51100000000E-03 0. -1.
         23    2    1    2    0    0  0.00000000000E+00 -0.71054273576E-14  0.88817841970E-15  0.91188000000E+02  0.91188000000E+02 0.  0.
    9900012    2    3    3    0    0  0.90716710834E+01 -0.35547710136E+02 -0.31381599495E+01  0.54367041838E+02  0.39999903477E+02 0.  0.
        -12    1    3    3    0    0 -0.90716710834E+01  0.35547710136E+02  0.31381599495E+01  0.36820958162E+02  0.00000000000E+00 0.  1.
         11    1    4    4    0    0  0.34951180979E+01 -0.17094364730E+02 -0.25419590734E+01  0.17632206675E+02  0.51100000000E-03 0. -1.
        -11    1    4    4    0    0 -0.56124057176E+01 -0.17402766570E+02 -0.11067845981E+02  0.21374110441E+02  0.51100000000E-03 0.  1.
        -12    1    4    4    0    0  0.11188958703E+02 -0.10505788353E+01  0.10471645105E+02  0.15360724721E+02  0.00000000000E+00 0.  1.
</event>
<event>
 8    1  0.1240174E-006  0.9118800E+02  0.7816164E-02  0.1184000E+00
        -11   -1    0    0    0    0  0.00000000000E+00  0.00000000000E+00  0.45593999997E+02  0.45594000000E+02  0.51100000000E-03 0.  1.
         11   -1    0    0    0    0 -0.00000000000E+00 -0.00000000000E+00 -0.45593999997E+02  0.45594000000E+02  0.51100000000E-03 0. -1.
         23    2    1    2    0    0  0.00000000000E+00  0.00000000000E+00  0.00000000000E+00  0.91188000000E+02  0.91188000000E+02 0.  0.
    9900012    2    3    3    0    0  0.28955758906E+02  0.16451848488E+02 -0.15706060276E+02  0.54367087166E+02  0.40000006812E+02 0.  0.
         12    1    3    3    0    0 -0.28955758906E+02 -0.16451848488E+02  0.15706060276E+02  0.36820912834E+02  0.00000000000E+00 0. -1.
         11    1    4    4    0    0  0.45960142628E+01 -0.52701573876E+01 -0.85923153341E+01  0.11078167225E+02  0.51100000000E-03 0. -1.
        -11    1    4    4    0    0  0.16492839996E+02  0.27415861975E+02 -0.93318887300E+01  0.33327577267E+02  0.51100000000E-03 0.  1.
         12    1    4    4    0    0  0.78669046476E+01 -0.56938560992E+01  0.22181437879E+01  0.99613426744E+01  0.00000000000E+00 0. -1.
</event>
<event>
 8    1  0.1240174E-006  0.9118800E+02  0.7816164E-02  0.1184000E+00
        -11   -1    0    0    0    0  0.00000000000E+00  0.00000000000E+00  0.45593999997E+02  0.45594000000E+02  0.51100000000E-03 0.  1.
         11   -1    0    0    0    0 -0.00000000000E+00 -0.00000000000E+00 -0.45593999997E+02  0.45594000000E+02  0.51100000000E-03 0. -1.
         23    2    1    2    0    0  0.35527136788E-14  0.00000000000E+00  0.00000000000E+00  0.91188000000E+02  0.91188000000E+02 0.  0.
    9900012    2    3    3    0    0 -0.23198753248E+02 -0.17226316126E+02  0.22822186425E+02  0.54367077785E+02  0.39999985427E+02 0.  0.
         12    1    3    3    0    0  0.23198753248E+02  0.17226316126E+02 -0.22822186425E+02  0.36820922215E+02  0.00000000000E+00 0. -1.
         11    1    4    4    0    0  0.74809212986E+01 -0.67161852542E+01  0.12551142720E+02  0.16081122837E+02  0.51100000000E-03 0. -1.
        -11    1    4    4    0    0 -0.20162695566E+02 -0.10226799286E+02 -0.13021032406E+01  0.22645467300E+02  0.51100000000E-03 0.  1.
         12    1    4    4    0    0 -0.10516978981E+02 -0.28333158579E+00  0.11573146945E+02  0.15640487649E+02  0.00000000000E+00 0. -1.
</event>
<event>
 8    1  0.1240174E-006  0.9118800E+02  0.7816164E-02  0.1184000E+00
        -11   -1    0    0    0    0  0.00000000000E+00  0.00000000000E+00  0.45593999997E+02  0.45594000000E+02  0.51100000000E-03 0.  1.
         11   -1    0    0    0    0 -0.00000000000E+00 -0.00000000000E+00 -0.45593999997E+02  0.45594000000E+02  0.51100000000E-03 0. -1.
         23    2    1    2    0    0  0.00000000000E+00  0.00000000000E+00 -0.35527136788E-14  0.91188000000E+02  0.91188000000E+02 0.  0.
    9900012    2    3    3    0    0  0.15311776493E+02 -0.19653480991E+02  0.27112172204E+02  0.54367086159E+02  0.40000004517E+02 0.  0.
         12    1    3    3    0    0 -0.15311776493E+02  0.19653480991E+02 -0.27112172204E+02  0.36820913841E+02  0.00000000000E+00 0. -1.
         11    1    4    4    0    0 -0.36067798985E+01  0.46957600379E+01  0.29527630644E+01  0.66164819614E+01  0.51100000000E-03 0. -1.
        -11    1    4    4    0    0  0.93896359855E+00  0.58494057751E+01  0.48060369091E+01  0.76285772982E+01  0.51100000000E-03 0.  1.
        -12    1    4    4    0    0  0.17979592793E+02 -0.30198646804E+02  0.19353372231E+02  0.40122026899E+02  0.00000000000E+00 0.  1.
</event>
<event>
 8    1  0.1240174E-006  0.9118800E+02  0.7816164E-02  0.1184000E+00
        -11   -1    0    0    0    0  0.00000000000E+00  0.00000000000E+00  0.45593999997E+02  0.45594000000E+02  0.51100000000E-03 0.  1.
         11   -1    0    0    0    0 -0.00000000000E+00 -0.00000000000E+00 -0.45593999997E+02  0.45594000000E+02  0.51100000000E-03 0. -1.
         23    2    1    2    0    0  0.00000000000E+00  0.00000000000E+00  0.44408920985E-15  0.91188000000E+02  0.91188000000E+02 0.  0.
    9900012    2    3    3    0    0 -0.33450819245E+02 -0.15292113655E+02 -0.17246078866E+01  0.54367077679E+02  0.39999985185E+02 0.  0.
         12    1    3    3    0    0  0.33450819245E+02  0.15292113655E+02  0.17246078866E+01  0.36820922321E+02  0.00000000000E+00 0. -1.
         11    1    4    4    0    0 -0.56093954596E+01  0.11981100458E+02  0.43789038950E+01  0.13935095449E+02  0.51100000000E-03 0. -1.
        -11    1    4    4    0    0 -0.26340179857E+02 -0.27630412953E+02 -0.49249701887E+01  0.38490260151E+02  0.51100000000E-03 0.  1.
        -12    1    4    4    0    0 -0.15012439289E+01  0.35719884071E+00 -0.11785415929E+01  0.19417220789E+01  0.00000000000E+00 0.  1.
</event>
<event>
 8    1  0.1240174E-006  0.9118800E+02  0.7816164E-02  0.1184000E+00
        -11   -1    0    0    0    0  0.00000000000E+00  0.00000000000E+00  0.45593999997E+02  0.45594000000E+02  0.51100000000E-03 0.  1.
         11   -1    0    0    0    0 -0.00000000000E+00 -0.00000000000E+00 -0.45593999997E+02  0.45594000000E+02  0.51100000000E-03 0. -1.
         23    2    1    2    0    0  0.00000000000E+00  0.00000000000E+00  0.00000000000E+00  0.91188000000E+02  0.91188000000E+02 0.  0.
    9900012    2    3    3    0    0  0.26450660453E+02  0.24565776497E+02 -0.72569772129E+01  0.54367101972E+02  0.40000040567E+02 0.  0.
         12    1    3    3    0    0 -0.26450660453E+02 -0.24565776497E+02  0.72569772129E+01  0.36820898028E+02  0.00000000000E+00 0. -1.
         11    1    4    4    0    0  0.46346346659E+01  0.24330840066E+02 -0.70828267048E+01  0.25761134509E+02  0.51100000000E-03 0. -1.
        -11    1    4    4    0    0  0.11976342522E+02  0.74642673651E+01  0.54950290418E+01  0.15144088349E+02  0.51100000000E-03 0.  1.
         12    1    4    4    0    0  0.98396832650E+01 -0.72293309341E+01 -0.56691795499E+01  0.13461879114E+02  0.00000000000E+00 0. -1.
</event>
<event>
 8    1  0.1240174E-006  0.9118800E+02  0.7816164E-02  0.1184000E+00
        -11   -1    0    0    0    0  0.00000000000E+00  0.00000000000E+00  0.45593999997E+02  0.45594000000E+02  0.51100000000E-03 0. -1.
         11   -1    0    0    0    0 -0.00000000000E+00 -0.00000000000E+00 -0.45593999997E+02  0.45594000000E+02  0.51100000000E-03 0.  1.
         23    2    1    2    0    0  0.17763568394E-14 -0.35527136788E-14  0.00000000000E+00  0.91188000000E+02  0.91188000000E+02 0.  0.
    9900012    2    3    3    0    0  0.81855593150E+01 -0.18457363151E+02  0.30791219559E+02  0.54367124973E+02  0.40000093001E+02 0.  0.
        -12    1    3    3    0    0 -0.81855593150E+01  0.18457363151E+02 -0.30791219559E+02  0.36820875027E+02  0.00000000000E+00 0.  1.
         11    1    4    4    0    0  0.14178737975E+02 -0.10012491012E+02  0.32411751934E+02  0.36766945080E+02  0.51100000000E-03 0. -1.
        -11    1    4    4    0    0  0.38049661701E+01 -0.65064736284E+01 -0.69852452799E+00  0.75696699670E+01  0.51100000000E-03 0.  1.
        -12    1    4    4    0    0 -0.97981448304E+01 -0.19383985108E+01 -0.92200784640E+00  0.10030509926E+02  0.00000000000E+00 0.  1.
</event>
<event>
 8    1  0.1240174E-006  0.9118800E+02  0.7816164E-02  0.1184000E+00
        -11   -1    0    0    0    0  0.00000000000E+00  0.00000000000E+00  0.45593999997E+02  0.45594000000E+02  0.51100000000E-03 0.  1.
         11   -1    0    0    0    0 -0.00000000000E+00 -0.00000000000E+00 -0.45593999997E+02  0.45594000000E+02  0.51100000000E-03 0. -1.
         23    2    1    2    0    0  0.88817841970E-15 -0.35527136788E-14 -0.35527136788E-14  0.91188000000E+02  0.91188000000E+02 0.  0.
    9900012    2    3    3    0    0  0.52077511375E+01 -0.18046441284E+02 -0.31669955363E+02  0.54367071337E+02  0.39999970727E+02 0.  0.
        -12    1    3    3    0    0 -0.52077511375E+01  0.18046441284E+02  0.31669955363E+02  0.36820928663E+02  0.00000000000E+00 0.  1.
         11    1    4    4    0    0  0.12771888063E+02 -0.14835386193E+02 -0.14393519638E+02  0.24297802699E+02  0.51100000000E-03 0. -1.
        -11    1    4    4    0    0  0.17676586051E+01  0.86429345842E+01 -0.30532367552E+01  0.93352659371E+01  0.51100000000E-03 0.  1.
        -12    1    4    4    0    0 -0.93317955306E+01 -0.11853989676E+02 -0.14223198969E+02  0.20734002700E+02  0.00000000000E+00 0.  1.
</event>
<event>
 8    1  0.1240174E-006  0.9118800E+02  0.7816164E-02  0.1184000E+00
        -11   -1    0    0    0    0  0.00000000000E+00  0.00000000000E+00  0.45593999997E+02  0.45594000000E+02  0.51100000000E-03 0.  1.
         11   -1    0    0    0    0 -0.00000000000E+00 -0.00000000000E+00 -0.45593999997E+02  0.45594000000E+02  0.51100000000E-03 0. -1.
         23    2    1    2    0    0  0.00000000000E+00 -0.35527136788E-14 -0.35527136788E-14  0.91188000000E+02  0.91188000000E+02 0.  0.
    9900012    2    3    3    0    0  0.83636796099E+01  0.31983793260E+02  0.16213368782E+02  0.54366980253E+02  0.39999763083E+02 0.  0.
        -12    1    3    3    0    0 -0.83636796099E+01 -0.31983793260E+02 -0.16213368782E+02  0.36821019747E+02  0.00000000000E+00 0.  1.
         11    1    4    4    0    0  0.76297524200E+01 -0.23444626784E+01  0.88752240716E+01  0.11936466388E+02  0.51100000000E-03 0. -1.
        -11    1    4    4    0    0  0.33997894058E+01  0.11157997585E+02  0.13954037638E+02  0.18187211022E+02  0.51100000000E-03 0.  1.
         12    1    4    4    0    0 -0.26658622159E+01  0.23170258354E+02 -0.66158929277E+01  0.24243302844E+02  0.00000000000E+00 0. -1.
</event>
<event>
 8    1  0.1240174E-006  0.9118800E+02  0.7816164E-02  0.1184000E+00
        -11   -1    0    0    0    0  0.00000000000E+00  0.00000000000E+00  0.45593999997E+02  0.45594000000E+02  0.51100000000E-03 0.  1.
         11   -1    0    0    0    0 -0.00000000000E+00 -0.00000000000E+00 -0.45593999997E+02  0.45594000000E+02  0.51100000000E-03 0. -1.
         23    2    1    2    0    0  0.17763568394E-14 -0.71054273576E-14  0.00000000000E+00  0.91188000000E+02  0.91188000000E+02 0.  0.
    9900012    2    3    3    0    0  0.88896625829E+01 -0.32753974795E+02 -0.14280514620E+02  0.54367054011E+02  0.39999931230E+02 0.  0.
        -12    1    3    3    0    0 -0.88896625829E+01  0.32753974795E+02  0.14280514620E+02  0.36820945989E+02  0.00000000000E+00 0.  1.
         11    1    4    4    0    0  0.43641939812E+01 -0.20238446903E+02 -0.99731251116E+01  0.22980516681E+02  0.51100000000E-03 0. -1.
        -11    1    4    4    0    0 -0.86660532412E+01  0.82647931650E+00 -0.84940657684E+01  0.12162758749E+02  0.51100000000E-03 0.  1.
        -12    1    4    4    0    0  0.13191521843E+02 -0.13342007208E+02  0.41866762601E+01  0.19223778582E+02  0.00000000000E+00 0.  1.
</event>
<event>
 8    1  0.1240174E-006  0.9118800E+02  0.7816164E-02  0.1184000E+00
        -11   -1    0    0    0    0  0.00000000000E+00  0.00000000000E+00  0.45593999997E+02  0.45594000000E+02  0.51100000000E-03 0.  1.
         11   -1    0    0    0    0 -0.00000000000E+00 -0.00000000000E+00 -0.45593999997E+02  0.45594000000E+02  0.51100000000E-03 0. -1.
         23    2    1    2    0    0 -0.71054273576E-14 -0.71054273576E-14 -0.71054273576E-14  0.91188000000E+02  0.91188000000E+02 0.  0.
    9900012    2    3    3    0    0 -0.16877644474E+02 -0.24876687975E+02 -0.21262118263E+02  0.54367052692E+02  0.39999928222E+02 0.  0.
         12    1    3    3    0    0  0.16877644474E+02  0.24876687975E+02  0.21262118263E+02  0.36820947308E+02  0.00000000000E+00 0. -1.
         11    1    4    4    0    0 -0.17312570436E+02 -0.91889602428E+01 -0.13655855015E+02  0.23888165729E+02  0.51100000000E-03 0. -1.
        -11    1    4    4    0    0  0.17908171088E+01 -0.16292186722E+02  0.55002384604E+01  0.17288579973E+02  0.51100000000E-03 0.  1.
        -12    1    4    4    0    0 -0.13558911472E+01  0.60445898939E+00 -0.13106501708E+02  0.13190306990E+02  0.00000000000E+00 0.  1.
</event>
<event>
 8    1  0.1240174E-006  0.9118800E+02  0.7816164E-02  0.1184000E+00
        -11   -1    0    0    0    0  0.00000000000E+00  0.00000000000E+00  0.45593999997E+02  0.45594000000E+02  0.51100000000E-03 0.  1.
         11   -1    0    0    0    0 -0.00000000000E+00 -0.00000000000E+00 -0.45593999997E+02  0.45594000000E+02  0.51100000000E-03 0. -1.
         23    2    1    2    0    0  0.00000000000E+00  0.00000000000E+00 -0.71054273576E-14  0.91188000000E+02  0.91188000000E+02 0.  0.
    9900012    2    3    3    0    0  0.12489029793E+02  0.94383615980E+01  0.33327501080E+02  0.54367070312E+02  0.39999968390E+02 0.  0.
         12    1    3    3    0    0 -0.12489029793E+02 -0.94383615980E+01 -0.33327501080E+02  0.36820929688E+02  0.00000000000E+00 0. -1.
         11    1    4    4    0    0  0.50279252479E+01  0.61006709286E+01  0.13096921857E+01  0.80133333863E+01  0.51100000000E-03 0. -1.
        -11    1    4    4    0    0  0.17082266469E+02  0.58542266163E+01  0.68862222806E+01  0.19326040840E+02  0.51100000000E-03 0.  1.
         12    1    4    4    0    0 -0.96211619240E+01 -0.25165359469E+01  0.25131586614E+02  0.27027696085E+02  0.00000000000E+00 0. -1.
</event>
<event>
 8    1  0.1240174E-006  0.9118800E+02  0.7816164E-02  0.1184000E+00
        -11   -1    0    0    0    0  0.00000000000E+00  0.00000000000E+00  0.45593999997E+02  0.45594000000E+02  0.51100000000E-03 0. -1.
         11   -1    0    0    0    0 -0.00000000000E+00 -0.00000000000E+00 -0.45593999997E+02  0.45594000000E+02  0.51100000000E-03 0.  1.
         23    2    1    2    0    0 -0.35527136788E-14  0.00000000000E+00  0.00000000000E+00  0.91188000000E+02  0.91188000000E+02 0.  0.
    9900012    2    3    3    0    0  0.89404417599E+01  0.33851123521E+02 -0.11399540747E+02  0.54367087576E+02  0.40000007747E+02 0.  0.
        -12    1    3    3    0    0 -0.89404417599E+01 -0.33851123521E+02  0.11399540747E+02  0.36820912424E+02  0.00000000000E+00 0.  1.
         11    1    4    4    0    0  0.78087897268E+01  0.16660892044E+02 -0.87764999014E+01  0.20386011662E+02  0.51100000000E-03 0. -1.
        -11    1    4    4    0    0 -0.74056980865E+01  0.68029191427E+01 -0.13397138771E+02  0.16751340260E+02  0.51100000000E-03 0.  1.
        -12    1    4    4    0    0  0.85373501195E+01  0.10387312334E+02  0.10774097925E+02  0.17229735654E+02  0.00000000000E+00 0.  1.
</event>
<event>
 8    1  0.1240174E-006  0.9118800E+02  0.7816164E-02  0.1184000E+00
        -11   -1    0    0    0    0  0.00000000000E+00  0.00000000000E+00  0.45593999997E+02  0.45594000000E+02  0.51100000000E-03 0.  1.
         11   -1    0    0    0    0 -0.00000000000E+00 -0.00000000000E+00 -0.45593999997E+02  0.45594000000E+02  0.51100000000E-03 0. -1.
         23    2    1    2    0    0 -0.71054273576E-14  0.00000000000E+00  0.17763568394E-14  0.91188000000E+02  0.91188000000E+02 0.  0.
    9900012    2    3    3    0    0 -0.35859215844E+02  0.19332448301E+01 -0.81338083403E+01  0.54367086994E+02  0.40000006420E+02 0.  0.
        -12    1    3    3    0    0  0.35859215844E+02 -0.19332448301E+01  0.81338083403E+01  0.36820913006E+02  0.00000000000E+00 0.  1.
         11    1    4    4    0    0 -0.17237132247E-01 -0.33802001560E+01  0.21954643082E+01  0.40306468467E+01  0.51100000000E-03 0. -1.
        -11    1    4    4    0    0  0.61050167996E+01  0.35764110150E+01 -0.31462638738E+01  0.77434438395E+01  0.51100000000E-03 0.  1.
         12    1    4    4    0    0 -0.41946995511E+02  0.17370339711E+01 -0.71830087747E+01  0.42592996308E+02  0.00000000000E+00 0. -1.
</event>
<event>
 8    1  0.1240174E-006  0.9118800E+02  0.7816164E-02  0.1184000E+00
        -11   -1    0    0    0    0  0.00000000000E+00  0.00000000000E+00  0.45593999997E+02  0.45594000000E+02  0.51100000000E-03 0. -1.
         11   -1    0    0    0    0 -0.00000000000E+00 -0.00000000000E+00 -0.45593999997E+02  0.45594000000E+02  0.51100000000E-03 0.  1.
         23    2    1    2    0    0  0.00000000000E+00  0.00000000000E+00  0.00000000000E+00  0.91188000000E+02  0.91188000000E+02 0.  0.
    9900012    2    3    3    0    0  0.27055185338E+02  0.23661403044E+01 -0.24863655814E+02  0.54367040561E+02  0.39999900566E+02 0.  0.
         12    1    3    3    0    0 -0.27055185338E+02 -0.23661403044E+01  0.24863655814E+02  0.36820959439E+02  0.00000000000E+00 0. -1.
         11    1    4    4    0    0  0.10776912060E+01  0.37720410605E+01  0.73175711816E+01  0.83028043670E+01  0.51100000000E-03 0. -1.
        -11    1    4    4    0    0  0.55981062719E+01  0.46143338318E+01 -0.20649687898E+02  0.21886993423E+02  0.51100000000E-03 0.  1.
        -12    1    4    4    0    0  0.20379387860E+02 -0.60202345880E+01 -0.11531539097E+02  0.24177242771E+02  0.00000000000E+00 0.  1.
</event>
<event>
 8    1  0.1240174E-006  0.9118800E+02  0.7816164E-02  0.1184000E+00
        -11   -1    0    0    0    0  0.00000000000E+00  0.00000000000E+00  0.45593999997E+02  0.45594000000E+02  0.51100000000E-03 0.  1.
         11   -1    0    0    0    0 -0.00000000000E+00 -0.00000000000E+00 -0.45593999997E+02  0.45594000000E+02  0.51100000000E-03 0. -1.
         23    2    1    2    0    0 -0.71054273576E-14  0.17763568394E-14 -0.35527136788E-14  0.91188000000E+02  0.91188000000E+02 0.  0.
    9900012    2    3    3    0    0  0.29337517619E+02 -0.15388152109E+02  0.16071558654E+02  0.54367079819E+02  0.39999990064E+02 0.  0.
        -12    1    3    3    0    0 -0.29337517619E+02  0.15388152109E+02 -0.16071558654E+02  0.36820920181E+02  0.00000000000E+00 0.  1.
         11    1    4    4    0    0  0.62412057998E+01 -0.95859179123E+01 -0.66416813918E+01  0.13227033077E+02  0.51100000000E-03 0. -1.
        -11    1    4    4    0    0  0.12242967961E+02  0.31181099972E+00 -0.29641239184E+01  0.12600536554E+02  0.51100000000E-03 0.  1.
        -12    1    4    4    0    0  0.10853343859E+02 -0.61140451962E+01  0.25677363964E+02  0.28539510187E+02  0.00000000000E+00 0.  1.
</event>
<event>
 8    1  0.1240174E-006  0.9118800E+02  0.7816164E-02  0.1184000E+00
        -11   -1    0    0    0    0  0.00000000000E+00  0.00000000000E+00  0.45593999997E+02  0.45594000000E+02  0.51100000000E-03 0.  1.
         11   -1    0    0    0    0 -0.00000000000E+00 -0.00000000000E+00 -0.45593999997E+02  0.45594000000E+02  0.51100000000E-03 0. -1.
         23    2    1    2    0    0  0.00000000000E+00  0.00000000000E+00  0.88817841970E-15  0.91188000000E+02  0.91188000000E+02 0.  0.
    9900012    2    3    3    0    0  0.35704364570E+02  0.80152793766E+01  0.40907446958E+01  0.54367074632E+02  0.39999978238E+02 0.  0.
         12    1    3    3    0    0 -0.35704364570E+02 -0.80152793766E+01 -0.40907446958E+01  0.36820925368E+02  0.00000000000E+00 0. -1.
         11    1    4    4    0    0 -0.11826178461E+00  0.99087866707E+01 -0.22239079549E+01  0.10155973906E+02  0.51100000000E-03 0. -1.
        -11    1    4    4    0    0  0.80419801270E+01 -0.26768989249E+01  0.13100202983E+02  0.15603030176E+02  0.51100000000E-03 0.  1.
        -12    1    4    4    0    0  0.27780646227E+02  0.78339163086E+00 -0.67855503318E+01  0.28608070550E+02  0.00000000000E+00 0.  1.
</event>
<event>
 8    1  0.1240174E-006  0.9118800E+02  0.7816164E-02  0.1184000E+00
        -11   -1    0    0    0    0  0.00000000000E+00  0.00000000000E+00  0.45593999997E+02  0.45594000000E+02  0.51100000000E-03 0.  1.
         11   -1    0    0    0    0 -0.00000000000E+00 -0.00000000000E+00 -0.45593999997E+02  0.45594000000E+02  0.51100000000E-03 0. -1.
         23    2    1    2    0    0  0.00000000000E+00 -0.35527136788E-14  0.00000000000E+00  0.91188000000E+02  0.91188000000E+02 0.  0.
    9900012    2    3    3    0    0 -0.29723310003E+02  0.20358351902E+02  0.76054426239E+01  0.54367076503E+02  0.39999982504E+02 0.  0.
         12    1    3    3    0    0  0.29723310003E+02 -0.20358351902E+02 -0.76054426239E+01  0.36820923497E+02  0.00000000000E+00 0. -1.
         11    1    4    4    0    0 -0.12794447953E+02 -0.71251502549E+01 -0.19641536410E+01  0.14775776270E+02  0.51100000000E-03 0. -1.
        -11    1    4    4    0    0 -0.80116267844E+01  0.17511213915E+01 -0.40450387405E+01  0.91441198884E+01  0.51100000000E-03 0.  1.
         12    1    4    4    0    0 -0.89172352648E+01  0.25732380765E+02  0.13614635005E+02  0.30447180345E+02  0.00000000000E+00 0. -1.
</event>
<event>
 8    1  0.1240174E-006  0.9118800E+02  0.7816164E-02  0.1184000E+00
        -11   -1    0    0    0    0  0.00000000000E+00  0.00000000000E+00  0.45593999997E+02  0.45594000000E+02  0.51100000000E-03 0.  1.
         11   -1    0    0    0    0 -0.00000000000E+00 -0.00000000000E+00 -0.45593999997E+02  0.45594000000E+02  0.51100000000E-03 0. -1.
         23    2    1    2    0    0  0.00000000000E+00 -0.17763568394E-14  0.44408920985E-15  0.91188000000E+02  0.91188000000E+02 0.  0.
    9900012    2    3    3    0    0 -0.34850447064E+02  0.11244623689E+02 -0.38455759848E+01  0.54367032099E+02  0.39999881277E+02 0.  0.
        -12    1    3    3    0    0  0.34850447064E+02 -0.11244623689E+02  0.38455759848E+01  0.36820967901E+02  0.00000000000E+00 0.  1.
         11    1    4    4    0    0  0.31570252447E+01 -0.69253413439E+01  0.44208265952E+01  0.88017537554E+01  0.51100000000E-03 0.  1.
        -11    1    4    4    0    0 -0.66538242107E+01 -0.10565723356E+01  0.25889910888E+01  0.72175201314E+01  0.51100000000E-03 0. -1.
         12    1    4    4    0    0 -0.31353648098E+02  0.19226537368E+02 -0.10855393669E+02  0.38347758213E+02  0.00000000000E+00 0. -1.
</event>
<event>
 8    1  0.1240174E-006  0.9118800E+02  0.7816164E-02  0.1184000E+00
        -11   -1    0    0    0    0  0.00000000000E+00  0.00000000000E+00  0.45593999997E+02  0.45594000000E+02  0.51100000000E-03 0. -1.
         11   -1    0    0    0    0 -0.00000000000E+00 -0.00000000000E+00 -0.45593999997E+02  0.45594000000E+02  0.51100000000E-03 0.  1.
         23    2    1    2    0    0  0.00000000000E+00  0.00000000000E+00  0.00000000000E+00  0.91188000000E+02  0.91188000000E+02 0.  0.
    9900012    2    3    3    0    0 -0.69189009700E+01  0.90838157758E+01  0.35005565140E+02  0.54367129689E+02  0.40000103751E+02 0.  0.
        -12    1    3    3    0    0  0.69189009700E+01 -0.90838157758E+01 -0.35005565140E+02  0.36820870311E+02  0.00000000000E+00 0.  1.
         11    1    4    4    0    0 -0.13773939134E+01 -0.14580934838E+02  0.19268498591E+02  0.24202807956E+02  0.51100000000E-03 0. -1.
        -11    1    4    4    0    0 -0.28623118728E+01  0.17321290257E+02  0.66738706810E+01  0.18781918846E+02  0.51100000000E-03 0.  1.
         12    1    4    4    0    0 -0.26791951838E+01  0.63434603564E+01  0.90631958680E+01  0.11382402886E+02  0.00000000000E+00 0. -1.
</event>
<event>
 8    1  0.1240174E-006  0.9118800E+02  0.7816164E-02  0.1184000E+00
        -11   -1    0    0    0    0  0.00000000000E+00  0.00000000000E+00  0.45593999997E+02  0.45594000000E+02  0.51100000000E-03 0. -1.
         11   -1    0    0    0    0 -0.00000000000E+00 -0.00000000000E+00 -0.45593999997E+02  0.45594000000E+02  0.51100000000E-03 0.  1.
         23    2    1    2    0    0  0.55511151231E-15  0.00000000000E+00  0.00000000000E+00  0.91188000000E+02  0.91188000000E+02 0.  0.
    9900012    2    3    3    0    0  0.77458871819E+00  0.13989006815E+02  0.34051274173E+02  0.54367060683E+02  0.39999946440E+02 0.  0.
        -12    1    3    3    0    0 -0.77458871819E+00 -0.13989006815E+02 -0.34051274173E+02  0.36820939317E+02  0.00000000000E+00 0.  1.
         11    1    4    4    0    0 -0.11948180907E+02 -0.31521981840E+01  0.13282123926E+02  0.18141394561E+02  0.51100000000E-03 0. -1.
        -11    1    4    4    0    0 -0.20964211249E+01  0.13604446976E+01 -0.31130745803E+01  0.39921203529E+01  0.51100000000E-03 0.  1.
         12    1    4    4    0    0  0.14819190750E+02  0.15780760302E+02  0.23882224827E+02  0.32233545769E+02  0.00000000000E+00 0. -1.
</event>
<event>
 8    1  0.1240174E-006  0.9118800E+02  0.7816164E-02  0.1184000E+00
        -11   -1    0    0    0    0  0.00000000000E+00  0.00000000000E+00  0.45593999997E+02  0.45594000000E+02  0.51100000000E-03 0. -1.
         11   -1    0    0    0    0 -0.00000000000E+00 -0.00000000000E+00 -0.45593999997E+02  0.45594000000E+02  0.51100000000E-03 0.  1.
         23    2    1    2    0    0  0.00000000000E+00  0.00000000000E+00  0.00000000000E+00  0.91188000000E+02  0.91188000000E+02 0.  0.
    9900012    2    3    3    0    0 -0.21597170173E+02 -0.25183744902E+02 -0.15972414638E+02  0.54367125538E+02  0.40000094289E+02 0.  0.
        -12    1    3    3    0    0  0.21597170173E+02  0.25183744902E+02  0.15972414638E+02  0.36820874462E+02  0.00000000000E+00 0.  1.
         11    1    4    4    0    0 -0.20899843892E+02 -0.64104089041E+01 -0.19119730743E+01  0.21944303550E+02  0.51100000000E-03 0. -1.
        -11    1    4    4    0    0 -0.81948737317E+01 -0.13513382614E+02 -0.16598593629E+02  0.22919004687E+02  0.51100000000E-03 0.  1.
        -12    1    4    4    0    0  0.74975474502E+01 -0.52599533841E+01  0.25381520650E+01  0.95038173002E+01  0.00000000000E+00 0.  1.
</event>
<event>
 8    1  0.1240174E-006  0.9118800E+02  0.7816164E-02  0.1184000E+00
        -11   -1    0    0    0    0  0.00000000000E+00  0.00000000000E+00  0.45593999997E+02  0.45594000000E+02  0.51100000000E-03 0. -1.
         11   -1    0    0    0    0 -0.00000000000E+00 -0.00000000000E+00 -0.45593999997E+02  0.45594000000E+02  0.51100000000E-03 0.  1.
         23    2    1    2    0    0  0.00000000000E+00  0.88817841970E-15  0.35527136788E-14  0.91188000000E+02  0.91188000000E+02 0.  0.
    9900012    2    3    3    0    0  0.24523014310E+02 -0.11068478806E+01 -0.27444117020E+02  0.54367042624E+02  0.39999905270E+02 0.  0.
         12    1    3    3    0    0 -0.24523014310E+02  0.11068478806E+01  0.27444117020E+02  0.36820957376E+02  0.00000000000E+00 0. -1.
         11    1    4    4    0    0  0.17904705466E+02  0.59013399608E+01  0.55987908040E+01  0.19665979505E+02  0.51100000000E-03 0. -1.
        -11    1    4    4    0    0  0.28155899164E+01 -0.19358017839E+01 -0.58122354099E+01  0.67421773817E+01  0.51100000000E-03 0.  1.
         12    1    4    4    0    0  0.38027189275E+01 -0.50723860575E+01 -0.27230672414E+02  0.27958885737E+02  0.00000000000E+00 0. -1.
</event>
<event>
 8    1  0.1240174E-006  0.9118800E+02  0.7816164E-02  0.1184000E+00
        -11   -1    0    0    0    0  0.00000000000E+00  0.00000000000E+00  0.45593999997E+02  0.45594000000E+02  0.51100000000E-03 0. -1.
         11   -1    0    0    0    0 -0.00000000000E+00 -0.00000000000E+00 -0.45593999997E+02  0.45594000000E+02  0.51100000000E-03 0.  1.
         23    2    1    2    0    0 -0.35527136788E-14  0.00000000000E+00 -0.35527136788E-14  0.91188000000E+02  0.91188000000E+02 0.  0.
    9900012    2    3    3    0    0  0.28413804432E+02 -0.18489990082E+02  0.14372111801E+02  0.54367060126E+02  0.39999945170E+02 0.  0.
         12    1    3    3    0    0 -0.28413804432E+02  0.18489990082E+02 -0.14372111801E+02  0.36820939874E+02  0.00000000000E+00 0. -1.
         11    1    4    4    0    0  0.10732863829E+02 -0.15131323322E+02  0.30185759127E+01  0.18795294949E+02  0.51100000000E-03 0. -1.
        -11    1    4    4    0    0  0.62718820610E+01 -0.15543964640E+02  0.78797609935E+01  0.18521392358E+02  0.51100000000E-03 0.  1.
         12    1    4    4    0    0  0.11409058543E+02  0.12185297879E+02  0.34737748952E+01  0.17050372819E+02  0.00000000000E+00 0. -1.
</event>
<event>
 8    1  0.1240174E-006  0.9118800E+02  0.7816164E-02  0.1184000E+00
        -11   -1    0    0    0    0  0.00000000000E+00  0.00000000000E+00  0.45593999997E+02  0.45594000000E+02  0.51100000000E-03 0.  1.
         11   -1    0    0    0    0 -0.00000000000E+00 -0.00000000000E+00 -0.45593999997E+02  0.45594000000E+02  0.51100000000E-03 0. -1.
         23    2    1    2    0    0  0.17763568394E-14 -0.35527136788E-14 -0.35527136788E-14  0.91188000000E+02  0.91188000000E+02 0.  0.
    9900012    2    3    3    0    0 -0.11872324473E+02 -0.16013100575E+02  0.30958182004E+02  0.54367075087E+02  0.39999979277E+02 0.  0.
         12    1    3    3    0    0  0.11872324473E+02  0.16013100575E+02 -0.30958182004E+02  0.36820924913E+02  0.00000000000E+00 0. -1.
         11    1    4    4    0    0 -0.60754424933E+01  0.96652372492E+01  0.11085423930E+01  0.11469816000E+02  0.51100000000E-03 0. -1.
        -11    1    4    4    0    0 -0.57466538589E+01 -0.66931882482E+00  0.61234442584E+01  0.84242856142E+01  0.51100000000E-03 0.  1.
         12    1    4    4    0    0 -0.50228120744E-01 -0.25009019000E+02  0.23726195353E+02  0.34472973473E+02  0.00000000000E+00 0. -1.
</event>
<event>
 8    1  0.1240174E-006  0.9118800E+02  0.7816164E-02  0.1184000E+00
        -11   -1    0    0    0    0  0.00000000000E+00  0.00000000000E+00  0.45593999997E+02  0.45594000000E+02  0.51100000000E-03 0.  1.
         11   -1    0    0    0    0 -0.00000000000E+00 -0.00000000000E+00 -0.45593999997E+02  0.45594000000E+02  0.51100000000E-03 0. -1.
         23    2    1    2    0    0  0.00000000000E+00  0.00000000000E+00  0.00000000000E+00  0.91188000000E+02  0.91188000000E+02 0.  0.
    9900012    2    3    3    0    0 -0.11707532597E+02 -0.87288152140E+01  0.33801239420E+02  0.54367050516E+02  0.39999923261E+02 0.  0.
         12    1    3    3    0    0  0.11707532597E+02  0.87288152140E+01 -0.33801239420E+02  0.36820949484E+02  0.00000000000E+00 0. -1.
         11    1    4    4    0    0 -0.73757594743E+01  0.61451263475E+01  0.26771995202E+01  0.99665341609E+01  0.51100000000E-03 0. -1.
        -11    1    4    4    0    0 -0.67352419293E+01  0.68901501245E+01  0.76820109772E+01  0.12322781565E+02  0.51100000000E-03 0.  1.
         12    1    4    4    0    0  0.24034688062E+01 -0.21764091686E+02  0.23442028923E+02  0.32077734790E+02  0.00000000000E+00 0. -1.
</event>
<event>
 8    1  0.1240174E-006  0.9118800E+02  0.7816164E-02  0.1184000E+00
        -11   -1    0    0    0    0  0.00000000000E+00  0.00000000000E+00  0.45593999997E+02  0.45594000000E+02  0.51100000000E-03 0.  1.
         11   -1    0    0    0    0 -0.00000000000E+00 -0.00000000000E+00 -0.45593999997E+02  0.45594000000E+02  0.51100000000E-03 0. -1.
         23    2    1    2    0    0 -0.17763568394E-14  0.00000000000E+00  0.00000000000E+00  0.91188000000E+02  0.91188000000E+02 0.  0.
    9900012    2    3    3    0    0  0.93084463317E+01  0.28848934001E+02  0.20901474806E+02  0.54367084542E+02  0.40000000830E+02 0.  0.
         12    1    3    3    0    0 -0.93084463317E+01 -0.28848934001E+02 -0.20901474806E+02  0.36820915458E+02  0.00000000000E+00 0. -1.
         11    1    4    4    0    0  0.98297159905E+01  0.19615462756E+02 -0.44755728024E+01  0.22392419426E+02  0.51100000000E-03 0. -1.
        -11    1    4    4    0    0 -0.25190005133E+01  0.13941098974E+02  0.20415436029E+02  0.24849338677E+02  0.51100000000E-03 0.  1.
         12    1    4    4    0    0  0.19977308545E+01 -0.47076277285E+01  0.49616115793E+01  0.71253264390E+01  0.00000000000E+00 0. -1.
</event>
<event>
 8    1  0.1240174E-006  0.9118800E+02  0.7816164E-02  0.1184000E+00
        -11   -1    0    0    0    0  0.00000000000E+00  0.00000000000E+00  0.45593999997E+02  0.45594000000E+02  0.51100000000E-03 0.  1.
         11   -1    0    0    0    0 -0.00000000000E+00 -0.00000000000E+00 -0.45593999997E+02  0.45594000000E+02  0.51100000000E-03 0. -1.
         23    2    1    2    0    0 -0.17763568394E-14  0.00000000000E+00  0.00000000000E+00  0.91188000000E+02  0.91188000000E+02 0.  0.
    9900012    2    3    3    0    0 -0.94777304362E+01 -0.93158753788E+01  0.34338984060E+02  0.54367099216E+02  0.40000034282E+02 0.  0.
        -12    1    3    3    0    0  0.94777304362E+01  0.93158753788E+01 -0.34338984060E+02  0.36820900784E+02  0.00000000000E+00 0.  1.
         11    1    4    4    0    0 -0.14072114397E+02 -0.54271206451E+01  0.29060818399E+02  0.32741551710E+02  0.51100000000E-03 0. -1.
        -11    1    4    4    0    0  0.10413630559E+01  0.34193720531E+01  0.11079067222E+02  0.11641403395E+02  0.51100000000E-03 0.  1.
         12    1    4    4    0    0  0.35530209050E+01 -0.73081267867E+01 -0.58009015613E+01  0.99841441098E+01  0.00000000000E+00 0. -1.
</event>
<event>
 8    1  0.1240174E-006  0.9118800E+02  0.7816164E-02  0.1184000E+00
        -11   -1    0    0    0    0  0.00000000000E+00  0.00000000000E+00  0.45593999997E+02  0.45594000000E+02  0.51100000000E-03 0. -1.
         11   -1    0    0    0    0 -0.00000000000E+00 -0.00000000000E+00 -0.45593999997E+02  0.45594000000E+02  0.51100000000E-03 0.  1.
         23    2    1    2    0    0 -0.14155343564E-14  0.00000000000E+00 -0.17763568394E-14  0.91188000000E+02  0.91188000000E+02 0.  0.
    9900012    2    3    3    0    0  0.14329675242E+00 -0.33978285763E+02 -0.14185909652E+02  0.54367021333E+02  0.39999856732E+02 0.  0.
         12    1    3    3    0    0 -0.14329675242E+00  0.33978285763E+02  0.14185909652E+02  0.36820978667E+02  0.00000000000E+00 0. -1.
         11    1    4    4    0    0  0.69291000597E+01 -0.44660963360E+01 -0.45657732975E+01  0.94236261697E+01  0.51100000000E-03 0. -1.
        -11    1    4    4    0    0 -0.10618573023E+02 -0.32098971938E+01 -0.14150094439E+02  0.17980064125E+02  0.51100000000E-03 0.  1.
         12    1    4    4    0    0  0.38327697161E+01 -0.26302292233E+02  0.45299580847E+01  0.26963331038E+02  0.00000000000E+00 0. -1.
</event>
<event>
 8    1  0.1240174E-006  0.9118800E+02  0.7816164E-02  0.1184000E+00
        -11   -1    0    0    0    0  0.00000000000E+00  0.00000000000E+00  0.45593999997E+02  0.45594000000E+02  0.51100000000E-03 0. -1.
         11   -1    0    0    0    0 -0.00000000000E+00 -0.00000000000E+00 -0.45593999997E+02  0.45594000000E+02  0.51100000000E-03 0.  1.
         23    2    1    2    0    0 -0.17763568394E-14  0.00000000000E+00  0.00000000000E+00  0.91188000000E+02  0.91188000000E+02 0.  0.
    9900012    2    3    3    0    0 -0.13284992175E+02 -0.33932226490E+02  0.52814235451E+01  0.54367075971E+02  0.39999981291E+02 0.  0.
        -12    1    3    3    0    0  0.13284992175E+02  0.33932226490E+02 -0.52814235451E+01  0.36820924029E+02  0.00000000000E+00 0.  1.
         11    1    4    4    0    0 -0.13983919141E+02 -0.13930332615E+02 -0.28420834882E+01  0.19941955775E+02  0.51100000000E-03 0. -1.
        -11    1    4    4    0    0  0.12665124283E+02 -0.16588045311E+02  0.65975215534E+01  0.21888259667E+02  0.51100000000E-03 0.  1.
        -12    1    4    4    0    0 -0.11966197317E+02 -0.34138485644E+01  0.15259854798E+01  0.12536860529E+02  0.00000000000E+00 0.  1.
</event>
<event>
 8    1  0.1240174E-006  0.9118800E+02  0.7816164E-02  0.1184000E+00
        -11   -1    0    0    0    0  0.00000000000E+00  0.00000000000E+00  0.45593999997E+02  0.45594000000E+02  0.51100000000E-03 0.  1.
         11   -1    0    0    0    0 -0.00000000000E+00 -0.00000000000E+00 -0.45593999997E+02  0.45594000000E+02  0.51100000000E-03 0. -1.
         23    2    1    2    0    0  0.17763568394E-14 -0.44408920985E-15  0.00000000000E+00  0.91188000000E+02  0.91188000000E+02 0.  0.
    9900012    2    3    3    0    0  0.50576166588E+01 -0.83781140043E+00 -0.36462277082E+02  0.54367094739E+02  0.40000024077E+02 0.  0.
        -12    1    3    3    0    0 -0.50576166588E+01  0.83781140043E+00  0.36462277082E+02  0.36820905261E+02  0.00000000000E+00 0.  1.
         11    1    4    4    0    0 -0.49171066129E+01 -0.14059353088E+02 -0.11300029435E+02  0.18695828737E+02  0.51100000000E-03 0. -1.
        -11    1    4    4    0    0 -0.38650062667E+01 -0.42573517058E+00 -0.15410532641E-01  0.38884137669E+01  0.51100000000E-03 0.  1.
         12    1    4    4    0    0  0.13839729538E+02  0.13647276858E+02 -0.25146837115E+02  0.31782852235E+02  0.00000000000E+00 0. -1.
</event>
<event>
 8    1  0.1240174E-006  0.9118800E+02  0.7816164E-02  0.1184000E+00
        -11   -1    0    0    0    0  0.00000000000E+00  0.00000000000E+00  0.45593999997E+02  0.45594000000E+02  0.51100000000E-03 0. -1.
         11   -1    0    0    0    0 -0.00000000000E+00 -0.00000000000E+00 -0.45593999997E+02  0.45594000000E+02  0.51100000000E-03 0.  1.
         23    2    1    2    0    0  0.00000000000E+00  0.33306690739E-15  0.00000000000E+00  0.91188000000E+02  0.91188000000E+02 0.  0.
    9900012    2    3    3    0    0  0.31570647501E+02 -0.89901309637E+00 -0.18927934463E+02  0.54367072375E+02  0.39999973092E+02 0.  0.
        -12    1    3    3    0    0 -0.31570647501E+02  0.89901309637E+00  0.18927934463E+02  0.36820927625E+02  0.00000000000E+00 0.  1.
         11    1    4    4    0    0  0.25187323912E+02  0.11410569904E+02 -0.14962023131E+01  0.27691894356E+02  0.51100000000E-03 0. -1.
        -11    1    4    4    0    0 -0.38635097048E+01 -0.23920676582E+01 -0.90688799308E+01  0.10143632406E+02  0.51100000000E-03 0.  1.
         12    1    4    4    0    0  0.10246833293E+02 -0.99175153426E+01 -0.83628522189E+01  0.16531545613E+02  0.00000000000E+00 0. -1.
</event>
<event>
 8    1  0.1240174E-006  0.9118800E+02  0.7816164E-02  0.1184000E+00
        -11   -1    0    0    0    0  0.00000000000E+00  0.00000000000E+00  0.45593999997E+02  0.45594000000E+02  0.51100000000E-03 0.  1.
         11   -1    0    0    0    0 -0.00000000000E+00 -0.00000000000E+00 -0.45593999997E+02  0.45594000000E+02  0.51100000000E-03 0. -1.
         23    2    1    2    0    0  0.00000000000E+00 -0.88817841970E-15 -0.71054273576E-14  0.91188000000E+02  0.91188000000E+02 0.  0.
    9900012    2    3    3    0    0 -0.85303268359E+01  0.60621164886E+01  0.35302476822E+02  0.54367073858E+02  0.39999976473E+02 0.  0.
         12    1    3    3    0    0  0.85303268359E+01 -0.60621164886E+01 -0.35302476822E+02  0.36820926142E+02  0.00000000000E+00 0. -1.
         11    1    4    4    0    0 -0.34131137461E+01  0.70839388326E+01  0.13762780535E+02  0.15850730682E+02  0.51100000000E-03 0. -1.
        -11    1    4    4    0    0 -0.95856674377E+01 -0.14558139780E+02  0.14202301636E+02  0.22483990440E+02  0.51100000000E-03 0.  1.
         12    1    4    4    0    0  0.44684543479E+01  0.13536317436E+02  0.73373946507E+01  0.16032352736E+02  0.00000000000E+00 0. -1.
</event>
<event>
 8    1  0.1240174E-006  0.9118800E+02  0.7816164E-02  0.1184000E+00
        -11   -1    0    0    0    0  0.00000000000E+00  0.00000000000E+00  0.45593999997E+02  0.45594000000E+02  0.51100000000E-03 0.  1.
         11   -1    0    0    0    0 -0.00000000000E+00 -0.00000000000E+00 -0.45593999997E+02  0.45594000000E+02  0.51100000000E-03 0. -1.
         23    2    1    2    0    0  0.00000000000E+00  0.00000000000E+00  0.00000000000E+00  0.91188000000E+02  0.91188000000E+02 0.  0.
    9900012    2    3    3    0    0 -0.16745369932E+02  0.49056117650E+01 -0.32423867825E+02  0.54367086843E+02  0.40000006076E+02 0.  0.
        -12    1    3    3    0    0  0.16745369932E+02 -0.49056117650E+01  0.32423867825E+02  0.36820913157E+02  0.00000000000E+00 0.  1.
         11    1    4    4    0    0 -0.95681236963E+01  0.47937270899E+01 -0.58326403528E+01  0.12188047597E+02  0.51100000000E-03 0. -1.
        -11    1    4    4    0    0 -0.19060259183E+02 -0.47275551909E+01 -0.13380441534E+02  0.23762985379E+02  0.51100000000E-03 0.  1.
        -12    1    4    4    0    0  0.11883012947E+02  0.48394398660E+01 -0.13210785938E+02  0.18416053867E+02  0.00000000000E+00 0.  1.
</event>
<event>
 8    1  0.1240174E-006  0.9118800E+02  0.7816164E-02  0.1184000E+00
        -11   -1    0    0    0    0  0.00000000000E+00  0.00000000000E+00  0.45593999997E+02  0.45594000000E+02  0.51100000000E-03 0.  1.
         11   -1    0    0    0    0 -0.00000000000E+00 -0.00000000000E+00 -0.45593999997E+02  0.45594000000E+02  0.51100000000E-03 0. -1.
         23    2    1    2    0    0 -0.35527136788E-14  0.35527136788E-14  0.00000000000E+00  0.91188000000E+02  0.91188000000E+02 0.  0.
    9900012    2    3    3    0    0  0.19303947145E+02 -0.22571285767E+02  0.21764059859E+02  0.54367087218E+02  0.40000006931E+02 0.  0.
         12    1    3    3    0    0 -0.19303947145E+02  0.22571285767E+02 -0.21764059859E+02  0.36820912782E+02  0.00000000000E+00 0. -1.
         11    1    4    4    0    0  0.66456527345E+01 -0.51662288318E+01  0.12700280656E+02  0.15236526822E+02  0.51100000000E-03 0. -1.
        -11    1    4    4    0    0  0.12320976445E+02  0.32439158199E+01  0.12893709310E+02  0.18126698277E+02  0.51100000000E-03 0.  1.
         12    1    4    4    0    0  0.33731796474E+00 -0.20648972755E+02 -0.38299301068E+01  0.21003862118E+02  0.00000000000E+00 0. -1.
</event>
<event>
 8    1  0.1240174E-006  0.9118800E+02  0.7816164E-02  0.1184000E+00
        -11   -1    0    0    0    0  0.00000000000E+00  0.00000000000E+00  0.45593999997E+02  0.45594000000E+02  0.51100000000E-03 0. -1.
         11   -1    0    0    0    0 -0.00000000000E+00 -0.00000000000E+00 -0.45593999997E+02  0.45594000000E+02  0.51100000000E-03 0.  1.
         23    2    1    2    0    0  0.71054273576E-14  0.17763568394E-14  0.00000000000E+00  0.91188000000E+02  0.91188000000E+02 0.  0.
    9900012    2    3    3    0    0  0.35665773151E+02  0.71673859147E+01  0.56886829741E+01  0.54367083264E+02  0.39999997917E+02 0.  0.
         12    1    3    3    0    0 -0.35665773151E+02 -0.71673859147E+01 -0.56886829741E+01  0.36820916736E+02  0.00000000000E+00 0. -1.
         11    1    4    4    0    0 -0.11166066334E+01  0.23501242558E-01  0.87431333595E+01  0.88141785712E+01  0.51100000000E-03 0. -1.
        -11    1    4    4    0    0  0.34939219668E+02  0.14506489706E+02 -0.19298110984E+01  0.37880225524E+02  0.51100000000E-03 0.  1.
        -12    1    4    4    0    0  0.18431601159E+01 -0.73626050340E+01 -0.11246392870E+01  0.76726791687E+01  0.00000000000E+00 0.  1.
</event>
<event>
 8    1  0.1240174E-006  0.9118800E+02  0.7816164E-02  0.1184000E+00
        -11   -1    0    0    0    0  0.00000000000E+00  0.00000000000E+00  0.45593999997E+02  0.45594000000E+02  0.51100000000E-03 0. -1.
         11   -1    0    0    0    0 -0.00000000000E+00 -0.00000000000E+00 -0.45593999997E+02  0.45594000000E+02  0.51100000000E-03 0.  1.
         23    2    1    2    0    0  0.00000000000E+00 -0.17763568394E-14  0.00000000000E+00  0.91188000000E+02  0.91188000000E+02 0.  0.
    9900012    2    3    3    0    0 -0.35527210844E+02 -0.92196296056E+01  0.29317230737E+01  0.54367091801E+02  0.40000017380E+02 0.  0.
        -12    1    3    3    0    0  0.35527210844E+02  0.92196296056E+01 -0.29317230737E+01  0.36820908199E+02  0.00000000000E+00 0.  1.
         11    1    4    4    0    0 -0.22334785654E+02 -0.21468208548E+02  0.11408044627E+02  0.33013180867E+02  0.51100000000E-03 0. -1.
        -11    1    4    4    0    0 -0.45288246529E+01  0.87726260608E+01 -0.64759905967E+01  0.11807102744E+02  0.51100000000E-03 0.  1.
         12    1    4    4    0    0 -0.86636005366E+01  0.34759528813E+01 -0.20003309570E+01  0.95468081906E+01  0.00000000000E+00 0. -1.
</event>
<event>
 8    1  0.1240174E-006  0.9118800E+02  0.7816164E-02  0.1184000E+00
        -11   -1    0    0    0    0  0.00000000000E+00  0.00000000000E+00  0.45593999997E+02  0.45594000000E+02  0.51100000000E-03 0.  1.
         11   -1    0    0    0    0 -0.00000000000E+00 -0.00000000000E+00 -0.45593999997E+02  0.45594000000E+02  0.51100000000E-03 0. -1.
         23    2    1    2    0    0  0.00000000000E+00 -0.26645352591E-14  0.00000000000E+00  0.91188000000E+02  0.91188000000E+02 0.  0.
    9900012    2    3    3    0    0 -0.88755413388E+01 -0.78922343158E+01  0.34852831974E+02  0.54367048177E+02  0.39999917928E+02 0.  0.
         12    1    3    3    0    0  0.88755413388E+01  0.78922343158E+01 -0.34852831974E+02  0.36820951823E+02  0.00000000000E+00 0. -1.
         11    1    4    4    0    0 -0.12099962189E+02  0.74001612447E+01 -0.17570899765E+01  0.14291915088E+02  0.51100000000E-03 0. -1.
        -11    1    4    4    0    0  0.35273581483E+01 -0.65568244546E+01  0.14492313141E+02  0.16292984468E+02  0.51100000000E-03 0.  1.
         12    1    4    4    0    0 -0.30293729780E+00 -0.87355711059E+01  0.22117608810E+02  0.23782148621E+02  0.00000000000E+00 0. -1.
</event>
<event>
 8    1  0.1240174E-006  0.9118800E+02  0.7816164E-02  0.1184000E+00
        -11   -1    0    0    0    0  0.00000000000E+00  0.00000000000E+00  0.45593999997E+02  0.45594000000E+02  0.51100000000E-03 0.  1.
         11   -1    0    0    0    0 -0.00000000000E+00 -0.00000000000E+00 -0.45593999997E+02  0.45594000000E+02  0.51100000000E-03 0. -1.
         23    2    1    2    0    0  0.00000000000E+00  0.00000000000E+00  0.00000000000E+00  0.91188000000E+02  0.91188000000E+02 0.  0.
    9900012    2    3    3    0    0 -0.15536493814E+02  0.23658566231E+02  0.23551409307E+02  0.54367091856E+02  0.40000017505E+02 0.  0.
         12    1    3    3    0    0  0.15536493814E+02 -0.23658566231E+02 -0.23551409307E+02  0.36820908144E+02  0.00000000000E+00 0. -1.
         11    1    4    4    0    0 -0.15201720386E+02  0.15738464045E+02  0.17342838760E+02  0.27920702171E+02  0.51100000000E-03 0. -1.
        -11    1    4    4    0    0 -0.11751798017E+02  0.34072733444E+01  0.70842536999E+01  0.14138632148E+02  0.51100000000E-03 0.  1.
         12    1    4    4    0    0  0.11417024589E+02  0.45128288418E+01 -0.87568315196E+00  0.12307757538E+02  0.00000000000E+00 0. -1.
</event>
<event>
 8    1  0.1240174E-006  0.9118800E+02  0.7816164E-02  0.1184000E+00
        -11   -1    0    0    0    0  0.00000000000E+00  0.00000000000E+00  0.45593999997E+02  0.45594000000E+02  0.51100000000E-03 0.  1.
         11   -1    0    0    0    0 -0.00000000000E+00 -0.00000000000E+00 -0.45593999997E+02  0.45594000000E+02  0.51100000000E-03 0. -1.
         23    2    1    2    0    0  0.35527136788E-14  0.00000000000E+00  0.00000000000E+00  0.91188000000E+02  0.91188000000E+02 0.  0.
    9900012    2    3    3    0    0 -0.31000977538E+02 -0.11402169721E+02 -0.16269882772E+02  0.54367093329E+02  0.40000020863E+02 0.  0.
        -12    1    3    3    0    0  0.31000977538E+02  0.11402169721E+02  0.16269882772E+02  0.36820906671E+02  0.00000000000E+00 0.  1.
         11    1    4    4    0    0 -0.32277170092E+02  0.25360139668E+01 -0.80676285381E+01  0.33366655608E+02  0.51100000000E-03 0. -1.
        -11    1    4    4    0    0  0.37047599535E+01 -0.42372428734E+01 -0.93717000538E+01  0.10931982237E+02  0.51100000000E-03 0.  1.
         12    1    4    4    0    0 -0.24285673995E+01 -0.97009408141E+01  0.11694458203E+01  0.10068455483E+02  0.00000000000E+00 0. -1.
</event>
<event>
 8    1  0.1240174E-006  0.9118800E+02  0.7816164E-02  0.1184000E+00
        -11   -1    0    0    0    0  0.00000000000E+00  0.00000000000E+00  0.45593999997E+02  0.45594000000E+02  0.51100000000E-03 0.  1.
         11   -1    0    0    0    0 -0.00000000000E+00 -0.00000000000E+00 -0.45593999997E+02  0.45594000000E+02  0.51100000000E-03 0. -1.
         23    2    1    2    0    0 -0.17763568394E-14  0.00000000000E+00  0.00000000000E+00  0.91188000000E+02  0.91188000000E+02 0.  0.
    9900012    2    3    3    0    0 -0.12111246537E+02  0.32432434661E+02 -0.12539342404E+02  0.54367079063E+02  0.39999988340E+02 0.  0.
        -12    1    3    3    0    0  0.12111246537E+02 -0.32432434661E+02  0.12539342404E+02  0.36820920937E+02  0.00000000000E+00 0.  1.
         11    1    4    4    0    0 -0.30149431701E+01  0.81758501757E+01 -0.93926841657E+01  0.12812373883E+02  0.51100000000E-03 0. -1.
        -11    1    4    4    0    0  0.11867811440E+02  0.48208438308E+01 -0.14824909777E+00  0.12810443461E+02  0.51100000000E-03 0.  1.
         12    1    4    4    0    0 -0.20964114807E+02  0.19435740654E+02 -0.29984091407E+01  0.28744261719E+02  0.00000000000E+00 0. -1.
</event>
<event>
 8    1  0.1240174E-006  0.9118800E+02  0.7816164E-02  0.1184000E+00
        -11   -1    0    0    0    0  0.00000000000E+00  0.00000000000E+00  0.45593999997E+02  0.45594000000E+02  0.51100000000E-03 0.  1.
         11   -1    0    0    0    0 -0.00000000000E+00 -0.00000000000E+00 -0.45593999997E+02  0.45594000000E+02  0.51100000000E-03 0. -1.
         23    2    1    2    0    0  0.17763568394E-14  0.00000000000E+00  0.00000000000E+00  0.91188000000E+02  0.91188000000E+02 0.  0.
    9900012    2    3    3    0    0 -0.15453052125E+02  0.18759407980E+02 -0.27659834548E+02  0.54367100296E+02  0.40000036745E+02 0.  0.
        -12    1    3    3    0    0  0.15453052125E+02 -0.18759407980E+02  0.27659834548E+02  0.36820899704E+02  0.00000000000E+00 0.  1.
         11    1    4    4    0    0  0.29434182220E+01 -0.16048312581E+01 -0.18206238934E+02  0.18512329151E+02  0.51100000000E-03 0. -1.
        -11    1    4    4    0    0 -0.11070366000E+02 -0.15138116678E+01 -0.76018945956E+00  0.11199219501E+02  0.51100000000E-03 0.  1.
         12    1    4    4    0    0 -0.73261043471E+01  0.21878050906E+02 -0.86934061544E+01  0.24655551645E+02  0.00000000000E+00 0. -1.
</event>
<event>
 8    1  0.1240174E-006  0.9118800E+02  0.7816164E-02  0.1184000E+00
        -11   -1    0    0    0    0  0.00000000000E+00  0.00000000000E+00  0.45593999997E+02  0.45594000000E+02  0.51100000000E-03 0. -1.
         11   -1    0    0    0    0 -0.00000000000E+00 -0.00000000000E+00 -0.45593999997E+02  0.45594000000E+02  0.51100000000E-03 0.  1.
         23    2    1    2    0    0  0.00000000000E+00  0.00000000000E+00  0.00000000000E+00  0.91188000000E+02  0.91188000000E+02 0.  0.
    9900012    2    3    3    0    0  0.19026271657E+02 -0.26697351323E+02 -0.16764022693E+02  0.54367081520E+02  0.39999993942E+02 0.  0.
        -12    1    3    3    0    0 -0.19026271657E+02  0.26697351323E+02  0.16764022693E+02  0.36820918480E+02  0.00000000000E+00 0.  1.
         11    1    4    4    0    0  0.10380613590E+02 -0.31524573575E+01  0.25733726711E+01  0.11149770091E+02  0.51100000000E-03 0. -1.
        -11    1    4    4    0    0 -0.23385574190E+01 -0.38858441078E+01 -0.20178644864E+02  0.20682029495E+02  0.51100000000E-03 0.  1.
        -12    1    4    4    0    0  0.10984215485E+02 -0.19659049858E+02  0.84124949982E+00  0.22535281934E+02  0.00000000000E+00 0.  1.
</event>
<event>
 8    1  0.1240174E-006  0.9118800E+02  0.7816164E-02  0.1184000E+00
        -11   -1    0    0    0    0  0.00000000000E+00  0.00000000000E+00  0.45593999997E+02  0.45594000000E+02  0.51100000000E-03 0. -1.
         11   -1    0    0    0    0 -0.00000000000E+00 -0.00000000000E+00 -0.45593999997E+02  0.45594000000E+02  0.51100000000E-03 0.  1.
         23    2    1    2    0    0  0.35527136788E-14 -0.35527136788E-14 -0.35527136788E-14  0.91188000000E+02  0.91188000000E+02 0.  0.
    9900012    2    3    3    0    0 -0.27686773018E+02  0.16272453531E+02  0.18011943280E+02  0.54367078708E+02  0.39999987530E+02 0.  0.
        -12    1    3    3    0    0  0.27686773018E+02 -0.16272453531E+02 -0.18011943280E+02  0.36820921292E+02  0.00000000000E+00 0.  1.
         11    1    4    4    0    0 -0.51277485836E+01 -0.53013655119E+01  0.61886637549E+01  0.96279718092E+01  0.51100000000E-03 0. -1.
        -11    1    4    4    0    0 -0.22299894412E+02  0.83965595115E+01 -0.39829918374E+01  0.24158885046E+02  0.51100000000E-03 0.  1.
         12    1    4    4    0    0 -0.25913002286E+00  0.13177259532E+02  0.15806271362E+02  0.20580221853E+02  0.00000000000E+00 0. -1.
</event>
<event>
 8    1  0.1240174E-006  0.9118800E+02  0.7816164E-02  0.1184000E+00
        -11   -1    0    0    0    0  0.00000000000E+00  0.00000000000E+00  0.45593999997E+02  0.45594000000E+02  0.51100000000E-03 0.  1.
         11   -1    0    0    0    0 -0.00000000000E+00 -0.00000000000E+00 -0.45593999997E+02  0.45594000000E+02  0.51100000000E-03 0. -1.
         23    2    1    2    0    0  0.00000000000E+00  0.17763568394E-14 -0.71054273576E-14  0.91188000000E+02  0.91188000000E+02 0.  0.
    9900012    2    3    3    0    0 -0.52410872523E+01 -0.15556894617E+02  0.32959032152E+02  0.54367030891E+02  0.39999878521E+02 0.  0.
         12    1    3    3    0    0  0.52410872523E+01  0.15556894617E+02 -0.32959032152E+02  0.36820969109E+02  0.00000000000E+00 0. -1.
         11    1    4    4    0    0 -0.44179562166E+01  0.43959201109E+01  0.11830507738E+02  0.13371737522E+02  0.51100000000E-03 0.  1.
        -11    1    4    4    0    0 -0.75964371415E+01 -0.35909871020E+01 -0.47392094077E+01  0.96468208070E+01  0.51100000000E-03 0. -1.
        -12    1    4    4    0    0  0.67733061058E+01 -0.16361827626E+02  0.25867733822E+02  0.31348472562E+02  0.00000000000E+00 0.  1.
</event>
<event>
 8    1  0.1240174E-006  0.9118800E+02  0.7816164E-02  0.1184000E+00
        -11   -1    0    0    0    0  0.00000000000E+00  0.00000000000E+00  0.45593999997E+02  0.45594000000E+02  0.51100000000E-03 0.  1.
         11   -1    0    0    0    0 -0.00000000000E+00 -0.00000000000E+00 -0.45593999997E+02  0.45594000000E+02  0.51100000000E-03 0. -1.
         23    2    1    2    0    0  0.00000000000E+00  0.35527136788E-14  0.00000000000E+00  0.91188000000E+02  0.91188000000E+02 0.  0.
    9900012    2    3    3    0    0 -0.15786686307E+02  0.21684454724E+02 -0.25225920208E+02  0.54367053630E+02  0.39999930360E+02 0.  0.
        -12    1    3    3    0    0  0.15786686307E+02 -0.21684454724E+02  0.25225920208E+02  0.36820946370E+02  0.00000000000E+00 0.  1.
         11    1    4    4    0    0  0.32488091901E+01  0.14297834926E+02 -0.71621482814E+01  0.16318064009E+02  0.51100000000E-03 0. -1.
        -11    1    4    4    0    0 -0.23948043645E+01 -0.17603510259E+01 -0.18811971450E+02  0.19045319472E+02  0.51100000000E-03 0.  1.
        -12    1    4    4    0    0 -0.16640691133E+02  0.91469708233E+01  0.74819952301E+00  0.19003670149E+02  0.00000000000E+00 0.  1.
</event>
<event>
 8    1  0.1240174E-006  0.9118800E+02  0.7816164E-02  0.1184000E+00
        -11   -1    0    0    0    0  0.00000000000E+00  0.00000000000E+00  0.45593999997E+02  0.45594000000E+02  0.51100000000E-03 0.  1.
         11   -1    0    0    0    0 -0.00000000000E+00 -0.00000000000E+00 -0.45593999997E+02  0.45594000000E+02  0.51100000000E-03 0. -1.
         23    2    1    2    0    0 -0.88817841970E-15  0.00000000000E+00  0.00000000000E+00  0.91188000000E+02  0.91188000000E+02 0.  0.
    9900012    2    3    3    0    0 -0.53166954775E+01  0.20259980991E+02 -0.30282762590E+02  0.54367084875E+02  0.40000001590E+02 0.  0.
        -12    1    3    3    0    0  0.53166954775E+01 -0.20259980991E+02  0.30282762590E+02  0.36820915125E+02  0.00000000000E+00 0.  1.
         11    1    4    4    0    0  0.55181105057E+01  0.59963698791E+01 -0.20762018271E+02  0.22303977184E+02  0.51100000000E-03 0. -1.
        -11    1    4    4    0    0  0.36631779693E+01 -0.37859282907E+01  0.26617030906E+01  0.59022698567E+01  0.51100000000E-03 0.  1.
         12    1    4    4    0    0 -0.14497983953E+02  0.18049539403E+02 -0.12182447410E+02  0.26160837835E+02  0.00000000000E+00 0. -1.
</event>
<event>
 8    1  0.1240174E-006  0.9118800E+02  0.7816164E-02  0.1184000E+00
        -11   -1    0    0    0    0  0.00000000000E+00  0.00000000000E+00  0.45593999997E+02  0.45594000000E+02  0.51100000000E-03 0. -1.
         11   -1    0    0    0    0 -0.00000000000E+00 -0.00000000000E+00 -0.45593999997E+02  0.45594000000E+02  0.51100000000E-03 0.  1.
         23    2    1    2    0    0  0.88817841970E-15  0.00000000000E+00  0.00000000000E+00  0.91188000000E+02  0.91188000000E+02 0.  0.
    9900012    2    3    3    0    0  0.42126467608E+01 -0.16635516593E+02  0.32577507752E+02  0.54367070946E+02  0.39999969836E+02 0.  0.
        -12    1    3    3    0    0 -0.42126467608E+01  0.16635516593E+02 -0.32577507752E+02  0.36820929054E+02  0.00000000000E+00 0.  1.
         11    1    4    4    0    0 -0.10149519611E+02 -0.36045511011E+01  0.97019090289E+01  0.14495950332E+02  0.51100000000E-03 0. -1.
        -11    1    4    4    0    0  0.79694256862E+01  0.74527079187E+01  0.10270854609E+02  0.14984827518E+02  0.51100000000E-03 0.  1.
        -12    1    4    4    0    0  0.63927406853E+01 -0.20483673411E+02  0.12604744114E+02  0.24886293096E+02  0.00000000000E+00 0.  1.
</event>
<event>
 8    1  0.1240174E-006  0.9118800E+02  0.7816164E-02  0.1184000E+00
        -11   -1    0    0    0    0  0.00000000000E+00  0.00000000000E+00  0.45593999997E+02  0.45594000000E+02  0.51100000000E-03 0. -1.
         11   -1    0    0    0    0 -0.00000000000E+00 -0.00000000000E+00 -0.45593999997E+02  0.45594000000E+02  0.51100000000E-03 0.  1.
         23    2    1    2    0    0  0.88817841970E-15  0.44408920985E-15 -0.71054273576E-14  0.91188000000E+02  0.91188000000E+02 0.  0.
    9900012    2    3    3    0    0  0.58628405893E+01  0.24202330826E+01 -0.36270475236E+02  0.54367111882E+02  0.40000063157E+02 0.  0.
         12    1    3    3    0    0 -0.58628405893E+01 -0.24202330826E+01  0.36270475236E+02  0.36820888118E+02  0.00000000000E+00 0. -1.
         11    1    4    4    0    0 -0.13207049737E+02  0.20817219272E+01 -0.29152959484E+02  0.32072648407E+02  0.51100000000E-03 0. -1.
        -11    1    4    4    0    0  0.37941439581E+01  0.13926698875E+01  0.19621456430E+01  0.44927801611E+01  0.51100000000E-03 0.  1.
         12    1    4    4    0    0  0.15275746368E+02 -0.10541587320E+01 -0.90796613953E+01  0.17801683313E+02  0.00000000000E+00 0. -1.
</event>
<event>
 8    1  0.1240174E-006  0.9118800E+02  0.7816164E-02  0.1184000E+00
        -11   -1    0    0    0    0  0.00000000000E+00  0.00000000000E+00  0.45593999997E+02  0.45594000000E+02  0.51100000000E-03 0.  1.
         11   -1    0    0    0    0 -0.00000000000E+00 -0.00000000000E+00 -0.45593999997E+02  0.45594000000E+02  0.51100000000E-03 0. -1.
         23    2    1    2    0    0 -0.35527136788E-14  0.00000000000E+00  0.17763568394E-14  0.91188000000E+02  0.91188000000E+02 0.  0.
    9900012    2    3    3    0    0  0.20837746668E+02 -0.27299809679E+02 -0.13277261079E+02  0.54367123361E+02  0.40000089325E+02 0.  0.
        -12    1    3    3    0    0 -0.20837746668E+02  0.27299809679E+02  0.13277261079E+02  0.36820876639E+02  0.00000000000E+00 0.  1.
         11    1    4    4    0    0  0.11945757669E+02 -0.16333697121E+02 -0.12144016713E+02  0.23600168010E+02  0.51100000000E-03 0. -1.
        -11    1    4    4    0    0  0.28828661984E+01 -0.19397894763E+02  0.25528841628E+01  0.19776411620E+02  0.51100000000E-03 0.  1.
        -12    1    4    4    0    0  0.60091228009E+01  0.84317822041E+01 -0.36861285287E+01  0.10990543731E+02  0.00000000000E+00 0.  1.
</event>
<event>
 8    1  0.1240174E-006  0.9118800E+02  0.7816164E-02  0.1184000E+00
        -11   -1    0    0    0    0  0.00000000000E+00  0.00000000000E+00  0.45593999997E+02  0.45594000000E+02  0.51100000000E-03 0. -1.
         11   -1    0    0    0    0 -0.00000000000E+00 -0.00000000000E+00 -0.45593999997E+02  0.45594000000E+02  0.51100000000E-03 0.  1.
         23    2    1    2    0    0  0.00000000000E+00  0.00000000000E+00  0.35527136788E-14  0.91188000000E+02  0.91188000000E+02 0.  0.
    9900012    2    3    3    0    0 -0.19514327596E+02  0.15129353442E+02 -0.27314324201E+02  0.54367100722E+02  0.40000037715E+02 0.  0.
         12    1    3    3    0    0  0.19514327596E+02 -0.15129353442E+02  0.27314324201E+02  0.36820899278E+02  0.00000000000E+00 0. -1.
         11    1    4    4    0    0 -0.54798373461E+01 -0.41490432471E+01 -0.40737890626E+01  0.79899270831E+01  0.51100000000E-03 0. -1.
        -11    1    4    4    0    0 -0.21619178355E+02  0.19928767348E+02 -0.99138219209E+01  0.31029478019E+02  0.51100000000E-03 0.  1.
        -12    1    4    4    0    0  0.75846881053E+01 -0.65037065909E+00 -0.13326713217E+02  0.15347695619E+02  0.00000000000E+00 0.  1.
</event>
<event>
 8    1  0.1240174E-006  0.9118800E+02  0.7816164E-02  0.1184000E+00
        -11   -1    0    0    0    0  0.00000000000E+00  0.00000000000E+00  0.45593999997E+02  0.45594000000E+02  0.51100000000E-03 0.  1.
         11   -1    0    0    0    0 -0.00000000000E+00 -0.00000000000E+00 -0.45593999997E+02  0.45594000000E+02  0.51100000000E-03 0. -1.
         23    2    1    2    0    0  0.17763568394E-14  0.44408920985E-15  0.00000000000E+00  0.91188000000E+02  0.91188000000E+02 0.  0.
    9900012    2    3    3    0    0 -0.14033460776E+02  0.23173367131E+01 -0.33962800769E+02  0.54367083297E+02  0.39999997992E+02 0.  0.
        -12    1    3    3    0    0  0.14033460776E+02 -0.23173367131E+01  0.33962800769E+02  0.36820916703E+02  0.00000000000E+00 0.  1.
         11    1    4    4    0    0 -0.73872715610E+01  0.36069747994E+01 -0.19317206909E+01  0.84447376163E+01  0.51100000000E-03 0. -1.
        -11    1    4    4    0    0 -0.16368869281E+02  0.85805657388E+01 -0.22444330519E+02  0.29074283528E+02  0.51100000000E-03 0.  1.
         12    1    4    4    0    0  0.97226800660E+01 -0.98702038251E+01 -0.95867495584E+01  0.16848062153E+02  0.00000000000E+00 0. -1.
</event>
<event>
 8    1  0.1240174E-006  0.9118800E+02  0.7816164E-02  0.1184000E+00
        -11   -1    0    0    0    0  0.00000000000E+00  0.00000000000E+00  0.45593999997E+02  0.45594000000E+02  0.51100000000E-03 0. -1.
         11   -1    0    0    0    0 -0.00000000000E+00 -0.00000000000E+00 -0.45593999997E+02  0.45594000000E+02  0.51100000000E-03 0.  1.
         23    2    1    2    0    0  0.00000000000E+00  0.00000000000E+00  0.00000000000E+00  0.91188000000E+02  0.91188000000E+02 0.  0.
    9900012    2    3    3    0    0  0.21850889868E+02  0.23455683229E+02 -0.18114835976E+02  0.54367112637E+02  0.40000064879E+02 0.  0.
         12    1    3    3    0    0 -0.21850889868E+02 -0.23455683229E+02  0.18114835976E+02  0.36820887363E+02  0.00000000000E+00 0. -1.
         11    1    4    4    0    0  0.11070857391E+02  0.27979058367E+02  0.29594931799E+01  0.30234916745E+02  0.51100000000E-03 0. -1.
        -11    1    4    4    0    0  0.32904174227E+01 -0.13234046063E+01 -0.52627574626E+01  0.63462479418E+01  0.51100000000E-03 0.  1.
         12    1    4    4    0    0  0.74896150546E+01 -0.31999705315E+01 -0.15811571693E+02  0.17785947950E+02  0.00000000000E+00 0. -1.
</event>
<event>
 8    1  0.1240174E-006  0.9118800E+02  0.7816164E-02  0.1184000E+00
        -11   -1    0    0    0    0  0.00000000000E+00  0.00000000000E+00  0.45593999997E+02  0.45594000000E+02  0.51100000000E-03 0.  1.
         11   -1    0    0    0    0 -0.00000000000E+00 -0.00000000000E+00 -0.45593999997E+02  0.45594000000E+02  0.51100000000E-03 0. -1.
         23    2    1    2    0    0 -0.88817841970E-15 -0.71054273576E-14 -0.17763568394E-14  0.91188000000E+02  0.91188000000E+02 0.  0.
    9900012    2    3    3    0    0  0.64137318713E+01 -0.35956148755E+02  0.46687218663E+01  0.54367115251E+02  0.40000070838E+02 0.  0.
         12    1    3    3    0    0 -0.64137318713E+01  0.35956148755E+02 -0.46687218663E+01  0.36820884749E+02  0.00000000000E+00 0. -1.
         11    1    4    4    0    0  0.13717907774E+02 -0.16815641616E+02  0.18317542693E+02  0.28398576852E+02  0.51100000000E-03 0. -1.
        -11    1    4    4    0    0  0.14852242482E+01 -0.12240935026E+01 -0.23433745439E+01  0.30324413407E+01  0.51100000000E-03 0.  1.
         12    1    4    4    0    0 -0.87894001513E+01 -0.17916413637E+02 -0.11305446283E+02  0.22936097059E+02  0.00000000000E+00 0. -1.
</event>
<event>
 8    1  0.1240174E-006  0.9118800E+02  0.7816164E-02  0.1184000E+00
        -11   -1    0    0    0    0  0.00000000000E+00  0.00000000000E+00  0.45593999997E+02  0.45594000000E+02  0.51100000000E-03 0.  1.
         11   -1    0    0    0    0 -0.00000000000E+00 -0.00000000000E+00 -0.45593999997E+02  0.45594000000E+02  0.51100000000E-03 0. -1.
         23    2    1    2    0    0  0.35527136788E-14  0.17763568394E-14  0.00000000000E+00  0.91188000000E+02  0.91188000000E+02 0.  0.
    9900012    2    3    3    0    0 -0.30397045774E+02  0.98892000744E+01  0.18275730043E+02  0.54367095903E+02  0.40000026730E+02 0.  0.
         12    1    3    3    0    0  0.30397045774E+02 -0.98892000744E+01 -0.18275730043E+02  0.36820904097E+02  0.00000000000E+00 0. -1.
         11    1    4    4    0    0 -0.28849905608E+01 -0.42234099556E+01 -0.12583721039E+01  0.52672443272E+01  0.51100000000E-03 0. -1.
        -11    1    4    4    0    0  0.21366792636E+01  0.14972932277E+02  0.91310579745E+01  0.17667210285E+02  0.51100000000E-03 0.  1.
        -12    1    4    4    0    0 -0.29648734477E+02 -0.86032224742E+00  0.10403044173E+02  0.31432641291E+02  0.00000000000E+00 0.  1.
</event>
<event>
 8    1  0.1240174E-006  0.9118800E+02  0.7816164E-02  0.1184000E+00
        -11   -1    0    0    0    0  0.00000000000E+00  0.00000000000E+00  0.45593999997E+02  0.45594000000E+02  0.51100000000E-03 0.  1.
         11   -1    0    0    0    0 -0.00000000000E+00 -0.00000000000E+00 -0.45593999997E+02  0.45594000000E+02  0.51100000000E-03 0. -1.
         23    2    1    2    0    0  0.44408920985E-15  0.00000000000E+00  0.00000000000E+00  0.91188000000E+02  0.91188000000E+02 0.  0.
    9900012    2    3    3    0    0  0.17940592811E+01 -0.28766572719E+02 -0.22913906563E+02  0.54367062089E+02  0.39999949644E+02 0.  0.
        -12    1    3    3    0    0 -0.17940592811E+01  0.28766572719E+02  0.22913906563E+02  0.36820937911E+02  0.00000000000E+00 0.  1.
         11    1    4    4    0    0 -0.91045419572E+01 -0.21145729133E+02 -0.93678521708E+01  0.24855405838E+02  0.51100000000E-03 0. -1.
        -11    1    4    4    0    0 -0.17289350096E+01 -0.77477524034E+01 -0.14827340287E+02  0.16818647502E+02  0.51100000000E-03 0.  1.
        -12    1    4    4    0    0  0.12627536248E+02  0.12690881761E+00  0.12812858946E+01  0.12693008748E+02  0.00000000000E+00 0.  1.
</event>
<event>
 8    1  0.1240174E-006  0.9118800E+02  0.7816164E-02  0.1184000E+00
        -11   -1    0    0    0    0  0.00000000000E+00  0.00000000000E+00  0.45593999997E+02  0.45594000000E+02  0.51100000000E-03 0.  1.
         11   -1    0    0    0    0 -0.00000000000E+00 -0.00000000000E+00 -0.45593999997E+02  0.45594000000E+02  0.51100000000E-03 0. -1.
         23    2    1    2    0    0  0.00000000000E+00  0.00000000000E+00 -0.44408920985E-15  0.91188000000E+02  0.91188000000E+02 0.  0.
    9900012    2    3    3    0    0 -0.35057224397E+02  0.10591078424E+02  0.38208506420E+01  0.54367097998E+02  0.40000031505E+02 0.  0.
         12    1    3    3    0    0  0.35057224397E+02 -0.10591078424E+02 -0.38208506420E+01  0.36820902002E+02  0.00000000000E+00 0. -1.
         11    1    4    4    0    0  0.21764542064E+01 -0.55971555644E+01 -0.19333713996E+01  0.63089641428E+01  0.51100000000E-03 0. -1.
        -11    1    4    4    0    0 -0.23256577550E+02  0.67279511875E+01  0.15327670250E+02  0.28654340021E+02  0.51100000000E-03 0.  1.
         12    1    4    4    0    0 -0.13977101054E+02  0.94602828011E+01 -0.95734482080E+01  0.19403793834E+02  0.00000000000E+00 0. -1.
</event>
<event>
 8    1  0.1240174E-006  0.9118800E+02  0.7816164E-02  0.1184000E+00
        -11   -1    0    0    0    0  0.00000000000E+00  0.00000000000E+00  0.45593999997E+02  0.45594000000E+02  0.51100000000E-03 0. -1.
         11   -1    0    0    0    0 -0.00000000000E+00 -0.00000000000E+00 -0.45593999997E+02  0.45594000000E+02  0.51100000000E-03 0.  1.
         23    2    1    2    0    0  0.00000000000E+00  0.17763568394E-14  0.00000000000E+00  0.91188000000E+02  0.91188000000E+02 0.  0.
    9900012    2    3    3    0    0  0.25103756008E+02 -0.14991563083E+02  0.22379348272E+02  0.54367071733E+02  0.39999971629E+02 0.  0.
        -12    1    3    3    0    0 -0.25103756008E+02  0.14991563083E+02 -0.22379348272E+02  0.36820928267E+02  0.00000000000E+00 0.  1.
         11    1    4    4    0    0  0.19409035561E+02  0.85122068378E+00  0.11557994601E+02  0.22605806279E+02  0.51100000000E-03 0. -1.
        -11    1    4    4    0    0 -0.71560469689E+01 -0.14390520009E+02  0.97190642023E+01  0.18781807250E+02  0.51100000000E-03 0.  1.
        -12    1    4    4    0    0  0.12850767415E+02 -0.14522637582E+01  0.11022894688E+01  0.12979458204E+02  0.00000000000E+00 0.  1.
</event>
<event>
 8    1  0.1240174E-006  0.9118800E+02  0.7816164E-02  0.1184000E+00
        -11   -1    0    0    0    0  0.00000000000E+00  0.00000000000E+00  0.45593999997E+02  0.45594000000E+02  0.51100000000E-03 0. -1.
         11   -1    0    0    0    0 -0.00000000000E+00 -0.00000000000E+00 -0.45593999997E+02  0.45594000000E+02  0.51100000000E-03 0.  1.
         23    2    1    2    0    0  0.17763568394E-14  0.00000000000E+00 -0.71054273576E-14  0.91188000000E+02  0.91188000000E+02 0.  0.
    9900012    2    3    3    0    0 -0.12649673362E+02 -0.11152329061E+02  0.32732094009E+02  0.54367100258E+02  0.40000036657E+02 0.  0.
        -12    1    3    3    0    0  0.12649673362E+02  0.11152329061E+02 -0.32732094009E+02  0.36820899742E+02  0.00000000000E+00 0.  1.
         11    1    4    4    0    0 -0.50001725561E+01 -0.63859761015E+01  0.33682693646E+02  0.34645436465E+02  0.51100000000E-03 0. -1.
        -11    1    4    4    0    0  0.83557286176E+00 -0.60499644690E+01  0.60874686456E+01  0.86230810536E+01  0.51100000000E-03 0.  1.
        -12    1    4    4    0    0 -0.84850736678E+01  0.12836115096E+01 -0.70380682828E+01  0.11098582739E+02  0.00000000000E+00 0.  1.
</event>
<event>
 8    1  0.1240174E-006  0.9118800E+02  0.7816164E-02  0.1184000E+00
        -11   -1    0    0    0    0  0.00000000000E+00  0.00000000000E+00  0.45593999997E+02  0.45594000000E+02  0.51100000000E-03 0.  1.
         11   -1    0    0    0    0 -0.00000000000E+00 -0.00000000000E+00 -0.45593999997E+02  0.45594000000E+02  0.51100000000E-03 0. -1.
         23    2    1    2    0    0  0.00000000000E+00 -0.35527136788E-14  0.35527136788E-14  0.91188000000E+02  0.91188000000E+02 0.  0.
    9900012    2    3    3    0    0  0.11449672061E+02  0.31532927530E+02 -0.15177521281E+02  0.54367113792E+02  0.40000067511E+02 0.  0.
        -12    1    3    3    0    0 -0.11449672061E+02 -0.31532927530E+02  0.15177521281E+02  0.36820886208E+02  0.00000000000E+00 0.  1.
         11    1    4    4    0    0  0.54338954111E+01  0.15124623594E+02 -0.26998998240E+01  0.16296346754E+02  0.51100000000E-03 0. -1.
        -11    1    4    4    0    0  0.17673671670E+02  0.12771907869E+02 -0.18532345613E+01  0.21884121630E+02  0.51100000000E-03 0.  1.
         12    1    4    4    0    0 -0.11657895020E+02  0.36363960672E+01 -0.10624386896E+02  0.16186645408E+02  0.00000000000E+00 0. -1.
</event>
<event>
 8    1  0.1240174E-006  0.9118800E+02  0.7816164E-02  0.1184000E+00
        -11   -1    0    0    0    0  0.00000000000E+00  0.00000000000E+00  0.45593999997E+02  0.45594000000E+02  0.51100000000E-03 0. -1.
         11   -1    0    0    0    0 -0.00000000000E+00 -0.00000000000E+00 -0.45593999997E+02  0.45594000000E+02  0.51100000000E-03 0.  1.
         23    2    1    2    0    0  0.00000000000E+00 -0.35527136788E-14  0.00000000000E+00  0.91188000000E+02  0.91188000000E+02 0.  0.
    9900012    2    3    3    0    0 -0.12064807511E+02 -0.21514926858E+02  0.27337330592E+02  0.54367064353E+02  0.39999954806E+02 0.  0.
        -12    1    3    3    0    0  0.12064807511E+02  0.21514926858E+02 -0.27337330592E+02  0.36820935647E+02  0.00000000000E+00 0.  1.
         11    1    4    4    0    0 -0.12561210199E+02 -0.13980423629E+01  0.27489610431E+02  0.30255862342E+02  0.51100000000E-03 0. -1.
        -11    1    4    4    0    0  0.11392045932E+01 -0.65550923722E+01 -0.63402547635E+01  0.91905306615E+01  0.51100000000E-03 0.  1.
         12    1    4    4    0    0 -0.64280190576E+00 -0.13561792123E+02  0.61879749245E+01  0.14920671350E+02  0.00000000000E+00 0. -1.
</event>
<event>
 8    1  0.1240174E-006  0.9118800E+02  0.7816164E-02  0.1184000E+00
        -11   -1    0    0    0    0  0.00000000000E+00  0.00000000000E+00  0.45593999997E+02  0.45594000000E+02  0.51100000000E-03 0.  1.
         11   -1    0    0    0    0 -0.00000000000E+00 -0.00000000000E+00 -0.45593999997E+02  0.45594000000E+02  0.51100000000E-03 0. -1.
         23    2    1    2    0    0 -0.35527136788E-14  0.00000000000E+00 -0.35527136788E-14  0.91188000000E+02  0.91188000000E+02 0.  0.
    9900012    2    3    3    0    0 -0.19609105442E+02 -0.24846173873E+02 -0.18813038916E+02  0.54367084672E+02  0.40000001126E+02 0.  0.
        -12    1    3    3    0    0  0.19609105442E+02  0.24846173873E+02  0.18813038916E+02  0.36820915328E+02  0.00000000000E+00 0.  1.
         11    1    4    4    0    0 -0.22097405277E+02 -0.27615664974E+02 -0.17926091892E+02  0.39651797471E+02  0.51100000000E-03 0. -1.
        -11    1    4    4    0    0  0.38275532062E+01 -0.56425269857E+00  0.58887750435E+01  0.70460071266E+01  0.51100000000E-03 0.  1.
        -12    1    4    4    0    0 -0.13392533714E+01  0.33337437999E+01 -0.67757220678E+01  0.76692800741E+01  0.00000000000E+00 0.  1.
</event>
<event>
 8    1  0.1240174E-006  0.9118800E+02  0.7816164E-02  0.1184000E+00
        -11   -1    0    0    0    0  0.00000000000E+00  0.00000000000E+00  0.45593999997E+02  0.45594000000E+02  0.51100000000E-03 0.  1.
         11   -1    0    0    0    0 -0.00000000000E+00 -0.00000000000E+00 -0.45593999997E+02  0.45594000000E+02  0.51100000000E-03 0. -1.
         23    2    1    2    0    0  0.00000000000E+00 -0.17763568394E-14  0.44408920985E-15  0.91188000000E+02  0.91188000000E+02 0.  0.
    9900012    2    3    3    0    0  0.34788766339E+02  0.11858635715E+02  0.22126061302E+01  0.54367066683E+02  0.39999960118E+02 0.  0.
         12    1    3    3    0    0 -0.34788766339E+02 -0.11858635715E+02 -0.22126061302E+01  0.36820933317E+02  0.00000000000E+00 0. -1.
         11    1    4    4    0    0  0.15090365554E+01 -0.15294218446E+01 -0.38853157397E+01  0.44398199471E+01  0.51100000000E-03 0. -1.
        -11    1    4    4    0    0  0.14757665550E+02  0.88251288084E+01 -0.14032508590E+02  0.22194208447E+02  0.51100000000E-03 0.  1.
        -12    1    4    4    0    0  0.18522064233E+02  0.45629287509E+01  0.20130430460E+02  0.27733038289E+02  0.00000000000E+00 0.  1.
</event>
<event>
 8    1  0.1240174E-006  0.9118800E+02  0.7816164E-02  0.1184000E+00
        -11   -1    0    0    0    0  0.00000000000E+00  0.00000000000E+00  0.45593999997E+02  0.45594000000E+02  0.51100000000E-03 0.  1.
         11   -1    0    0    0    0 -0.00000000000E+00 -0.00000000000E+00 -0.45593999997E+02  0.45594000000E+02  0.51100000000E-03 0. -1.
         23    2    1    2    0    0  0.88817841970E-15  0.00000000000E+00  0.00000000000E+00  0.91188000000E+02  0.91188000000E+02 0.  0.
    9900012    2    3    3    0    0  0.69626136055E+01  0.18524578407E+02 -0.31050624828E+02  0.54367091597E+02  0.40000016915E+02 0.  0.
        -12    1    3    3    0    0 -0.69626136055E+01 -0.18524578407E+02  0.31050624828E+02  0.36820908403E+02  0.00000000000E+00 0.  1.
         11    1    4    4    0    0 -0.93513273469E+01  0.18737893687E+02 -0.25153808580E+02  0.32730262286E+02  0.51100000000E-03 0. -1.
        -11    1    4    4    0    0  0.12248081532E+02  0.54434365074E+01 -0.59638046658E+01  0.14670155711E+02  0.51100000000E-03 0.  1.
        -12    1    4    4    0    0  0.40658594203E+01 -0.56567517874E+01  0.66988417355E-01  0.69666736007E+01  0.00000000000E+00 0.  1.
</event>
<event>
 8    1  0.1240174E-006  0.9118800E+02  0.7816164E-02  0.1184000E+00
        -11   -1    0    0    0    0  0.00000000000E+00  0.00000000000E+00  0.45593999997E+02  0.45594000000E+02  0.51100000000E-03 0. -1.
         11   -1    0    0    0    0 -0.00000000000E+00 -0.00000000000E+00 -0.45593999997E+02  0.45594000000E+02  0.51100000000E-03 0.  1.
         23    2    1    2    0    0 -0.88817841970E-15  0.00000000000E+00 -0.71054273576E-14  0.91188000000E+02  0.91188000000E+02 0.  0.
    9900012    2    3    3    0    0  0.51648170559E+01 -0.57627042163E+01  0.35998557615E+02  0.54367078698E+02  0.39999987509E+02 0.  0.
        -12    1    3    3    0    0 -0.51648170559E+01  0.57627042163E+01 -0.35998557615E+02  0.36820921302E+02  0.00000000000E+00 0.  1.
         11    1    4    4    0    0 -0.51662923963E+01 -0.34491956668E+01  0.17342346363E+02  0.18421305750E+02  0.51100000000E-03 0.  1.
        -11    1    4    4    0    0 -0.10476365197E+01  0.58377322691E+01  0.20939869979E+02  0.21763612184E+02  0.51100000000E-03 0. -1.
        -12    1    4    4    0    0  0.11378745972E+02 -0.81512408185E+01 -0.22836587264E+01  0.14182160765E+02  0.00000000000E+00 0.  1.
</event>
<event>
 8    1  0.1240174E-006  0.9118800E+02  0.7816164E-02  0.1184000E+00
        -11   -1    0    0    0    0  0.00000000000E+00  0.00000000000E+00  0.45593999997E+02  0.45594000000E+02  0.51100000000E-03 0.  1.
         11   -1    0    0    0    0 -0.00000000000E+00 -0.00000000000E+00 -0.45593999997E+02  0.45594000000E+02  0.51100000000E-03 0. -1.
         23    2    1    2    0    0 -0.44408920985E-15  0.00000000000E+00  0.17763568394E-14  0.91188000000E+02  0.91188000000E+02 0.  0.
    9900012    2    3    3    0    0  0.77022243492E+00  0.34162868157E+02 -0.13714405306E+02  0.54367085886E+02  0.40000003894E+02 0.  0.
        -12    1    3    3    0    0 -0.77022243492E+00 -0.34162868157E+02  0.13714405306E+02  0.36820914114E+02  0.00000000000E+00 0.  1.
         11    1    4    4    0    0  0.66203439536E+01  0.70632905052E+01 -0.35396908540E+01  0.10307688316E+02  0.51100000000E-03 0. -1.
        -11    1    4    4    0    0  0.10109910837E+02 -0.13976868506E+01 -0.23594574123E+01  0.10475250126E+02  0.51100000000E-03 0.  1.
         12    1    4    4    0    0 -0.15960032356E+02  0.28497264502E+02 -0.78152570400E+01  0.33584147443E+02  0.00000000000E+00 0. -1.
</event>
<event>
 8    1  0.1240174E-006  0.9118800E+02  0.7816164E-02  0.1184000E+00
        -11   -1    0    0    0    0  0.00000000000E+00  0.00000000000E+00  0.45593999997E+02  0.45594000000E+02  0.51100000000E-03 0. -1.
         11   -1    0    0    0    0 -0.00000000000E+00 -0.00000000000E+00 -0.45593999997E+02  0.45594000000E+02  0.51100000000E-03 0.  1.
         23    2    1    2    0    0  0.00000000000E+00  0.88817841970E-15  0.00000000000E+00  0.91188000000E+02  0.91188000000E+02 0.  0.
    9900012    2    3    3    0    0  0.45822626405E+01  0.75902431452E+01 -0.35737589578E+02  0.54367024582E+02  0.39999864139E+02 0.  0.
         12    1    3    3    0    0 -0.45822626405E+01 -0.75902431452E+01  0.35737589578E+02  0.36820975418E+02  0.00000000000E+00 0. -1.
         11    1    4    4    0    0  0.13480138161E+02 -0.40030487368E+01 -0.14529095467E+02  0.20219622632E+02  0.51100000000E-03 0. -1.
        -11    1    4    4    0    0  0.33085407792E+01  0.76299101583E+01 -0.19501391421E+02  0.21200618829E+02  0.51100000000E-03 0.  1.
        -12    1    4    4    0    0 -0.12206416300E+02  0.39633817237E+01 -0.17071026902E+01  0.12946783121E+02  0.00000000000E+00 0.  1.
</event>
<event>
 8    1  0.1240174E-006  0.9118800E+02  0.7816164E-02  0.1184000E+00
        -11   -1    0    0    0    0  0.00000000000E+00  0.00000000000E+00  0.45593999997E+02  0.45594000000E+02  0.51100000000E-03 0. -1.
         11   -1    0    0    0    0 -0.00000000000E+00 -0.00000000000E+00 -0.45593999997E+02  0.45594000000E+02  0.51100000000E-03 0.  1.
         23    2    1    2    0    0  0.35527136788E-14 -0.17763568394E-14  0.00000000000E+00  0.91188000000E+02  0.91188000000E+02 0.  0.
    9900012    2    3    3    0    0  0.10352099165E+02  0.56625917863E+01  0.34879074080E+02  0.54367072370E+02  0.39999973081E+02 0.  0.
        -12    1    3    3    0    0 -0.10352099165E+02 -0.56625917863E+01 -0.34879074080E+02  0.36820927630E+02  0.00000000000E+00 0.  1.
         11    1    4    4    0    0  0.24768459550E+02  0.74776542325E+01  0.25471824893E+02  0.36307103506E+02  0.51100000000E-03 0.  1.
        -11    1    4    4    0    0 -0.45635916944E+01 -0.96830608319E+00  0.60002132355E+01  0.76004305770E+01  0.51100000000E-03 0. -1.
        -12    1    4    4    0    0 -0.98527686904E+01 -0.84675636302E+00  0.34070359513E+01  0.10459538287E+02  0.00000000000E+00 0.  1.
</event>
<event>
 8    1  0.1240174E-006  0.9118800E+02  0.7816164E-02  0.1184000E+00
        -11   -1    0    0    0    0  0.00000000000E+00  0.00000000000E+00  0.45593999997E+02  0.45594000000E+02  0.51100000000E-03 0.  1.
         11   -1    0    0    0    0 -0.00000000000E+00 -0.00000000000E+00 -0.45593999997E+02  0.45594000000E+02  0.51100000000E-03 0. -1.
         23    2    1    2    0    0  0.00000000000E+00  0.17763568394E-14  0.00000000000E+00  0.91188000000E+02  0.91188000000E+02 0.  0.
    9900012    2    3    3    0    0  0.16661661071E+02  0.11491566392E+02 -0.30758978005E+02  0.54367057919E+02  0.39999940139E+02 0.  0.
        -12    1    3    3    0    0 -0.16661661071E+02 -0.11491566392E+02  0.30758978005E+02  0.36820942081E+02  0.00000000000E+00 0.  1.
         11    1    4    4    0    0  0.79139058790E+01 -0.23687682340E+01 -0.30493393294E+01  0.88056481769E+01  0.51100000000E-03 0. -1.
        -11    1    4    4    0    0  0.12299441640E+02  0.17760897465E+02 -0.32103624276E+02  0.38695845195E+02  0.51100000000E-03 0.  1.
        -12    1    4    4    0    0 -0.35516864477E+01 -0.39005628398E+01  0.43939856008E+01  0.68655645470E+01  0.00000000000E+00 0.  1.
</event>
<event>
 8    1  0.1240174E-006  0.9118800E+02  0.7816164E-02  0.1184000E+00
        -11   -1    0    0    0    0  0.00000000000E+00  0.00000000000E+00  0.45593999997E+02  0.45594000000E+02  0.51100000000E-03 0. -1.
         11   -1    0    0    0    0 -0.00000000000E+00 -0.00000000000E+00 -0.45593999997E+02  0.45594000000E+02  0.51100000000E-03 0.  1.
         23    2    1    2    0    0  0.17763568394E-14 -0.35527136788E-14  0.35527136788E-14  0.91188000000E+02  0.91188000000E+02 0.  0.
    9900012    2    3    3    0    0 -0.78704952013E+01  0.18623398125E+02 -0.30773450802E+02  0.54367069448E+02  0.39999966420E+02 0.  0.
         12    1    3    3    0    0  0.78704952013E+01 -0.18623398125E+02  0.30773450802E+02  0.36820930552E+02  0.00000000000E+00 0. -1.
         11    1    4    4    0    0 -0.45360387786E+00 -0.10920927599E+02 -0.49986129264E+01  0.12019090962E+02  0.51100000000E-03 0. -1.
        -11    1    4    4    0    0 -0.62472735672E+01  0.33534642826E+01 -0.79108817131E+01  0.10623379851E+02  0.51100000000E-03 0.  1.
        -12    1    4    4    0    0 -0.11696177562E+01  0.26190861442E+02 -0.17863956163E+02  0.31724598635E+02  0.00000000000E+00 0.  1.
</event>
<event>
 8    1  0.1240174E-006  0.9118800E+02  0.7816164E-02  0.1184000E+00
        -11   -1    0    0    0    0  0.00000000000E+00  0.00000000000E+00  0.45593999997E+02  0.45594000000E+02  0.51100000000E-03 0.  1.
         11   -1    0    0    0    0 -0.00000000000E+00 -0.00000000000E+00 -0.45593999997E+02  0.45594000000E+02  0.51100000000E-03 0. -1.
         23    2    1    2    0    0 -0.35527136788E-14  0.13600232052E-14  0.35527136788E-14  0.91188000000E+02  0.91188000000E+02 0.  0.
    9900012    2    3    3    0    0 -0.18716661654E+02  0.16394280048E+00 -0.31708664340E+02  0.54367086174E+02  0.40000004552E+02 0.  0.
        -12    1    3    3    0    0  0.18716661654E+02 -0.16394280048E+00  0.31708664340E+02  0.36820913826E+02  0.00000000000E+00 0.  1.
         11    1    4    4    0    0 -0.85823028604E+00  0.15174277520E+02 -0.12957185746E+02  0.19972078514E+02  0.51100000000E-03 0. -1.
        -11    1    4    4    0    0 -0.10034946035E+02 -0.26015542568E+01  0.27482822748E+00  0.10370330626E+02  0.51100000000E-03 0.  1.
        -12    1    4    4    0    0 -0.78234853334E+01 -0.12408780462E+02 -0.19026306822E+02  0.24024677034E+02  0.00000000000E+00 0.  1.
</event>
<event>
 8    1  0.1240174E-006  0.9118800E+02  0.7816164E-02  0.1184000E+00
        -11   -1    0    0    0    0  0.00000000000E+00  0.00000000000E+00  0.45593999997E+02  0.45594000000E+02  0.51100000000E-03 0. -1.
         11   -1    0    0    0    0 -0.00000000000E+00 -0.00000000000E+00 -0.45593999997E+02  0.45594000000E+02  0.51100000000E-03 0.  1.
         23    2    1    2    0    0  0.00000000000E+00  0.35527136788E-14  0.00000000000E+00  0.91188000000E+02  0.91188000000E+02 0.  0.
    9900012    2    3    3    0    0  0.27857051772E+02  0.23500815522E+02  0.52417749900E+01  0.54367083815E+02  0.39999999173E+02 0.  0.
        -12    1    3    3    0    0 -0.27857051772E+02 -0.23500815522E+02 -0.52417749900E+01  0.36820916185E+02  0.00000000000E+00 0.  1.
         11    1    4    4    0    0  0.38013122380E+01  0.14663883599E+02 -0.39209894824E+01  0.15647799069E+02  0.51100000000E-03 0. -1.
        -11    1    4    4    0    0  0.29699659193E+02  0.10703217938E+02  0.66320535190E+01  0.32258530105E+02  0.51100000000E-03 0.  1.
        -12    1    4    4    0    0 -0.56439196587E+01 -0.18662860146E+01  0.25307109534E+01  0.64607546410E+01  0.00000000000E+00 0.  1.
</event>
<event>
 8    1  0.1240174E-006  0.9118800E+02  0.7816164E-02  0.1184000E+00
        -11   -1    0    0    0    0  0.00000000000E+00  0.00000000000E+00  0.45593999997E+02  0.45594000000E+02  0.51100000000E-03 0. -1.
         11   -1    0    0    0    0 -0.00000000000E+00 -0.00000000000E+00 -0.45593999997E+02  0.45594000000E+02  0.51100000000E-03 0.  1.
         23    2    1    2    0    0  0.00000000000E+00 -0.17763568394E-14 -0.71054273576E-14  0.91188000000E+02  0.91188000000E+02 0.  0.
    9900012    2    3    3    0    0 -0.39207741030E+01  0.11351512763E+02 -0.34807323721E+02  0.54367094305E+02  0.40000023088E+02 0.  0.
         12    1    3    3    0    0  0.39207741030E+01 -0.11351512763E+02  0.34807323721E+02  0.36820905695E+02  0.00000000000E+00 0. -1.
         11    1    4    4    0    0 -0.13877677046E+01  0.52844097089E+01  0.12235383875E+01  0.55989223625E+01  0.51100000000E-03 0. -1.
        -11    1    4    4    0    0 -0.67774572982E+01  0.79737037614E+01 -0.40790793797E+02  0.42111788587E+02  0.51100000000E-03 0.  1.
         12    1    4    4    0    0  0.42444508999E+01 -0.19066007070E+01  0.47599316893E+01  0.66563833561E+01  0.00000000000E+00 0. -1.
</event>
<event>
 8    1  0.1240174E-006  0.9118800E+02  0.7816164E-02  0.1184000E+00
        -11   -1    0    0    0    0  0.00000000000E+00  0.00000000000E+00  0.45593999997E+02  0.45594000000E+02  0.51100000000E-03 0.  1.
         11   -1    0    0    0    0 -0.00000000000E+00 -0.00000000000E+00 -0.45593999997E+02  0.45594000000E+02  0.51100000000E-03 0. -1.
         23    2    1    2    0    0  0.00000000000E+00  0.17763568394E-14  0.00000000000E+00  0.91188000000E+02  0.91188000000E+02 0.  0.
    9900012    2    3    3    0    0  0.13888387279E+02  0.14551569404E+02  0.30840630981E+02  0.54367082132E+02  0.39999995337E+02 0.  0.
         12    1    3    3    0    0 -0.13888387279E+02 -0.14551569404E+02 -0.30840630981E+02  0.36820917868E+02  0.00000000000E+00 0. -1.
         11    1    4    4    0    0  0.74475000895E+01 -0.71579705176E+01  0.95295893652E+01  0.14053998479E+02  0.51100000000E-03 0. -1.
        -11    1    4    4    0    0  0.31352117870E+00  0.11923688186E+02 -0.39284621226E+01  0.12558083070E+02  0.51100000000E-03 0.  1.
        -12    1    4    4    0    0  0.61273660106E+01  0.97858517356E+01  0.25239503738E+02  0.27755000583E+02  0.00000000000E+00 0.  1.
</event>
<event>
 8    1  0.1240174E-006  0.9118800E+02  0.7816164E-02  0.1184000E+00
        -11   -1    0    0    0    0  0.00000000000E+00  0.00000000000E+00  0.45593999997E+02  0.45594000000E+02  0.51100000000E-03 0. -1.
         11   -1    0    0    0    0 -0.00000000000E+00 -0.00000000000E+00 -0.45593999997E+02  0.45594000000E+02  0.51100000000E-03 0.  1.
         23    2    1    2    0    0 -0.88817841970E-15  0.00000000000E+00  0.00000000000E+00  0.91188000000E+02  0.91188000000E+02 0.  0.
    9900012    2    3    3    0    0  0.37386832145E+01 -0.14037219558E+02  0.33834375952E+02  0.54366996739E+02  0.39999800664E+02 0.  0.
        -12    1    3    3    0    0 -0.37386832145E+01  0.14037219558E+02 -0.33834375952E+02  0.36821003261E+02  0.00000000000E+00 0.  1.
         11    1    4    4    0    0 -0.26871697320E+01 -0.22415208204E+02  0.35543115509E+02  0.42106715620E+02  0.51100000000E-03 0. -1.
        -11    1    4    4    0    0 -0.96668739055E+00  0.16995327789E+01  0.57768114174E+00  0.20387770698E+01  0.51100000000E-03 0.  1.
         12    1    4    4    0    0  0.73925403370E+01  0.66784558671E+01 -0.22864206981E+01  0.10221504048E+02  0.00000000000E+00 0. -1.
</event>
<event>
 8    1  0.1240174E-006  0.9118800E+02  0.7816164E-02  0.1184000E+00
        -11   -1    0    0    0    0  0.00000000000E+00  0.00000000000E+00  0.45593999997E+02  0.45594000000E+02  0.51100000000E-03 0. -1.
         11   -1    0    0    0    0 -0.00000000000E+00 -0.00000000000E+00 -0.45593999997E+02  0.45594000000E+02  0.51100000000E-03 0.  1.
         23    2    1    2    0    0  0.00000000000E+00 -0.35527136788E-14  0.00000000000E+00  0.91188000000E+02  0.91188000000E+02 0.  0.
    9900012    2    3    3    0    0  0.96656419214E+01 -0.30567754272E+02 -0.18109878567E+02  0.54367082892E+02  0.39999997069E+02 0.  0.
         12    1    3    3    0    0 -0.96656419214E+01  0.30567754272E+02  0.18109878567E+02  0.36820917108E+02  0.00000000000E+00 0. -1.
         11    1    4    4    0    0 -0.42983207667E+00 -0.66595833083E+00 -0.15367662642E+02  0.15388089923E+02  0.51100000000E-03 0. -1.
        -11    1    4    4    0    0  0.39794460647E+01 -0.16687320420E+02 -0.12694757409E+02  0.21341497598E+02  0.51100000000E-03 0.  1.
         12    1    4    4    0    0  0.61160279334E+01 -0.13214475521E+02  0.99525414845E+01  0.17637495371E+02  0.00000000000E+00 0. -1.
</event>
<event>
 8    1  0.1240174E-006  0.9118800E+02  0.7816164E-02  0.1184000E+00
        -11   -1    0    0    0    0  0.00000000000E+00  0.00000000000E+00  0.45593999997E+02  0.45594000000E+02  0.51100000000E-03 0. -1.
         11   -1    0    0    0    0 -0.00000000000E+00 -0.00000000000E+00 -0.45593999997E+02  0.45594000000E+02  0.51100000000E-03 0.  1.
         23    2    1    2    0    0  0.00000000000E+00  0.00000000000E+00 -0.35527136788E-14  0.91188000000E+02  0.91188000000E+02 0.  0.
    9900012    2    3    3    0    0 -0.19226621290E+02  0.86159461695E+01  0.30197420903E+02  0.54367058624E+02  0.39999941744E+02 0.  0.
        -12    1    3    3    0    0  0.19226621290E+02 -0.86159461695E+01 -0.30197420903E+02  0.36820941376E+02  0.00000000000E+00 0.  1.
         11    1    4    4    0    0  0.46613613789E+01  0.12667224458E+01  0.44920829678E+01  0.65963387807E+01  0.51100000000E-03 0.  1.
        -11    1    4    4    0    0 -0.80556704749E+01 -0.12003428436E+01  0.28428840709E+02  0.29572514842E+02  0.51100000000E-03 0. -1.
         12    1    4    4    0    0 -0.15832312194E+02  0.85495665672E+01 -0.27235027735E+01  0.18198205001E+02  0.00000000000E+00 0. -1.
</event>
<event>
 8    1  0.1240174E-006  0.9118800E+02  0.7816164E-02  0.1184000E+00
        -11   -1    0    0    0    0  0.00000000000E+00  0.00000000000E+00  0.45593999997E+02  0.45594000000E+02  0.51100000000E-03 0. -1.
         11   -1    0    0    0    0 -0.00000000000E+00 -0.00000000000E+00 -0.45593999997E+02  0.45594000000E+02  0.51100000000E-03 0.  1.
         23    2    1    2    0    0  0.00000000000E+00  0.00000000000E+00  0.17763568394E-14  0.91188000000E+02  0.91188000000E+02 0.  0.
    9900012    2    3    3    0    0 -0.15314578033E+02  0.30947663911E+02 -0.12785652761E+02  0.54367256955E+02  0.40000393878E+02 0.  0.
         12    1    3    3    0    0  0.15314578033E+02 -0.30947663911E+02  0.12785652761E+02  0.36820743045E+02  0.00000000000E+00 0. -1.
         11    1    4    4    0    0  0.51621565428E+01  0.94037979048E+01  0.80451459374E+01  0.13409088285E+02  0.51100000000E-03 0. -1.
        -11    1    4    4    0    0 -0.96680054688E+01  0.30304153734E+00 -0.12293019236E+02  0.15642266016E+02  0.51100000000E-03 0.  1.
         12    1    4    4    0    0 -0.10808729107E+02  0.21240824469E+02 -0.85377794619E+01  0.25315902654E+02  0.00000000000E+00 0. -1.
</event>
<event>
 8    1  0.1240174E-006  0.9118800E+02  0.7816164E-02  0.1184000E+00
        -11   -1    0    0    0    0  0.00000000000E+00  0.00000000000E+00  0.45593999997E+02  0.45594000000E+02  0.51100000000E-03 0.  1.
         11   -1    0    0    0    0 -0.00000000000E+00 -0.00000000000E+00 -0.45593999997E+02  0.45594000000E+02  0.51100000000E-03 0. -1.
         23    2    1    2    0    0  0.88817841970E-15  0.71054273576E-14  0.88817841970E-15  0.91188000000E+02  0.91188000000E+02 0.  0.
    9900012    2    3    3    0    0  0.40541629254E+01 -0.36302426212E+02  0.46343315456E+01  0.54367089979E+02  0.40000013226E+02 0.  0.
         12    1    3    3    0    0 -0.40541629254E+01  0.36302426212E+02 -0.46343315456E+01  0.36820910021E+02  0.00000000000E+00 0. -1.
         11    1    4    4    0    0  0.81235326889E+01  0.95958661853E+00  0.81141771183E-01  0.81804140527E+01  0.51100000000E-03 0. -1.
        -11    1    4    4    0    0 -0.66775309933E+01  0.96860749778E+00 -0.25522598698E+01  0.72139899747E+01  0.51100000000E-03 0.  1.
        -12    1    4    4    0    0  0.26081612298E+01 -0.38230620328E+02  0.71054496442E+01  0.38972685952E+02  0.00000000000E+00 0.  1.
</event>
<event>
 8    1  0.1240174E-006  0.9118800E+02  0.7816164E-02  0.1184000E+00
        -11   -1    0    0    0    0  0.00000000000E+00  0.00000000000E+00  0.45593999997E+02  0.45594000000E+02  0.51100000000E-03 0.  1.
         11   -1    0    0    0    0 -0.00000000000E+00 -0.00000000000E+00 -0.45593999997E+02  0.45594000000E+02  0.51100000000E-03 0. -1.
         23    2    1    2    0    0  0.88817841970E-15  0.00000000000E+00  0.88817841970E-15  0.91188000000E+02  0.91188000000E+02 0.  0.
    9900012    2    3    3    0    0 -0.75589541237E+01  0.35255874447E+02 -0.74609578444E+01  0.54367077111E+02  0.39999983889E+02 0.  0.
         12    1    3    3    0    0  0.75589541237E+01 -0.35255874447E+02  0.74609578444E+01  0.36820922889E+02  0.00000000000E+00 0. -1.
         11    1    4    4    0    0  0.69914240436E+01  0.80498321415E+01 -0.76641734342E+01  0.13130855355E+02  0.51100000000E-03 0. -1.
        -11    1    4    4    0    0 -0.88268670572E+01  0.16748898145E+02 -0.13365313120E+02  0.23174787295E+02  0.51100000000E-03 0.  1.
        -12    1    4    4    0    0 -0.57235111101E+01  0.10457144161E+02  0.13568528710E+02  0.18061434461E+02  0.00000000000E+00 0.  1.
</event>
<event>
 8    1  0.1240174E-006  0.9118800E+02  0.7816164E-02  0.1184000E+00
        -11   -1    0    0    0    0  0.00000000000E+00  0.00000000000E+00  0.45593999997E+02  0.45594000000E+02  0.51100000000E-03 0.  1.
         11   -1    0    0    0    0 -0.00000000000E+00 -0.00000000000E+00 -0.45593999997E+02  0.45594000000E+02  0.51100000000E-03 0. -1.
         23    2    1    2    0    0 -0.35527136788E-14  0.88817841970E-15  0.00000000000E+00  0.91188000000E+02  0.91188000000E+02 0.  0.
    9900012    2    3    3    0    0 -0.27504832538E+02 -0.70015145248E+01 -0.23457222287E+02  0.54367105171E+02  0.40000047858E+02 0.  0.
        -12    1    3    3    0    0  0.27504832538E+02  0.70015145248E+01  0.23457222287E+02  0.36820894829E+02  0.00000000000E+00 0.  1.
         11    1    4    4    0    0 -0.24524102209E+02  0.36390046283E+01 -0.65048411194E+01  0.25631755735E+02  0.51100000000E-03 0. -1.
        -11    1    4    4    0    0  0.11116276673E+01 -0.13971182495E+02 -0.37361607782E+01  0.14504776937E+02  0.51100000000E-03 0.  1.
         12    1    4    4    0    0 -0.40923579970E+01  0.33306633416E+01 -0.13216220389E+02  0.14230572499E+02  0.00000000000E+00 0. -1.
</event>
<event>
 8    1  0.1240174E-006  0.9118800E+02  0.7816164E-02  0.1184000E+00
        -11   -1    0    0    0    0  0.00000000000E+00  0.00000000000E+00  0.45593999997E+02  0.45594000000E+02  0.51100000000E-03 0. -1.
         11   -1    0    0    0    0 -0.00000000000E+00 -0.00000000000E+00 -0.45593999997E+02  0.45594000000E+02  0.51100000000E-03 0.  1.
         23    2    1    2    0    0  0.88817841970E-15  0.00000000000E+00  0.71054273576E-14  0.91188000000E+02  0.91188000000E+02 0.  0.
    9900012    2    3    3    0    0 -0.60670858965E+01 -0.30839836004E+02  0.19180088105E+02  0.54367071226E+02  0.39999970474E+02 0.  0.
        -12    1    3    3    0    0  0.60670858965E+01  0.30839836004E+02 -0.19180088105E+02  0.36820928774E+02  0.00000000000E+00 0.  1.
         11    1    4    4    0    0  0.11730729271E+02 -0.19040975732E+02  0.59109246372E+01  0.23132397118E+02  0.51100000000E-03 0. -1.
        -11    1    4    4    0    0 -0.18019124597E+01  0.48540285362E+01  0.27107075478E+01  0.58443491693E+01  0.51100000000E-03 0.  1.
        -12    1    4    4    0    0 -0.15995902708E+02 -0.16652888808E+02  0.10558455920E+02  0.25390324939E+02  0.00000000000E+00 0.  1.
</event>
<event>
 8    1  0.1240174E-006  0.9118800E+02  0.7816164E-02  0.1184000E+00
        -11   -1    0    0    0    0  0.00000000000E+00  0.00000000000E+00  0.45593999997E+02  0.45594000000E+02  0.51100000000E-03 0.  1.
         11   -1    0    0    0    0 -0.00000000000E+00 -0.00000000000E+00 -0.45593999997E+02  0.45594000000E+02  0.51100000000E-03 0. -1.
         23    2    1    2    0    0  0.88817841970E-15  0.00000000000E+00  0.00000000000E+00  0.91188000000E+02  0.91188000000E+02 0.  0.
    9900012    2    3    3    0    0  0.71749965936E+01  0.35754312741E+02 -0.50915412106E+01  0.54367146566E+02  0.40000142226E+02 0.  0.
        -12    1    3    3    0    0 -0.71749965936E+01 -0.35754312741E+02  0.50915412106E+01  0.36820853434E+02  0.00000000000E+00 0.  1.
         11    1    4    4    0    0  0.12593939484E+02  0.42269085125E+01 -0.10588156739E+02  0.16987734713E+02  0.51100000000E-03 0. -1.
        -11    1    4    4    0    0 -0.66644623066E+01  0.22186667722E+01 -0.15869404316E+01  0.72011054899E+01  0.51100000000E-03 0.  1.
         12    1    4    4    0    0  0.12455194166E+01  0.29308737456E+02  0.70835559600E+01  0.30178306363E+02  0.00000000000E+00 0. -1.
</event>
<event>
 8    1  0.1240174E-006  0.9118800E+02  0.7816164E-02  0.1184000E+00
        -11   -1    0    0    0    0  0.00000000000E+00  0.00000000000E+00  0.45593999997E+02  0.45594000000E+02  0.51100000000E-03 0.  1.
         11   -1    0    0    0    0 -0.00000000000E+00 -0.00000000000E+00 -0.45593999997E+02  0.45594000000E+02  0.51100000000E-03 0. -1.
         23    2    1    2    0    0 -0.88817841970E-15  0.00000000000E+00 -0.35527136788E-14  0.91188000000E+02  0.91188000000E+02 0.  0.
    9900012    2    3    3    0    0  0.46020970517E+00  0.23666337660E+02  0.28204123551E+02  0.54367083166E+02  0.39999997693E+02 0.  0.
         12    1    3    3    0    0 -0.46020970517E+00 -0.23666337660E+02 -0.28204123551E+02  0.36820916834E+02  0.00000000000E+00 0. -1.
         11    1    4    4    0    0 -0.14652383941E+01 -0.82190293533E+00 -0.16829554403E+01  0.23779796597E+01  0.51100000000E-03 0. -1.
        -11    1    4    4    0    0 -0.82207258369E+01 -0.58355456331E+01  0.10685537610E+02  0.14690631042E+02  0.51100000000E-03 0.  1.
        -12    1    4    4    0    0  0.10146173936E+02  0.30323786229E+02  0.19201541381E+02  0.37298472465E+02  0.00000000000E+00 0.  1.
</event>
<event>
 8    1  0.1240174E-006  0.9118800E+02  0.7816164E-02  0.1184000E+00
        -11   -1    0    0    0    0  0.00000000000E+00  0.00000000000E+00  0.45593999997E+02  0.45594000000E+02  0.51100000000E-03 0. -1.
         11   -1    0    0    0    0 -0.00000000000E+00 -0.00000000000E+00 -0.45593999997E+02  0.45594000000E+02  0.51100000000E-03 0.  1.
         23    2    1    2    0    0  0.00000000000E+00  0.00000000000E+00  0.00000000000E+00  0.91188000000E+02  0.91188000000E+02 0.  0.
    9900012    2    3    3    0    0 -0.15803031982E+02  0.30254753091E+02  0.13809131218E+02  0.54367109063E+02  0.40000056730E+02 0.  0.
        -12    1    3    3    0    0  0.15803031982E+02 -0.30254753091E+02 -0.13809131218E+02  0.36820890937E+02  0.00000000000E+00 0.  1.
         11    1    4    4    0    0 -0.55103218299E+01  0.86334948633E+01 -0.11696982417E+02  0.15547355986E+02  0.51100000000E-03 0.  1.
        -11    1    4    4    0    0 -0.25950790701E+01  0.21015925858E+02  0.15819164753E+02  0.26431979662E+02  0.51100000000E-03 0. -1.
        -12    1    4    4    0    0 -0.76976310818E+01  0.60533236912E+00  0.96869488819E+01  0.12387773415E+02  0.00000000000E+00 0.  1.
</event>
<event>
 8    1  0.1240174E-006  0.9118800E+02  0.7816164E-02  0.1184000E+00
        -11   -1    0    0    0    0  0.00000000000E+00  0.00000000000E+00  0.45593999997E+02  0.45594000000E+02  0.51100000000E-03 0. -1.
         11   -1    0    0    0    0 -0.00000000000E+00 -0.00000000000E+00 -0.45593999997E+02  0.45594000000E+02  0.51100000000E-03 0.  1.
         23    2    1    2    0    0 -0.17763568394E-14  0.71054273576E-14  0.00000000000E+00  0.91188000000E+02  0.91188000000E+02 0.  0.
    9900012    2    3    3    0    0 -0.10013475831E+02 -0.35062605879E+02 -0.51111217288E+01  0.54367087537E+02  0.40000007659E+02 0.  0.
        -12    1    3    3    0    0  0.10013475831E+02  0.35062605879E+02  0.51111217288E+01  0.36820912463E+02  0.00000000000E+00 0.  1.
         11    1    4    4    0    0  0.10893899370E+02 -0.93410786709E+01  0.17451855349E+01  0.14456087542E+02  0.51100000000E-03 0.  1.
        -11    1    4    4    0    0  0.39954961537E+01 -0.12338898454E+01  0.52323510143E+00  0.42142910313E+01  0.51100000000E-03 0. -1.
         12    1    4    4    0    0 -0.24902871355E+02 -0.24487637363E+02 -0.73795423651E+01  0.35696708964E+02  0.00000000000E+00 0. -1.
</event>
<event>
 8    1  0.1240174E-006  0.9118800E+02  0.7816164E-02  0.1184000E+00
        -11   -1    0    0    0    0  0.00000000000E+00  0.00000000000E+00  0.45593999997E+02  0.45594000000E+02  0.51100000000E-03 0. -1.
         11   -1    0    0    0    0 -0.00000000000E+00 -0.00000000000E+00 -0.45593999997E+02  0.45594000000E+02  0.51100000000E-03 0.  1.
         23    2    1    2    0    0 -0.17763568394E-14  0.00000000000E+00  0.00000000000E+00  0.91188000000E+02  0.91188000000E+02 0.  0.
    9900012    2    3    3    0    0 -0.31703916398E+01  0.12551764250E+02  0.34469984624E+02  0.54367109069E+02  0.40000056746E+02 0.  0.
        -12    1    3    3    0    0  0.31703916398E+01 -0.12551764250E+02 -0.34469984624E+02  0.36820890931E+02  0.00000000000E+00 0.  1.
         11    1    4    4    0    0  0.13600013841E+02  0.10430769005E+02  0.22082816304E+02  0.27953749206E+02  0.51100000000E-03 0. -1.
        -11    1    4    4    0    0 -0.43278138845E+01  0.56447310440E+01 -0.16765462337E+01  0.73077882504E+01  0.51100000000E-03 0.  1.
         12    1    4    4    0    0 -0.12442591596E+02 -0.35237357991E+01  0.14063714554E+02  0.19105571613E+02  0.00000000000E+00 0. -1.
</event>
<event>
 8    1  0.1240174E-006  0.9118800E+02  0.7816164E-02  0.1184000E+00
        -11   -1    0    0    0    0  0.00000000000E+00  0.00000000000E+00  0.45593999997E+02  0.45594000000E+02  0.51100000000E-03 0. -1.
         11   -1    0    0    0    0 -0.00000000000E+00 -0.00000000000E+00 -0.45593999997E+02  0.45594000000E+02  0.51100000000E-03 0.  1.
         23    2    1    2    0    0  0.17763568394E-14  0.00000000000E+00  0.35527136788E-14  0.91188000000E+02  0.91188000000E+02 0.  0.
    9900012    2    3    3    0    0  0.13047886212E+02 -0.31732876709E+02 -0.13362547850E+02  0.54367075462E+02  0.39999980131E+02 0.  0.
         12    1    3    3    0    0 -0.13047886212E+02  0.31732876709E+02  0.13362547850E+02  0.36820924538E+02  0.00000000000E+00 0. -1.
         11    1    4    4    0    0 -0.81467712479E+01 -0.18089368312E+02 -0.13104110259E+02  0.23776308243E+02  0.51100000000E-03 0. -1.
        -11    1    4    4    0    0  0.24195252415E+02 -0.12779194194E+02  0.53875508033E+00  0.27368016022E+02  0.51100000000E-03 0.  1.
        -12    1    4    4    0    0 -0.30005949555E+01 -0.86431420242E+00 -0.79719267054E+00  0.32227511975E+01  0.00000000000E+00 0.  1.
</event>
<event>
 8    1  0.1240174E-006  0.9118800E+02  0.7816164E-02  0.1184000E+00
        -11   -1    0    0    0    0  0.00000000000E+00  0.00000000000E+00  0.45593999997E+02  0.45594000000E+02  0.51100000000E-03 0.  1.
         11   -1    0    0    0    0 -0.00000000000E+00 -0.00000000000E+00 -0.45593999997E+02  0.45594000000E+02  0.51100000000E-03 0. -1.
         23    2    1    2    0    0 -0.17763568394E-14 -0.35527136788E-14  0.71054273576E-14  0.91188000000E+02  0.91188000000E+02 0.  0.
    9900012    2    3    3    0    0  0.81992454641E+01  0.17807046482E+02 -0.31168269214E+02  0.54367088327E+02  0.40000009460E+02 0.  0.
        -12    1    3    3    0    0 -0.81992454641E+01 -0.17807046482E+02  0.31168269214E+02  0.36820911673E+02  0.00000000000E+00 0.  1.
         11    1    4    4    0    0 -0.46534664927E+01  0.14729307934E+02 -0.11123447418E+02  0.19035187032E+02  0.51100000000E-03 0. -1.
        -11    1    4    4    0    0 -0.78504713206E+00  0.83149628117E+01  0.22749888626E+01  0.86562393766E+01  0.51100000000E-03 0.  1.
        -12    1    4    4    0    0  0.13637759089E+02 -0.52372242640E+01 -0.22319810659E+02  0.26675661919E+02  0.00000000000E+00 0.  1.
</event>
<event>
 8    1  0.1240174E-006  0.9118800E+02  0.7816164E-02  0.1184000E+00
        -11   -1    0    0    0    0  0.00000000000E+00  0.00000000000E+00  0.45593999997E+02  0.45594000000E+02  0.51100000000E-03 0. -1.
         11   -1    0    0    0    0 -0.00000000000E+00 -0.00000000000E+00 -0.45593999997E+02  0.45594000000E+02  0.51100000000E-03 0.  1.
         23    2    1    2    0    0  0.00000000000E+00  0.17763568394E-14  0.00000000000E+00  0.91188000000E+02  0.91188000000E+02 0.  0.
    9900012    2    3    3    0    0  0.27505681019E+02 -0.10161882694E+02 -0.22270002436E+02  0.54367090767E+02  0.40000015022E+02 0.  0.
         12    1    3    3    0    0 -0.27505681019E+02  0.10161882694E+02  0.22270002436E+02  0.36820909233E+02  0.00000000000E+00 0. -1.
         11    1    4    4    0    0  0.15673371107E+02  0.82861069653E+01 -0.48913026127E+01  0.18391274344E+02  0.51100000000E-03 0. -1.
        -11    1    4    4    0    0  0.15568495276E+02 -0.53413517420E+01 -0.41318675980E+01  0.16969985671E+02  0.51100000000E-03 0.  1.
        -12    1    4    4    0    0 -0.37361853630E+01 -0.13106637917E+02 -0.13246832225E+02  0.19005830752E+02  0.00000000000E+00 0.  1.
</event>
<event>
 8    1  0.1240174E-006  0.9118800E+02  0.7816164E-02  0.1184000E+00
        -11   -1    0    0    0    0  0.00000000000E+00  0.00000000000E+00  0.45593999997E+02  0.45594000000E+02  0.51100000000E-03 0. -1.
         11   -1    0    0    0    0 -0.00000000000E+00 -0.00000000000E+00 -0.45593999997E+02  0.45594000000E+02  0.51100000000E-03 0.  1.
         23    2    1    2    0    0  0.17763568394E-14  0.00000000000E+00  0.00000000000E+00  0.91188000000E+02  0.91188000000E+02 0.  0.
    9900012    2    3    3    0    0 -0.40024004930E+01 -0.15859732830E+02 -0.32988319099E+02  0.54367088386E+02  0.40000009593E+02 0.  0.
         12    1    3    3    0    0  0.40024004930E+01  0.15859732830E+02  0.32988319099E+02  0.36820911614E+02  0.00000000000E+00 0. -1.
         11    1    4    4    0    0  0.34132258326E+00 -0.53318182287E+01 -0.64407936834E+00  0.53814147976E+01  0.51100000000E-03 0. -1.
        -11    1    4    4    0    0 -0.14011070414E+02 -0.18446790867E+02 -0.14957645365E+02  0.27573997580E+02  0.51100000000E-03 0.  1.
         12    1    4    4    0    0  0.96673473376E+01  0.79188762649E+01 -0.17386594365E+02  0.21411676008E+02  0.00000000000E+00 0. -1.
</event>
<event>
 8    1  0.1240174E-006  0.9118800E+02  0.7816164E-02  0.1184000E+00
        -11   -1    0    0    0    0  0.00000000000E+00  0.00000000000E+00  0.45593999997E+02  0.45594000000E+02  0.51100000000E-03 0. -1.
         11   -1    0    0    0    0 -0.00000000000E+00 -0.00000000000E+00 -0.45593999997E+02  0.45594000000E+02  0.51100000000E-03 0.  1.
         23    2    1    2    0    0  0.17763568394E-14  0.00000000000E+00  0.17763568394E-14  0.91188000000E+02  0.91188000000E+02 0.  0.
    9900012    2    3    3    0    0  0.14273180697E+02  0.32222722120E+02  0.10665454384E+02  0.54367089836E+02  0.40000012900E+02 0.  0.
         12    1    3    3    0    0 -0.14273180697E+02 -0.32222722120E+02 -0.10665454384E+02  0.36820910164E+02  0.00000000000E+00 0. -1.
         11    1    4    4    0    0 -0.10678220337E+02  0.14745410285E+02 -0.28513018001E+01  0.18427735516E+02  0.51100000000E-03 0. -1.
        -11    1    4    4    0    0  0.11103925922E+02  0.97554647227E+01 -0.48253141969E+00  0.14788478612E+02  0.51100000000E-03 0.  1.
        -12    1    4    4    0    0  0.13847475112E+02  0.77218471125E+01  0.13999287604E+02  0.21150875708E+02  0.00000000000E+00 0.  1.
</event>
<event>
 8    1  0.1240174E-006  0.9118800E+02  0.7816164E-02  0.1184000E+00
        -11   -1    0    0    0    0  0.00000000000E+00  0.00000000000E+00  0.45593999997E+02  0.45594000000E+02  0.51100000000E-03 0.  1.
         11   -1    0    0    0    0 -0.00000000000E+00 -0.00000000000E+00 -0.45593999997E+02  0.45594000000E+02  0.51100000000E-03 0. -1.
         23    2    1    2    0    0  0.00000000000E+00  0.00000000000E+00  0.00000000000E+00  0.91188000000E+02  0.91188000000E+02 0.  0.
    9900012    2    3    3    0    0 -0.13993985827E+02  0.28691385720E+02  0.18350821666E+02  0.54367083258E+02  0.39999997903E+02 0.  0.
         12    1    3    3    0    0  0.13993985827E+02 -0.28691385720E+02 -0.18350821666E+02  0.36820916742E+02  0.00000000000E+00 0. -1.
         11    1    4    4    0    0  0.59329063481E+01  0.70543371015E+01  0.75753348073E+01  0.11930999429E+02  0.51100000000E-03 0. -1.
        -11    1    4    4    0    0 -0.25370187665E+02  0.10265594406E+02  0.11765407203E+02  0.29790160415E+02  0.51100000000E-03 0.  1.
         12    1    4    4    0    0  0.54432954896E+01  0.11371454213E+02 -0.98992034381E+00  0.12645923414E+02  0.00000000000E+00 0. -1.
</event>
<event>
 8    1  0.1240174E-006  0.9118800E+02  0.7816164E-02  0.1184000E+00
        -11   -1    0    0    0    0  0.00000000000E+00  0.00000000000E+00  0.45593999997E+02  0.45594000000E+02  0.51100000000E-03 0.  1.
         11   -1    0    0    0    0 -0.00000000000E+00 -0.00000000000E+00 -0.45593999997E+02  0.45594000000E+02  0.51100000000E-03 0. -1.
         23    2    1    2    0    0  0.35527136788E-14 -0.35527136788E-14  0.00000000000E+00  0.91188000000E+02  0.91188000000E+02 0.  0.
    9900012    2    3    3    0    0 -0.22322045789E+02  0.28224792067E+02  0.78009064745E+01  0.54367261859E+02  0.40000405058E+02 0.  0.
         12    1    3    3    0    0  0.22322045789E+02 -0.28224792067E+02 -0.78009064745E+01  0.36820738141E+02  0.00000000000E+00 0. -1.
         11    1    4    4    0    0  0.39404532225E+01  0.30503944296E+01 -0.51907330398E+01  0.71955394188E+01  0.51100000000E-03 0. -1.
        -11    1    4    4    0    0 -0.91618670598E+01  0.24012002543E+02  0.15248549040E+02  0.29883679865E+02  0.51100000000E-03 0.  1.
         12    1    4    4    0    0 -0.17100631952E+02  0.11623950937E+01 -0.22569095254E+01  0.17288042576E+02  0.00000000000E+00 0. -1.
</event>
<event>
 8    1  0.1240174E-006  0.9118800E+02  0.7816164E-02  0.1184000E+00
        -11   -1    0    0    0    0  0.00000000000E+00  0.00000000000E+00  0.45593999997E+02  0.45594000000E+02  0.51100000000E-03 0.  1.
         11   -1    0    0    0    0 -0.00000000000E+00 -0.00000000000E+00 -0.45593999997E+02  0.45594000000E+02  0.51100000000E-03 0. -1.
         23    2    1    2    0    0  0.17763568394E-14  0.00000000000E+00  0.00000000000E+00  0.91188000000E+02  0.91188000000E+02 0.  0.
    9900012    2    3    3    0    0 -0.13965928535E+02  0.56078196682E+01  0.33604974310E+02  0.54366958466E+02  0.39999713414E+02 0.  0.
         12    1    3    3    0    0  0.13965928535E+02 -0.56078196682E+01 -0.33604974310E+02  0.36821041534E+02  0.00000000000E+00 0. -1.
         11    1    4    4    0    0 -0.20344199996E+02  0.97081406255E+01  0.13249550475E+02  0.26147371874E+02  0.51100000000E-03 0.  1.
        -11    1    4    4    0    0 -0.23852908474E+01 -0.90688119598E+01  0.84383695619E+01  0.12615032458E+02  0.51100000000E-03 0. -1.
         12    1    4    4    0    0  0.87635623083E+01  0.49684910025E+01  0.11917054273E+02  0.15604554134E+02  0.00000000000E+00 0. -1.
</event>
<event>
 8    1  0.1240174E-006  0.9118800E+02  0.7816164E-02  0.1184000E+00
        -11   -1    0    0    0    0  0.00000000000E+00  0.00000000000E+00  0.45593999997E+02  0.45594000000E+02  0.51100000000E-03 0.  1.
         11   -1    0    0    0    0 -0.00000000000E+00 -0.00000000000E+00 -0.45593999997E+02  0.45594000000E+02  0.51100000000E-03 0. -1.
         23    2    1    2    0    0  0.17763568394E-14 -0.17763568394E-14  0.00000000000E+00  0.91188000000E+02  0.91188000000E+02 0.  0.
    9900012    2    3    3    0    0 -0.99166588549E+01  0.99109532394E+01  0.34047172691E+02  0.54367121612E+02  0.40000085340E+02 0.  0.
         12    1    3    3    0    0  0.99166588549E+01 -0.99109532394E+01 -0.34047172691E+02  0.36820878388E+02  0.00000000000E+00 0. -1.
         11    1    4    4    0    0 -0.87306732513E+01 -0.45567929379E+00  0.17870980453E+01  0.89233412310E+01  0.51100000000E-03 0. -1.
        -11    1    4    4    0    0  0.14542695859E+02  0.52997999951E+01  0.15258514998E+02  0.21734768529E+02  0.51100000000E-03 0.  1.
        -12    1    4    4    0    0 -0.15728681463E+02  0.50668325381E+01  0.17001559648E+02  0.23709011852E+02  0.00000000000E+00 0.  1.
</event>
<event>
 8    1  0.1240174E-006  0.9118800E+02  0.7816164E-02  0.1184000E+00
        -11   -1    0    0    0    0  0.00000000000E+00  0.00000000000E+00  0.45593999997E+02  0.45594000000E+02  0.51100000000E-03 0. -1.
         11   -1    0    0    0    0 -0.00000000000E+00 -0.00000000000E+00 -0.45593999997E+02  0.45594000000E+02  0.51100000000E-03 0.  1.
         23    2    1    2    0    0  0.00000000000E+00  0.00000000000E+00  0.00000000000E+00  0.91188000000E+02  0.91188000000E+02 0.  0.
    9900012    2    3    3    0    0 -0.26246713005E+02 -0.90993458369E+01  0.24167986483E+02  0.54367087343E+02  0.40000007216E+02 0.  0.
        -12    1    3    3    0    0  0.26246713005E+02  0.90993458369E+01 -0.24167986483E+02  0.36820912657E+02  0.00000000000E+00 0.  1.
         11    1    4    4    0    0 -0.11815433446E+02 -0.12326309474E+02  0.69382235166E+01  0.18430445426E+02  0.51100000000E-03 0. -1.
        -11    1    4    4    0    0 -0.12441185173E+02  0.10784657457E+02  0.21461074071E+02  0.27049392332E+02  0.51100000000E-03 0.  1.
        -12    1    4    4    0    0 -0.19900943854E+01 -0.75576938199E+01 -0.42313111042E+01  0.88872495856E+01  0.00000000000E+00 0.  1.
</event>
<event>
 8    1  0.1240174E-006  0.9118800E+02  0.7816164E-02  0.1184000E+00
        -11   -1    0    0    0    0  0.00000000000E+00  0.00000000000E+00  0.45593999997E+02  0.45594000000E+02  0.51100000000E-03 0.  1.
         11   -1    0    0    0    0 -0.00000000000E+00 -0.00000000000E+00 -0.45593999997E+02  0.45594000000E+02  0.51100000000E-03 0. -1.
         23    2    1    2    0    0 -0.17763568394E-14 -0.88817841970E-15  0.00000000000E+00  0.91188000000E+02  0.91188000000E+02 0.  0.
    9900012    2    3    3    0    0  0.79452351548E+01  0.55613410763E+01  0.35520725960E+02  0.54367119389E+02  0.40000080272E+02 0.  0.
         12    1    3    3    0    0 -0.79452351548E+01 -0.55613410763E+01 -0.35520725960E+02  0.36820880611E+02  0.00000000000E+00 0. -1.
         11    1    4    4    0    0 -0.17054504625E+01 -0.80143395775E+00 -0.48497333931E+00  0.19457792962E+01  0.51100000000E-03 0. -1.
        -11    1    4    4    0    0 -0.48250448929E+01 -0.48115806350E+01 -0.43716561587E+01  0.80959091063E+01  0.51100000000E-03 0.  1.
        -12    1    4    4    0    0  0.14475730510E+02  0.11174355669E+02  0.40377355458E+02  0.44325430987E+02  0.00000000000E+00 0.  1.
</event>
<event>
 8    1  0.1240174E-006  0.9118800E+02  0.7816164E-02  0.1184000E+00
        -11   -1    0    0    0    0  0.00000000000E+00  0.00000000000E+00  0.45593999997E+02  0.45594000000E+02  0.51100000000E-03 0. -1.
         11   -1    0    0    0    0 -0.00000000000E+00 -0.00000000000E+00 -0.45593999997E+02  0.45594000000E+02  0.51100000000E-03 0.  1.
         23    2    1    2    0    0  0.71054273576E-14  0.00000000000E+00 -0.17763568394E-14  0.91188000000E+02  0.91188000000E+02 0.  0.
    9900012    2    3    3    0    0 -0.32902613563E+02  0.84469761278E+01  0.14207300379E+02  0.54367071590E+02  0.39999971303E+02 0.  0.
        -12    1    3    3    0    0  0.32902613563E+02 -0.84469761278E+01 -0.14207300379E+02  0.36820928410E+02  0.00000000000E+00 0.  1.
         11    1    4    4    0    0 -0.10234873549E+02  0.51220053201E+01 -0.13767409380E+02  0.17903327522E+02  0.51100000000E-03 0.  1.
        -11    1    4    4    0    0 -0.13450566360E+02 -0.37214780450E+00  0.16314943471E+02  0.21147898480E+02  0.51100000000E-03 0. -1.
        -12    1    4    4    0    0 -0.92171736541E+01  0.36971186122E+01  0.11659766288E+02  0.15315845588E+02  0.00000000000E+00 0.  1.
</event>
<event>
 8    1  0.1240174E-006  0.9118800E+02  0.7816164E-02  0.1184000E+00
        -11   -1    0    0    0    0  0.00000000000E+00  0.00000000000E+00  0.45593999997E+02  0.45594000000E+02  0.51100000000E-03 0.  1.
         11   -1    0    0    0    0 -0.00000000000E+00 -0.00000000000E+00 -0.45593999997E+02  0.45594000000E+02  0.51100000000E-03 0. -1.
         23    2    1    2    0    0  0.00000000000E+00  0.00000000000E+00  0.15543122345E-14  0.91188000000E+02  0.91188000000E+02 0.  0.
    9900012    2    3    3    0    0 -0.16569468913E+02  0.32866482098E+02 -0.10135922983E+01  0.54367077756E+02  0.39999985361E+02 0.  0.
         12    1    3    3    0    0  0.16569468913E+02 -0.32866482098E+02  0.10135922983E+01  0.36820922244E+02  0.00000000000E+00 0. -1.
         11    1    4    4    0    0 -0.13499549350E+01 -0.36493186469E+01  0.49826252200E+01  0.63219031357E+01  0.51100000000E-03 0. -1.
        -11    1    4    4    0    0  0.46602698556E+01  0.20068903648E+02  0.27855604865E+01  0.20790342860E+02  0.51100000000E-03 0.  1.
         12    1    4    4    0    0 -0.19879783833E+02  0.16446897097E+02 -0.87817780048E+01  0.27254831760E+02  0.00000000000E+00 0. -1.
</event>
<event>
 8    1  0.1240174E-006  0.9118800E+02  0.7816164E-02  0.1184000E+00
        -11   -1    0    0    0    0  0.00000000000E+00  0.00000000000E+00  0.45593999997E+02  0.45594000000E+02  0.51100000000E-03 0.  1.
         11   -1    0    0    0    0 -0.00000000000E+00 -0.00000000000E+00 -0.45593999997E+02  0.45594000000E+02  0.51100000000E-03 0. -1.
         23    2    1    2    0    0  0.00000000000E+00  0.00000000000E+00  0.00000000000E+00  0.91188000000E+02  0.91188000000E+02 0.  0.
    9900012    2    3    3    0    0 -0.75817329099E+01  0.26706914150E+02  0.24187538387E+02  0.54367096283E+02  0.40000027596E+02 0.  0.
         12    1    3    3    0    0  0.75817329099E+01 -0.26706914150E+02 -0.24187538387E+02  0.36820903717E+02  0.00000000000E+00 0. -1.
         11    1    4    4    0    0  0.31310635856E+00  0.10737394543E+02  0.24696736483E+01  0.11022203290E+02  0.51100000000E-03 0. -1.
        -11    1    4    4    0    0  0.18057899525E+01 -0.79849440099E+01 -0.18222944895E+01  0.83869521080E+01  0.51100000000E-03 0.  1.
        -12    1    4    4    0    0 -0.97006292209E+01  0.23954463616E+02  0.23540159229E+02  0.34957940885E+02  0.00000000000E+00 0.  1.
</event>
<event>
 8    1  0.1240174E-006  0.9118800E+02  0.7816164E-02  0.1184000E+00
        -11   -1    0    0    0    0  0.00000000000E+00  0.00000000000E+00  0.45593999997E+02  0.45594000000E+02  0.51100000000E-03 0. -1.
         11   -1    0    0    0    0 -0.00000000000E+00 -0.00000000000E+00 -0.45593999997E+02  0.45594000000E+02  0.51100000000E-03 0.  1.
         23    2    1    2    0    0  0.00000000000E+00 -0.35527136788E-14  0.00000000000E+00  0.91188000000E+02  0.91188000000E+02 0.  0.
    9900012    2    3    3    0    0  0.17422037233E+02 -0.41126158198E+01 -0.32176664024E+02  0.54367099713E+02  0.40000035416E+02 0.  0.
         12    1    3    3    0    0 -0.17422037233E+02  0.41126158198E+01  0.32176664024E+02  0.36820900287E+02  0.00000000000E+00 0. -1.
         11    1    4    4    0    0 -0.21701950273E+01 -0.41737356158E+00  0.34085977675E+01  0.40623252145E+01  0.51100000000E-03 0. -1.
        -11    1    4    4    0    0  0.13761570505E+02  0.11182445520E+02 -0.26611168259E+02  0.31977838998E+02  0.51100000000E-03 0.  1.
        -12    1    4    4    0    0  0.58306617552E+01 -0.14877687778E+02 -0.89740935321E+01  0.18326935501E+02  0.00000000000E+00 0.  1.
</event>
<event>
 8    1  0.1240174E-006  0.9118800E+02  0.7816164E-02  0.1184000E+00
        -11   -1    0    0    0    0  0.00000000000E+00  0.00000000000E+00  0.45593999997E+02  0.45594000000E+02  0.51100000000E-03 0. -1.
         11   -1    0    0    0    0 -0.00000000000E+00 -0.00000000000E+00 -0.45593999997E+02  0.45594000000E+02  0.51100000000E-03 0.  1.
         23    2    1    2    0    0 -0.88817841970E-15  0.00000000000E+00  0.00000000000E+00  0.91188000000E+02  0.91188000000E+02 0.  0.
    9900012    2    3    3    0    0 -0.48632547612E+01  0.35331519534E+02 -0.91548151141E+01  0.54367107028E+02  0.40000052093E+02 0.  0.
         12    1    3    3    0    0  0.48632547612E+01 -0.35331519534E+02  0.91548151141E+01  0.36820892972E+02  0.00000000000E+00 0. -1.
         11    1    4    4    0    0  0.48004539517E+01  0.39654856712E+01 -0.84872033557E+01  0.10526255546E+02  0.51100000000E-03 0. -1.
        -11    1    4    4    0    0 -0.38870616310E+01  0.35901309266E+02 -0.27251489760E+01  0.36213805273E+02  0.51100000000E-03 0.  1.
         12    1    4    4    0    0 -0.57766470819E+01 -0.45352754029E+01  0.20575372176E+01  0.76270462101E+01  0.00000000000E+00 0. -1.
</event>
<event>
 8    1  0.1240174E-006  0.9118800E+02  0.7816164E-02  0.1184000E+00
        -11   -1    0    0    0    0  0.00000000000E+00  0.00000000000E+00  0.45593999997E+02  0.45594000000E+02  0.51100000000E-03 0.  1.
         11   -1    0    0    0    0 -0.00000000000E+00 -0.00000000000E+00 -0.45593999997E+02  0.45594000000E+02  0.51100000000E-03 0. -1.
         23    2    1    2    0    0 -0.35527136788E-14  0.00000000000E+00  0.35527136788E-14  0.91188000000E+02  0.91188000000E+02 0.  0.
    9900012    2    3    3    0    0 -0.26123060866E+02 -0.31891246692E+01  0.25752574144E+02  0.54367083388E+02  0.39999998199E+02 0.  0.
         12    1    3    3    0    0  0.26123060866E+02  0.31891246692E+01 -0.25752574144E+02  0.36820916612E+02  0.00000000000E+00 0. -1.
         11    1    4    4    0    0 -0.11812241896E+02 -0.12934284652E+02  0.39693934954E+01  0.17960536268E+02  0.51100000000E-03 0. -1.
        -11    1    4    4    0    0  0.14009609004E+01  0.89007048592E+01  0.18141971505E+02  0.20256267396E+02  0.51100000000E-03 0.  1.
         12    1    4    4    0    0 -0.15711779870E+02  0.84445512344E+00  0.36412091431E+01  0.16150279724E+02  0.00000000000E+00 0. -1.
</event>
<event>
 8    1  0.1240174E-006  0.9118800E+02  0.7816164E-02  0.1184000E+00
        -11   -1    0    0    0    0  0.00000000000E+00  0.00000000000E+00  0.45593999997E+02  0.45594000000E+02  0.51100000000E-03 0.  1.
         11   -1    0    0    0    0 -0.00000000000E+00 -0.00000000000E+00 -0.45593999997E+02  0.45594000000E+02  0.51100000000E-03 0. -1.
         23    2    1    2    0    0  0.00000000000E+00 -0.35527136788E-14  0.00000000000E+00  0.91188000000E+02  0.91188000000E+02 0.  0.
    9900012    2    3    3    0    0 -0.26048145074E+02 -0.19339775865E+02  0.17413992732E+02  0.54367082912E+02  0.39999997115E+02 0.  0.
         12    1    3    3    0    0  0.26048145074E+02  0.19339775865E+02 -0.17413992732E+02  0.36820917088E+02  0.00000000000E+00 0. -1.
         11    1    4    4    0    0 -0.10007096561E+02 -0.99262289924E+01 -0.24003735748E+01  0.14298034731E+02  0.51100000000E-03 0. -1.
        -11    1    4    4    0    0 -0.81011553447E+01 -0.12445929330E+02 -0.34971483620E+01  0.15256471471E+02  0.51100000000E-03 0.  1.
         12    1    4    4    0    0 -0.79398931681E+01  0.30323824575E+01  0.23311514669E+02  0.24812576711E+02  0.00000000000E+00 0. -1.
</event>
<event>
 8    1  0.1240174E-006  0.9118800E+02  0.7816164E-02  0.1184000E+00
        -11   -1    0    0    0    0  0.00000000000E+00  0.00000000000E+00  0.45593999997E+02  0.45594000000E+02  0.51100000000E-03 0.  1.
         11   -1    0    0    0    0 -0.00000000000E+00 -0.00000000000E+00 -0.45593999997E+02  0.45594000000E+02  0.51100000000E-03 0. -1.
         23    2    1    2    0    0 -0.17763568394E-14  0.00000000000E+00 -0.17763568394E-14  0.91188000000E+02  0.91188000000E+02 0.  0.
    9900012    2    3    3    0    0  0.73925455803E+01  0.33067385439E+02 -0.14411403334E+02  0.54366942764E+02  0.39999677618E+02 0.  0.
        -12    1    3    3    0    0 -0.73925455803E+01 -0.33067385439E+02  0.14411403334E+02  0.36821057236E+02  0.00000000000E+00 0.  1.
         11    1    4    4    0    0  0.71531615874E+01  0.69818738512E+01 -0.10938788181E+02  0.14817940825E+02  0.51100000000E-03 0. -1.
        -11    1    4    4    0    0 -0.18579146562E+01  0.21610183718E+02 -0.15424739789E+02  0.26615305465E+02  0.51100000000E-03 0.  1.
        -12    1    4    4    0    0  0.20972986490E+01  0.44753278698E+01  0.11952124636E+02  0.12933696474E+02  0.00000000000E+00 0.  1.
</event>
<event>
 8    1  0.1240174E-006  0.9118800E+02  0.7816164E-02  0.1184000E+00
        -11   -1    0    0    0    0  0.00000000000E+00  0.00000000000E+00  0.45593999997E+02  0.45594000000E+02  0.51100000000E-03 0.  1.
         11   -1    0    0    0    0 -0.00000000000E+00 -0.00000000000E+00 -0.45593999997E+02  0.45594000000E+02  0.51100000000E-03 0. -1.
         23    2    1    2    0    0  0.71054273576E-14  0.83266726847E-16  0.17763568394E-14  0.91188000000E+02  0.91188000000E+02 0.  0.
    9900012    2    3    3    0    0  0.35301640003E+02 -0.68876342116E-01 -0.10467520315E+02  0.54367088654E+02  0.40000010204E+02 0.  0.
         12    1    3    3    0    0 -0.35301640003E+02  0.68876342116E-01  0.10467520315E+02  0.36820911346E+02  0.00000000000E+00 0. -1.
         11    1    4    4    0    0  0.42339102957E+00 -0.38259518065E+01  0.18340382609E+01  0.42639024136E+01  0.51100000000E-03 0. -1.
        -11    1    4    4    0    0  0.27053159224E+01  0.34555109331E+00  0.10288442226E+02  0.10643786145E+02  0.51100000000E-03 0.  1.
        -12    1    4    4    0    0  0.32172933051E+02  0.34115243710E+01 -0.22590000802E+02  0.39459400095E+02  0.00000000000E+00 0.  1.
</event>
<event>
 8    1  0.1240174E-006  0.9118800E+02  0.7816164E-02  0.1184000E+00
        -11   -1    0    0    0    0  0.00000000000E+00  0.00000000000E+00  0.45593999997E+02  0.45594000000E+02  0.51100000000E-03 0.  1.
         11   -1    0    0    0    0 -0.00000000000E+00 -0.00000000000E+00 -0.45593999997E+02  0.45594000000E+02  0.51100000000E-03 0. -1.
         23    2    1    2    0    0  0.00000000000E+00  0.44408920985E-15  0.00000000000E+00  0.91188000000E+02  0.91188000000E+02 0.  0.
    9900012    2    3    3    0    0  0.84888157886E+01 -0.92531932608E+00 -0.35817072224E+02  0.54367097349E+02  0.40000030027E+02 0.  0.
        -12    1    3    3    0    0 -0.84888157886E+01  0.92531932608E+00  0.35817072224E+02  0.36820902651E+02  0.00000000000E+00 0.  1.
         11    1    4    4    0    0  0.15782608146E+02  0.24747447009E+01 -0.20733162473E+02  0.26174015886E+02  0.51100000000E-03 0. -1.
        -11    1    4    4    0    0  0.94373128698E+00 -0.11460671389E+02 -0.11143290341E+02  0.16012824152E+02  0.51100000000E-03 0.  1.
         12    1    4    4    0    0 -0.82375236442E+01  0.80606073621E+01 -0.39406194096E+01  0.12180257311E+02  0.00000000000E+00 0. -1.
</event>
<event>
 8    1  0.1240174E-006  0.9118800E+02  0.7816164E-02  0.1184000E+00
        -11   -1    0    0    0    0  0.00000000000E+00  0.00000000000E+00  0.45593999997E+02  0.45594000000E+02  0.51100000000E-03 0.  1.
         11   -1    0    0    0    0 -0.00000000000E+00 -0.00000000000E+00 -0.45593999997E+02  0.45594000000E+02  0.51100000000E-03 0. -1.
         23    2    1    2    0    0  0.17763568394E-14 -0.17763568394E-14 -0.71054273576E-14  0.91188000000E+02  0.91188000000E+02 0.  0.
    9900012    2    3    3    0    0  0.12349172809E+02 -0.10382262813E+02 -0.33098126853E+02  0.54367089482E+02  0.40000012092E+02 0.  0.
        -12    1    3    3    0    0 -0.12349172809E+02  0.10382262813E+02  0.33098126853E+02  0.36820910518E+02  0.00000000000E+00 0.  1.
         11    1    4    4    0    0  0.95047024070E+01  0.47434662010E+00 -0.10998212583E+02  0.14543900881E+02  0.51100000000E-03 0. -1.
        -11    1    4    4    0    0  0.48974043980E+01 -0.44804312189E+00 -0.27487868074E+02  0.27924329965E+02  0.51100000000E-03 0.  1.
        -12    1    4    4    0    0 -0.20529339958E+01 -0.10408566311E+02  0.53879538037E+01  0.11898858635E+02  0.00000000000E+00 0.  1.
</event>
<event>
 8    1  0.1240174E-006  0.9118800E+02  0.7816164E-02  0.1184000E+00
        -11   -1    0    0    0    0  0.00000000000E+00  0.00000000000E+00  0.45593999997E+02  0.45594000000E+02  0.51100000000E-03 0.  1.
         11   -1    0    0    0    0 -0.00000000000E+00 -0.00000000000E+00 -0.45593999997E+02  0.45594000000E+02  0.51100000000E-03 0. -1.
         23    2    1    2    0    0  0.00000000000E+00  0.35527136788E-14  0.00000000000E+00  0.91188000000E+02  0.91188000000E+02 0.  0.
    9900012    2    3    3    0    0  0.35872899504E+01 -0.13147490320E+02  0.34206067212E+02  0.54367079520E+02  0.39999989381E+02 0.  0.
         12    1    3    3    0    0 -0.35872899504E+01  0.13147490320E+02 -0.34206067212E+02  0.36820920480E+02  0.00000000000E+00 0. -1.
         11    1    4    4    0    0 -0.47073293510E+01  0.78141393400E+01  0.47033019251E+01  0.10263565292E+02  0.51100000000E-03 0. -1.
        -11    1    4    4    0    0  0.21042267936E+01  0.52993856718E+01  0.65154857623E+01  0.86581068299E+01  0.51100000000E-03 0.  1.
        -12    1    4    4    0    0  0.61903925077E+01 -0.26261015332E+02  0.22987279524E+02  0.35445407398E+02  0.00000000000E+00 0.  1.
</event>
<event>
 8    1  0.1240174E-006  0.9118800E+02  0.7816164E-02  0.1184000E+00
        -11   -1    0    0    0    0  0.00000000000E+00  0.00000000000E+00  0.45593999997E+02  0.45594000000E+02  0.51100000000E-03 0. -1.
         11   -1    0    0    0    0 -0.00000000000E+00 -0.00000000000E+00 -0.45593999997E+02  0.45594000000E+02  0.51100000000E-03 0.  1.
         23    2    1    2    0    0  0.00000000000E+00  0.00000000000E+00  0.00000000000E+00  0.91188000000E+02  0.91188000000E+02 0.  0.
    9900012    2    3    3    0    0 -0.16706890559E+02  0.21856636793E+02  0.24473390336E+02  0.54367087483E+02  0.40000007535E+02 0.  0.
        -12    1    3    3    0    0  0.16706890559E+02 -0.21856636793E+02 -0.24473390336E+02  0.36820912517E+02  0.00000000000E+00 0.  1.
         11    1    4    4    0    0 -0.18332073204E+02  0.18017804067E+02  0.12932322270E+02  0.28774139968E+02  0.51100000000E-03 0. -1.
        -11    1    4    4    0    0 -0.56930593303E+01  0.48839445241E+01 -0.39141342146E+01  0.84607497046E+01  0.51100000000E-03 0.  1.
         12    1    4    4    0    0  0.73182419752E+01 -0.10451117981E+01  0.15455202280E+02  0.17132197810E+02  0.00000000000E+00 0. -1.
</event>
<event>
 8    1  0.1240174E-006  0.9118800E+02  0.7816164E-02  0.1184000E+00
        -11   -1    0    0    0    0  0.00000000000E+00  0.00000000000E+00  0.45593999997E+02  0.45594000000E+02  0.51100000000E-03 0.  1.
         11   -1    0    0    0    0 -0.00000000000E+00 -0.00000000000E+00 -0.45593999997E+02  0.45594000000E+02  0.51100000000E-03 0. -1.
         23    2    1    2    0    0 -0.71054273576E-14 -0.17763568394E-14  0.00000000000E+00  0.91188000000E+02  0.91188000000E+02 0.  0.
    9900012    2    3    3    0    0 -0.33545839750E+02  0.12037498064E+02  0.92499110119E+01  0.54367006288E+02  0.39999822435E+02 0.  0.
         12    1    3    3    0    0  0.33545839750E+02 -0.12037498064E+02 -0.92499110119E+01  0.36820993712E+02  0.00000000000E+00 0. -1.
         11    1    4    4    0    0 -0.24994584852E+02  0.60682710295E+01 -0.98552717313E+00  0.25739550293E+02  0.51100000000E-03 0. -1.
        -11    1    4    4    0    0 -0.67487287273E+01  0.15480352860E+02  0.49493809940E+01  0.17597813404E+02  0.51100000000E-03 0.  1.
        -12    1    4    4    0    0 -0.18025261715E+01 -0.95111258258E+01  0.52860571910E+01  0.11029642592E+02  0.00000000000E+00 0.  1.
</event>
<event>
 8    1  0.1240174E-006  0.9118800E+02  0.7816164E-02  0.1184000E+00
        -11   -1    0    0    0    0  0.00000000000E+00  0.00000000000E+00  0.45593999997E+02  0.45594000000E+02  0.51100000000E-03 0.  1.
         11   -1    0    0    0    0 -0.00000000000E+00 -0.00000000000E+00 -0.45593999997E+02  0.45594000000E+02  0.51100000000E-03 0. -1.
         23    2    1    2    0    0 -0.35527136788E-14  0.00000000000E+00  0.35527136788E-14  0.91188000000E+02  0.91188000000E+02 0.  0.
    9900012    2    3    3    0    0  0.22612008791E+02  0.13238366900E+02 -0.25869319772E+02  0.54367095540E+02  0.40000025903E+02 0.  0.
        -12    1    3    3    0    0 -0.22612008791E+02 -0.13238366900E+02  0.25869319772E+02  0.36820904460E+02  0.00000000000E+00 0.  1.
         11    1    4    4    0    0  0.10547830713E+02  0.10797678609E+02  0.75795984975E+00  0.15113606436E+02  0.51100000000E-03 0. -1.
        -11    1    4    4    0    0  0.17962464529E+02  0.56788179209E+01 -0.10026302833E+02  0.21340708838E+02  0.51100000000E-03 0.  1.
        -12    1    4    4    0    0 -0.58982864508E+01 -0.32381296302E+01 -0.16600976788E+02  0.17912780267E+02  0.00000000000E+00 0.  1.
</event>
<event>
 8    1  0.1240174E-006  0.9118800E+02  0.7816164E-02  0.1184000E+00
        -11   -1    0    0    0    0  0.00000000000E+00  0.00000000000E+00  0.45593999997E+02  0.45594000000E+02  0.51100000000E-03 0. -1.
         11   -1    0    0    0    0 -0.00000000000E+00 -0.00000000000E+00 -0.45593999997E+02  0.45594000000E+02  0.51100000000E-03 0.  1.
         23    2    1    2    0    0  0.35527136788E-14  0.31086244690E-14  0.00000000000E+00  0.91188000000E+02  0.91188000000E+02 0.  0.
    9900012    2    3    3    0    0  0.22304231730E+02 -0.23057148933E+01  0.29205898764E+02  0.54367087507E+02  0.40000007589E+02 0.  0.
        -12    1    3    3    0    0 -0.22304231730E+02  0.23057148933E+01 -0.29205898764E+02  0.36820912493E+02  0.00000000000E+00 0.  1.
         11    1    4    4    0    0  0.73537316036E+01  0.74533791203E+00  0.16958620900E+02  0.18499397833E+02  0.51100000000E-03 0. -1.
        -11    1    4    4    0    0  0.71597492241E+01  0.12025632212E+02 -0.14342280037E+01  0.14068932059E+02  0.51100000000E-03 0.  1.
        -12    1    4    4    0    0  0.77907509022E+01 -0.15076685017E+02  0.13681505868E+02  0.21798757615E+02  0.00000000000E+00 0.  1.
</event>
<event>
 8    1  0.1240174E-006  0.9118800E+02  0.7816164E-02  0.1184000E+00
        -11   -1    0    0    0    0  0.00000000000E+00  0.00000000000E+00  0.45593999997E+02  0.45594000000E+02  0.51100000000E-03 0.  1.
         11   -1    0    0    0    0 -0.00000000000E+00 -0.00000000000E+00 -0.45593999997E+02  0.45594000000E+02  0.51100000000E-03 0. -1.
         23    2    1    2    0    0  0.00000000000E+00  0.35527136788E-14  0.00000000000E+00  0.91188000000E+02  0.91188000000E+02 0.  0.
    9900012    2    3    3    0    0 -0.27646864762E+02  0.22456603646E+02  0.93344058849E+01  0.54367091378E+02  0.40000016415E+02 0.  0.
         12    1    3    3    0    0  0.27646864762E+02 -0.22456603646E+02 -0.93344058849E+01  0.36820908622E+02  0.00000000000E+00 0. -1.
         11    1    4    4    0    0 -0.14013298644E+02  0.36277423837E+01 -0.12551733874E+02  0.19159307848E+02  0.51100000000E-03 0. -1.
        -11    1    4    4    0    0 -0.12405451863E+02  0.62827114575E+01  0.65950694111E+01  0.15390342426E+02  0.51100000000E-03 0.  1.
        -12    1    4    4    0    0 -0.12281142546E+01  0.12546149805E+02  0.15291070348E+02  0.19817441105E+02  0.00000000000E+00 0.  1.
</event>
<event>
 8    1  0.1240174E-006  0.9118800E+02  0.7816164E-02  0.1184000E+00
        -11   -1    0    0    0    0  0.00000000000E+00  0.00000000000E+00  0.45593999997E+02  0.45594000000E+02  0.51100000000E-03 0. -1.
         11   -1    0    0    0    0 -0.00000000000E+00 -0.00000000000E+00 -0.45593999997E+02  0.45594000000E+02  0.51100000000E-03 0.  1.
         23    2    1    2    0    0  0.00000000000E+00  0.00000000000E+00 -0.35527136788E-14  0.91188000000E+02  0.91188000000E+02 0.  0.
    9900012    2    3    3    0    0  0.24723061863E+02  0.33537772409E+01 -0.27079761166E+02  0.54366931650E+02  0.39999652281E+02 0.  0.
         12    1    3    3    0    0 -0.24723061863E+02 -0.33537772409E+01  0.27079761166E+02  0.36821068350E+02  0.00000000000E+00 0. -1.
         11    1    4    4    0    0  0.42212055376E-01  0.59123586609E+00  0.14639726109E+01  0.15794169094E+01  0.51100000000E-03 0. -1.
        -11    1    4    4    0    0 -0.30084803674E+00  0.13220390541E+02  0.29334700998E+00  0.13227066505E+02  0.51100000000E-03 0.  1.
        -12    1    4    4    0    0  0.24981697844E+02 -0.10457849166E+02 -0.28837080787E+02  0.39560448236E+02  0.00000000000E+00 0.  1.
</event>
<event>
 8    1  0.1240174E-006  0.9118800E+02  0.7816164E-02  0.1184000E+00
        -11   -1    0    0    0    0  0.00000000000E+00  0.00000000000E+00  0.45593999997E+02  0.45594000000E+02  0.51100000000E-03 0. -1.
         11   -1    0    0    0    0 -0.00000000000E+00 -0.00000000000E+00 -0.45593999997E+02  0.45594000000E+02  0.51100000000E-03 0.  1.
         23    2    1    2    0    0  0.00000000000E+00  0.35527136788E-14  0.00000000000E+00  0.91188000000E+02  0.91188000000E+02 0.  0.
    9900012    2    3    3    0    0 -0.11513358352E+02 -0.23636723792E+02 -0.25778436585E+02  0.54367083051E+02  0.39999997431E+02 0.  0.
         12    1    3    3    0    0  0.11513358352E+02  0.23636723792E+02  0.25778436585E+02  0.36820916949E+02  0.00000000000E+00 0. -1.
         11    1    4    4    0    0  0.49614429099E+01 -0.14376695304E+01  0.43879388361E+01  0.67776704639E+01  0.51100000000E-03 0. -1.
        -11    1    4    4    0    0  0.39233046033E+01 -0.85229187706E+01 -0.17734654131E+02  0.20063659207E+02  0.51100000000E-03 0.  1.
         12    1    4    4    0    0 -0.20398105865E+02 -0.13676135491E+02 -0.12431721291E+02  0.27525753380E+02  0.00000000000E+00 0. -1.
</event>
<event>
 8    1  0.1240174E-006  0.9118800E+02  0.7816164E-02  0.1184000E+00
        -11   -1    0    0    0    0  0.00000000000E+00  0.00000000000E+00  0.45593999997E+02  0.45594000000E+02  0.51100000000E-03 0.  1.
         11   -1    0    0    0    0 -0.00000000000E+00 -0.00000000000E+00 -0.45593999997E+02  0.45594000000E+02  0.51100000000E-03 0. -1.
         23    2    1    2    0    0 -0.17763568394E-14  0.17763568394E-14  0.71054273576E-14  0.91188000000E+02  0.91188000000E+02 0.  0.
    9900012    2    3    3    0    0  0.14517996711E+02 -0.88309193521E+01 -0.32665322886E+02  0.54367072739E+02  0.39999973923E+02 0.  0.
        -12    1    3    3    0    0 -0.14517996711E+02  0.88309193521E+01  0.32665322886E+02  0.36820927261E+02  0.00000000000E+00 0.  1.
         11    1    4    4    0    0  0.26322625853E+01 -0.20165557378E+02 -0.12250842663E+02  0.23741559698E+02  0.51100000000E-03 0. -1.
        -11    1    4    4    0    0  0.14035135181E+01 -0.39918245497E+01 -0.31985746917E+01  0.53042807006E+01  0.51100000000E-03 0.  1.
         12    1    4    4    0    0  0.10482220608E+02  0.15326462576E+02 -0.17215905532E+02  0.25321232340E+02  0.00000000000E+00 0. -1.
</event>
<event>
 8    1  0.1240174E-006  0.9118800E+02  0.7816164E-02  0.1184000E+00
        -11   -1    0    0    0    0  0.00000000000E+00  0.00000000000E+00  0.45593999997E+02  0.45594000000E+02  0.51100000000E-03 0.  1.
         11   -1    0    0    0    0 -0.00000000000E+00 -0.00000000000E+00 -0.45593999997E+02  0.45594000000E+02  0.51100000000E-03 0. -1.
         23    2    1    2    0    0 -0.17763568394E-14  0.71054273576E-14 -0.88817841970E-15  0.91188000000E+02  0.91188000000E+02 0.  0.
    9900012    2    3    3    0    0 -0.69086623360E+01  0.35441119341E+02  0.72095208352E+01  0.54367085480E+02  0.40000002969E+02 0.  0.
        -12    1    3    3    0    0  0.69086623360E+01 -0.35441119341E+02 -0.72095208352E+01  0.36820914520E+02  0.00000000000E+00 0.  1.
         11    1    4    4    0    0  0.79394433352E+01  0.65297951747E+01 -0.25713721179E+01  0.10596458858E+02  0.51100000000E-03 0. -1.
        -11    1    4    4    0    0 -0.19753764585E+00  0.25582246783E+01  0.13180459936E+02  0.13427883639E+02  0.51100000000E-03 0.  1.
         12    1    4    4    0    0 -0.14650568025E+02  0.26353099488E+02 -0.33995669830E+01  0.30342742983E+02  0.00000000000E+00 0. -1.
</event>
<event>
 8    1  0.1240174E-006  0.9118800E+02  0.7816164E-02  0.1184000E+00
        -11   -1    0    0    0    0  0.00000000000E+00  0.00000000000E+00  0.45593999997E+02  0.45594000000E+02  0.51100000000E-03 0.  1.
         11   -1    0    0    0    0 -0.00000000000E+00 -0.00000000000E+00 -0.45593999997E+02  0.45594000000E+02  0.51100000000E-03 0. -1.
         23    2    1    2    0    0  0.33306690739E-15  0.00000000000E+00  0.00000000000E+00  0.91188000000E+02  0.91188000000E+02 0.  0.
    9900012    2    3    3    0    0  0.60493376384E+00 -0.36799199057E+02 -0.11108099429E+01  0.54367069881E+02  0.39999967407E+02 0.  0.
        -12    1    3    3    0    0 -0.60493376384E+00  0.36799199057E+02  0.11108099429E+01  0.36820930119E+02  0.00000000000E+00 0.  1.
         11    1    4    4    0    0 -0.78650030974E+01 -0.10150244663E+02  0.54609978487E+01  0.13953789385E+02  0.51100000000E-03 0. -1.
        -11    1    4    4    0    0  0.11289698962E+02  0.59141764172E+00 -0.64730406020E+01  0.13027176685E+02  0.51100000000E-03 0.  1.
         12    1    4    4    0    0 -0.28197621007E+01 -0.27240372036E+02 -0.98767189644E-01  0.27386103811E+02  0.00000000000E+00 0. -1.
</event>
<event>
 8    1  0.1240174E-006  0.9118800E+02  0.7816164E-02  0.1184000E+00
        -11   -1    0    0    0    0  0.00000000000E+00  0.00000000000E+00  0.45593999997E+02  0.45594000000E+02  0.51100000000E-03 0.  1.
         11   -1    0    0    0    0 -0.00000000000E+00 -0.00000000000E+00 -0.45593999997E+02  0.45594000000E+02  0.51100000000E-03 0. -1.
         23    2    1    2    0    0  0.88817841970E-15  0.00000000000E+00  0.00000000000E+00  0.91188000000E+02  0.91188000000E+02 0.  0.
    9900012    2    3    3    0    0  0.71270280585E+01 -0.31122836502E+02  0.18340045202E+02  0.54367044840E+02  0.39999910322E+02 0.  0.
         12    1    3    3    0    0 -0.71270280585E+01  0.31122836502E+02 -0.18340045202E+02  0.36820955160E+02  0.00000000000E+00 0. -1.
         11    1    4    4    0    0  0.98407011250E+01 -0.17195935114E+02  0.21906064471E+01  0.19933347434E+02  0.51100000000E-03 0. -1.
        -11    1    4    4    0    0  0.11561300818E+02 -0.29463818509E+01  0.94441002830E+01  0.15216302870E+02  0.51100000000E-03 0.  1.
        -12    1    4    4    0    0 -0.14274973885E+02 -0.10980519537E+02  0.67053384723E+01  0.19217394536E+02  0.00000000000E+00 0.  1.
</event>
<event>
 8    1  0.1240174E-006  0.9118800E+02  0.7816164E-02  0.1184000E+00
        -11   -1    0    0    0    0  0.00000000000E+00  0.00000000000E+00  0.45593999997E+02  0.45594000000E+02  0.51100000000E-03 0.  1.
         11   -1    0    0    0    0 -0.00000000000E+00 -0.00000000000E+00 -0.45593999997E+02  0.45594000000E+02  0.51100000000E-03 0. -1.
         23    2    1    2    0    0  0.00000000000E+00  0.00000000000E+00 -0.35527136788E-14  0.91188000000E+02  0.91188000000E+02 0.  0.
    9900012    2    3    3    0    0  0.85124601024E+00  0.20797230764E+02  0.30373217921E+02  0.54367057670E+02  0.39999939569E+02 0.  0.
         12    1    3    3    0    0 -0.85124601024E+00 -0.20797230764E+02 -0.30373217921E+02  0.36820942330E+02  0.00000000000E+00 0. -1.
         11    1    4    4    0    0  0.44065179785E+01 -0.45853925630E+01 -0.47650150827E+01  0.79466090033E+01  0.51100000000E-03 0. -1.
        -11    1    4    4    0    0  0.57152061063E+01  0.11315356868E+02  0.20495895005E+02  0.24099431409E+02  0.51100000000E-03 0.  1.
        -12    1    4    4    0    0 -0.92704780746E+01  0.14067266459E+02  0.14642337998E+02  0.22321017257E+02  0.00000000000E+00 0.  1.
</event>
<event>
 8    1  0.1240174E-006  0.9118800E+02  0.7816164E-02  0.1184000E+00
        -11   -1    0    0    0    0  0.00000000000E+00  0.00000000000E+00  0.45593999997E+02  0.45594000000E+02  0.51100000000E-03 0.  1.
         11   -1    0    0    0    0 -0.00000000000E+00 -0.00000000000E+00 -0.45593999997E+02  0.45594000000E+02  0.51100000000E-03 0. -1.
         23    2    1    2    0    0  0.35527136788E-14  0.00000000000E+00  0.00000000000E+00  0.91188000000E+02  0.91188000000E+02 0.  0.
    9900012    2    3    3    0    0  0.18466742578E+02 -0.25962484423E+02  0.18458304575E+02  0.54367079498E+02  0.39999989331E+02 0.  0.
         12    1    3    3    0    0 -0.18466742578E+02  0.25962484423E+02 -0.18458304575E+02  0.36820920502E+02  0.00000000000E+00 0. -1.
         11    1    4    4    0    0  0.23975133667E+02 -0.21648739456E+02  0.38988052322E+01  0.32537296090E+02  0.51100000000E-03 0. -1.
        -11    1    4    4    0    0 -0.36541001902E+01 -0.97713132469E+01  0.83972739457E+01  0.13391983451E+02  0.51100000000E-03 0.  1.
         12    1    4    4    0    0 -0.18542908987E+01  0.54575682798E+01  0.61622253968E+01  0.84377999565E+01  0.00000000000E+00 0. -1.
</event>
<event>
 8    1  0.1240174E-006  0.9118800E+02  0.7816164E-02  0.1184000E+00
        -11   -1    0    0    0    0  0.00000000000E+00  0.00000000000E+00  0.45593999997E+02  0.45594000000E+02  0.51100000000E-03 0. -1.
         11   -1    0    0    0    0 -0.00000000000E+00 -0.00000000000E+00 -0.45593999997E+02  0.45594000000E+02  0.51100000000E-03 0.  1.
         23    2    1    2    0    0  0.00000000000E+00  0.00000000000E+00  0.00000000000E+00  0.91188000000E+02  0.91188000000E+02 0.  0.
    9900012    2    3    3    0    0 -0.31952900218E+02 -0.10385006647E+02 -0.15064072214E+02  0.54367320117E+02  0.40000537866E+02 0.  0.
         12    1    3    3    0    0  0.31952900218E+02  0.10385006647E+02  0.15064072214E+02  0.36820679883E+02  0.00000000000E+00 0. -1.
         11    1    4    4    0    0 -0.26823683606E+01 -0.13451626373E+01  0.76439004841E+00  0.30965876299E+01  0.51100000000E-03 0. -1.
        -11    1    4    4    0    0 -0.20747364550E+02 -0.10000776297E+02 -0.28078605327E+02  0.36316342598E+02  0.51100000000E-03 0.  1.
        -12    1    4    4    0    0 -0.85231673076E+01  0.96093228759E+00  0.12250143065E+02  0.14954389889E+02  0.00000000000E+00 0.  1.
</event>
<event>
 8    1  0.1240174E-006  0.9118800E+02  0.7816164E-02  0.1184000E+00
        -11   -1    0    0    0    0  0.00000000000E+00  0.00000000000E+00  0.45593999997E+02  0.45594000000E+02  0.51100000000E-03 0.  1.
         11   -1    0    0    0    0 -0.00000000000E+00 -0.00000000000E+00 -0.45593999997E+02  0.45594000000E+02  0.51100000000E-03 0. -1.
         23    2    1    2    0    0  0.00000000000E+00  0.00000000000E+00  0.00000000000E+00  0.91188000000E+02  0.91188000000E+02 0.  0.
    9900012    2    3    3    0    0  0.23992689561E+02  0.20541373939E+02 -0.18925731179E+02  0.54367075292E+02  0.39999979744E+02 0.  0.
        -12    1    3    3    0    0 -0.23992689561E+02 -0.20541373939E+02  0.18925731179E+02  0.36820924708E+02  0.00000000000E+00 0.  1.
         11    1    4    4    0    0  0.16635253725E+02  0.79080232941E+01 -0.16494149225E+02  0.24724996619E+02  0.51100000000E-03 0. -1.
        -11    1    4    4    0    0 -0.32177007705E+01  0.66690765500E+01  0.98827526849E+01  0.12349047784E+02  0.51100000000E-03 0.  1.
        -12    1    4    4    0    0  0.10575136606E+02  0.59642740946E+01 -0.12314334639E+02  0.17293030889E+02  0.00000000000E+00 0.  1.
</event>
<event>
 8    1  0.1240174E-006  0.9118800E+02  0.7816164E-02  0.1184000E+00
        -11   -1    0    0    0    0  0.00000000000E+00  0.00000000000E+00  0.45593999997E+02  0.45594000000E+02  0.51100000000E-03 0.  1.
         11   -1    0    0    0    0 -0.00000000000E+00 -0.00000000000E+00 -0.45593999997E+02  0.45594000000E+02  0.51100000000E-03 0. -1.
         23    2    1    2    0    0  0.35527136788E-14  0.00000000000E+00  0.17763568394E-14  0.91188000000E+02  0.91188000000E+02 0.  0.
    9900012    2    3    3    0    0  0.29581668669E+02  0.18597516277E+02  0.11611920515E+02  0.54367089759E+02  0.40000012725E+02 0.  0.
         12    1    3    3    0    0 -0.29581668669E+02 -0.18597516277E+02 -0.11611920515E+02  0.36820910241E+02  0.00000000000E+00 0. -1.
         11    1    4    4    0    0  0.28186827799E+02  0.65518303149E+01 -0.58446836396E+00  0.28944176364E+02  0.51100000000E-03 0. -1.
        -11    1    4    4    0    0  0.72645994519E+01 -0.77469269192E+00  0.91060822614E+00  0.73623203928E+01  0.51100000000E-03 0.  1.
         12    1    4    4    0    0 -0.58697585829E+01  0.12820378654E+02  0.11285780653E+02  0.18060593002E+02  0.00000000000E+00 0. -1.
</event>
<event>
 8    1  0.1240174E-006  0.9118800E+02  0.7816164E-02  0.1184000E+00
        -11   -1    0    0    0    0  0.00000000000E+00  0.00000000000E+00  0.45593999997E+02  0.45594000000E+02  0.51100000000E-03 0.  1.
         11   -1    0    0    0    0 -0.00000000000E+00 -0.00000000000E+00 -0.45593999997E+02  0.45594000000E+02  0.51100000000E-03 0. -1.
         23    2    1    2    0    0  0.44408920985E-15  0.00000000000E+00  0.00000000000E+00  0.91188000000E+02  0.91188000000E+02 0.  0.
    9900012    2    3    3    0    0  0.26378850266E+01 -0.21134436559E+02  0.30035996971E+02  0.54367028257E+02  0.39999872517E+02 0.  0.
         12    1    3    3    0    0 -0.26378850266E+01  0.21134436559E+02 -0.30035996971E+02  0.36820971743E+02  0.00000000000E+00 0. -1.
         11    1    4    4    0    0 -0.28082455556E+01 -0.24530401521E+02  0.17421577931E+02  0.30218176976E+02  0.51100000000E-03 0. -1.
        -11    1    4    4    0    0  0.75867529193E-01 -0.42831692627E+00  0.16493695374E+02  0.16499430251E+02  0.51100000000E-03 0.  1.
         12    1    4    4    0    0  0.53702630531E+01  0.38242818883E+01 -0.38792763335E+01  0.76494210298E+01  0.00000000000E+00 0. -1.
</event>
<event>
 8    1  0.1240174E-006  0.9118800E+02  0.7816164E-02  0.1184000E+00
        -11   -1    0    0    0    0  0.00000000000E+00  0.00000000000E+00  0.45593999997E+02  0.45594000000E+02  0.51100000000E-03 0.  1.
         11   -1    0    0    0    0 -0.00000000000E+00 -0.00000000000E+00 -0.45593999997E+02  0.45594000000E+02  0.51100000000E-03 0. -1.
         23    2    1    2    0    0 -0.71054273576E-14  0.00000000000E+00  0.00000000000E+00  0.91188000000E+02  0.91188000000E+02 0.  0.
    9900012    2    3    3    0    0 -0.33830860956E+02 -0.12336842581E+02 -0.76847474371E+01  0.54367079573E+02  0.39999989502E+02 0.  0.
         12    1    3    3    0    0  0.33830860956E+02  0.12336842581E+02  0.76847474371E+01  0.36820920427E+02  0.00000000000E+00 0. -1.
         11    1    4    4    0    0  0.39921373486E+00  0.65893570349E+01  0.43829390159E+01  0.79239606522E+01  0.51100000000E-03 0. -1.
        -11    1    4    4    0    0 -0.30241670073E+01 -0.64269129729E+00 -0.97194906834E+01  0.10199369471E+02  0.51100000000E-03 0.  1.
        -12    1    4    4    0    0 -0.31205907684E+02 -0.18283508319E+02 -0.23481957696E+01  0.36243749450E+02  0.00000000000E+00 0.  1.
</event>
<event>
 8    1  0.1240174E-006  0.9118800E+02  0.7816164E-02  0.1184000E+00
        -11   -1    0    0    0    0  0.00000000000E+00  0.00000000000E+00  0.45593999997E+02  0.45594000000E+02  0.51100000000E-03 0.  1.
         11   -1    0    0    0    0 -0.00000000000E+00 -0.00000000000E+00 -0.45593999997E+02  0.45594000000E+02  0.51100000000E-03 0. -1.
         23    2    1    2    0    0 -0.35527136788E-14  0.17763568394E-14  0.00000000000E+00  0.91188000000E+02  0.91188000000E+02 0.  0.
    9900012    2    3    3    0    0 -0.13217616596E+02  0.10553352030E+02 -0.32706283625E+02  0.54367087245E+02  0.40000006992E+02 0.  0.
        -12    1    3    3    0    0  0.13217616596E+02 -0.10553352030E+02  0.32706283625E+02  0.36820912755E+02  0.00000000000E+00 0.  1.
         11    1    4    4    0    0  0.11775375704E+02  0.12442426776E+01 -0.51265298086E+01  0.12903058589E+02  0.51100000000E-03 0. -1.
        -11    1    4    4    0    0 -0.39619237955E+01  0.11911031798E+01  0.17326928739E+01  0.44852861450E+01  0.51100000000E-03 0.  1.
         12    1    4    4    0    0 -0.21031068505E+02  0.81180061728E+01 -0.29312446690E+02  0.36978742511E+02  0.00000000000E+00 0. -1.
</event>
<event>
 8    1  0.1240174E-006  0.9118800E+02  0.7816164E-02  0.1184000E+00
        -11   -1    0    0    0    0  0.00000000000E+00  0.00000000000E+00  0.45593999997E+02  0.45594000000E+02  0.51100000000E-03 0.  1.
         11   -1    0    0    0    0 -0.00000000000E+00 -0.00000000000E+00 -0.45593999997E+02  0.45594000000E+02  0.51100000000E-03 0. -1.
         23    2    1    2    0    0  0.35527136788E-14  0.00000000000E+00  0.35527136788E-14  0.91188000000E+02  0.91188000000E+02 0.  0.
    9900012    2    3    3    0    0 -0.12139899175E+02 -0.18625191448E+02 -0.29351392298E+02  0.54367093734E+02  0.40000021785E+02 0.  0.
        -12    1    3    3    0    0  0.12139899175E+02  0.18625191448E+02  0.29351392298E+02  0.36820906266E+02  0.00000000000E+00 0.  1.
         11    1    4    4    0    0 -0.74881970504E+01  0.51362065501E+01 -0.19615951780E+02  0.21615718292E+02  0.51100000000E-03 0. -1.
        -11    1    4    4    0    0  0.64448993537E+01 -0.59112823807E+01 -0.76696148033E+01  0.11631980853E+02  0.51100000000E-03 0.  1.
        -12    1    4    4    0    0 -0.11096601478E+02 -0.17850115617E+02 -0.20658257146E+01  0.21119394589E+02  0.00000000000E+00 0.  1.
</event>
<event>
 8    1  0.1240174E-006  0.9118800E+02  0.7816164E-02  0.1184000E+00
        -11   -1    0    0    0    0  0.00000000000E+00  0.00000000000E+00  0.45593999997E+02  0.45594000000E+02  0.51100000000E-03 0.  1.
         11   -1    0    0    0    0 -0.00000000000E+00 -0.00000000000E+00 -0.45593999997E+02  0.45594000000E+02  0.51100000000E-03 0. -1.
         23    2    1    2    0    0  0.71054273576E-14  0.88817841970E-15  0.00000000000E+00  0.91188000000E+02  0.91188000000E+02 0.  0.
    9900012    2    3    3    0    0 -0.35251334416E+02 -0.62633744996E+01 -0.85961891619E+01  0.54367069725E+02  0.39999967052E+02 0.  0.
        -12    1    3    3    0    0  0.35251334416E+02  0.62633744996E+01  0.85961891619E+01  0.36820930275E+02  0.00000000000E+00 0.  1.
         11    1    4    4    0    0 -0.10860365301E+02 -0.49136116128E+01 -0.34312430507E+01  0.12404214715E+02  0.51100000000E-03 0.  1.
        -11    1    4    4    0    0 -0.27305965858E+02  0.10414749699E+02 -0.59231394824E+01  0.29818892741E+02  0.51100000000E-03 0. -1.
         12    1    4    4    0    0  0.29149967432E+01 -0.11764512586E+02  0.75819337118E+00  0.12143962269E+02  0.00000000000E+00 0. -1.
</event>
<event>
 8    1  0.1240174E-006  0.9118800E+02  0.7816164E-02  0.1184000E+00
        -11   -1    0    0    0    0  0.00000000000E+00  0.00000000000E+00  0.45593999997E+02  0.45594000000E+02  0.51100000000E-03 0. -1.
         11   -1    0    0    0    0 -0.00000000000E+00 -0.00000000000E+00 -0.45593999997E+02  0.45594000000E+02  0.51100000000E-03 0.  1.
         23    2    1    2    0    0  0.00000000000E+00  0.00000000000E+00  0.00000000000E+00  0.91188000000E+02  0.91188000000E+02 0.  0.
    9900012    2    3    3    0    0 -0.23284100992E+02 -0.13554438486E+02  0.25097943735E+02  0.54367096407E+02  0.40000027879E+02 0.  0.
        -12    1    3    3    0    0  0.23284100992E+02  0.13554438486E+02 -0.25097943735E+02  0.36820903593E+02  0.00000000000E+00 0.  1.
         11    1    4    4    0    0 -0.67540863056E+01 -0.18477311375E+02 -0.13101727285E+01  0.19716624212E+02  0.51100000000E-03 0.  1.
        -11    1    4    4    0    0 -0.17822363018E+02  0.66068240265E+01  0.18733281358E+02  0.26687498533E+02  0.51100000000E-03 0. -1.
        -12    1    4    4    0    0  0.12923483310E+01 -0.16839511374E+01  0.76748351057E+01  0.79629736619E+01  0.00000000000E+00 0.  1.
</event>
<event>
 8    1  0.1240174E-006  0.9118800E+02  0.7816164E-02  0.1184000E+00
        -11   -1    0    0    0    0  0.00000000000E+00  0.00000000000E+00  0.45593999997E+02  0.45594000000E+02  0.51100000000E-03 0. -1.
         11   -1    0    0    0    0 -0.00000000000E+00 -0.00000000000E+00 -0.45593999997E+02  0.45594000000E+02  0.51100000000E-03 0.  1.
         23    2    1    2    0    0  0.88817841970E-15  0.00000000000E+00  0.00000000000E+00  0.91188000000E+02  0.91188000000E+02 0.  0.
    9900012    2    3    3    0    0 -0.76603278140E+01  0.21304508159E+02 -0.29038207100E+02  0.54367079836E+02  0.39999990103E+02 0.  0.
         12    1    3    3    0    0  0.76603278140E+01 -0.21304508159E+02  0.29038207100E+02  0.36820920164E+02  0.00000000000E+00 0. -1.
         11    1    4    4    0    0 -0.10781868064E+02  0.27273318956E+02 -0.10890068479E+02  0.31283800881E+02  0.51100000000E-03 0. -1.
        -11    1    4    4    0    0 -0.32202906969E+01  0.12859830085E+01 -0.95825210005E+01  0.10190619876E+02  0.51100000000E-03 0.  1.
         12    1    4    4    0    0  0.63418309468E+01 -0.72547938056E+01 -0.85656176209E+01  0.12892659080E+02  0.00000000000E+00 0. -1.
</event>
<event>
 8    1  0.1240174E-006  0.9118800E+02  0.7816164E-02  0.1184000E+00
        -11   -1    0    0    0    0  0.00000000000E+00  0.00000000000E+00  0.45593999997E+02  0.45594000000E+02  0.51100000000E-03 0.  1.
         11   -1    0    0    0    0 -0.00000000000E+00 -0.00000000000E+00 -0.45593999997E+02  0.45594000000E+02  0.51100000000E-03 0. -1.
         23    2    1    2    0    0  0.17763568394E-14  0.00000000000E+00  0.44408920985E-15  0.91188000000E+02  0.91188000000E+02 0.  0.
    9900012    2    3    3    0    0 -0.74575463891E+01 -0.35985812838E+02  0.22777752213E+01  0.54367055095E+02  0.39999933700E+02 0.  0.
         12    1    3    3    0    0  0.74575463891E+01  0.35985812838E+02 -0.22777752213E+01  0.36820944905E+02  0.00000000000E+00 0. -1.
         11    1    4    4    0    0  0.54669229603E+01 -0.21249104754E+02  0.11911200561E+01  0.21973403623E+02  0.51100000000E-03 0. -1.
        -11    1    4    4    0    0  0.19314637752E+01 -0.19283495934E+01  0.10348127996E+02  0.10702001577E+02  0.51100000000E-03 0.  1.
         12    1    4    4    0    0 -0.14855933125E+02 -0.12808358490E+02 -0.92614728304E+01  0.21691649896E+02  0.00000000000E+00 0. -1.
</event>
<event>
 8    1  0.1240174E-006  0.9118800E+02  0.7816164E-02  0.1184000E+00
        -11   -1    0    0    0    0  0.00000000000E+00  0.00000000000E+00  0.45593999997E+02  0.45594000000E+02  0.51100000000E-03 0. -1.
         11   -1    0    0    0    0 -0.00000000000E+00 -0.00000000000E+00 -0.45593999997E+02  0.45594000000E+02  0.51100000000E-03 0.  1.
         23    2    1    2    0    0 -0.35527136788E-14  0.00000000000E+00  0.00000000000E+00  0.91188000000E+02  0.91188000000E+02 0.  0.
    9900012    2    3    3    0    0  0.16686502040E+02 -0.19364441055E+02 -0.26502052289E+02  0.54367086062E+02  0.40000004296E+02 0.  0.
         12    1    3    3    0    0 -0.16686502040E+02  0.19364441055E+02  0.26502052289E+02  0.36820913938E+02  0.00000000000E+00 0. -1.
         11    1    4    4    0    0 -0.42202467778E+01  0.69295342159E+01 -0.70193007273E+01  0.10728443982E+02  0.51100000000E-03 0. -1.
        -11    1    4    4    0    0  0.24829637595E+01 -0.40050424870E+01 -0.13241656201E+02  0.14055139045E+02  0.51100000000E-03 0.  1.
         12    1    4    4    0    0  0.18423785059E+02 -0.22288932784E+02 -0.62410953599E+01  0.29583503035E+02  0.00000000000E+00 0. -1.
</event>
<event>
 8    1  0.1240174E-006  0.9118800E+02  0.7816164E-02  0.1184000E+00
        -11   -1    0    0    0    0  0.00000000000E+00  0.00000000000E+00  0.45593999997E+02  0.45594000000E+02  0.51100000000E-03 0.  1.
         11   -1    0    0    0    0 -0.00000000000E+00 -0.00000000000E+00 -0.45593999997E+02  0.45594000000E+02  0.51100000000E-03 0. -1.
         23    2    1    2    0    0 -0.35527136788E-14  0.35527136788E-14  0.44408920985E-15  0.91188000000E+02  0.91188000000E+02 0.  0.
    9900012    2    3    3    0    0 -0.29481953949E+02  0.21885363875E+02  0.27613119334E+01  0.54367087406E+02  0.40000007360E+02 0.  0.
         12    1    3    3    0    0  0.29481953949E+02 -0.21885363875E+02 -0.27613119334E+01  0.36820912594E+02  0.00000000000E+00 0. -1.
         11    1    4    4    0    0  0.26304313894E+01 -0.32491828512E+01  0.89195647641E+01  0.98506342099E+01  0.51100000000E-03 0. -1.
        -11    1    4    4    0    0 -0.20886053820E+02  0.65206796189E+01  0.15561042144E+00  0.21880830005E+02  0.51100000000E-03 0.  1.
         12    1    4    4    0    0 -0.11226331519E+02  0.18613867108E+02 -0.63138632521E+01  0.22635623191E+02  0.00000000000E+00 0. -1.
</event>
<event>
 8    1  0.1240174E-006  0.9118800E+02  0.7816164E-02  0.1184000E+00
        -11   -1    0    0    0    0  0.00000000000E+00  0.00000000000E+00  0.45593999997E+02  0.45594000000E+02  0.51100000000E-03 0.  1.
         11   -1    0    0    0    0 -0.00000000000E+00 -0.00000000000E+00 -0.45593999997E+02  0.45594000000E+02  0.51100000000E-03 0. -1.
         23    2    1    2    0    0  0.00000000000E+00  0.00000000000E+00  0.35527136788E-14  0.91188000000E+02  0.91188000000E+02 0.  0.
    9900012    2    3    3    0    0 -0.12233789985E+01 -0.31873947459E+02 -0.18393980101E+02  0.54367031969E+02  0.39999880980E+02 0.  0.
        -12    1    3    3    0    0  0.12233789985E+01  0.31873947459E+02  0.18393980101E+02  0.36820968031E+02  0.00000000000E+00 0.  1.
         11    1    4    4    0    0 -0.88254588713E+00  0.23256626830E+01 -0.17932852212E+01  0.30665071831E+01  0.51100000000E-03 0. -1.
        -11    1    4    4    0    0 -0.77425467294E+00 -0.21181164335E+02  0.86465822433E+01  0.22891146271E+02  0.51100000000E-03 0.  1.
        -12    1    4    4    0    0  0.43342156154E+00 -0.13018445807E+02 -0.25247277123E+02  0.28409378515E+02  0.00000000000E+00 0.  1.
</event>
<event>
 8    1  0.1240174E-006  0.9118800E+02  0.7816164E-02  0.1184000E+00
        -11   -1    0    0    0    0  0.00000000000E+00  0.00000000000E+00  0.45593999997E+02  0.45594000000E+02  0.51100000000E-03 0. -1.
         11   -1    0    0    0    0 -0.00000000000E+00 -0.00000000000E+00 -0.45593999997E+02  0.45594000000E+02  0.51100000000E-03 0.  1.
         23    2    1    2    0    0  0.00000000000E+00  0.35527136788E-14  0.00000000000E+00  0.91188000000E+02  0.91188000000E+02 0.  0.
    9900012    2    3    3    0    0  0.24954290376E+02  0.19419456886E+02 -0.18866568806E+02  0.54367091097E+02  0.40000015773E+02 0.  0.
         12    1    3    3    0    0 -0.24954290376E+02 -0.19419456886E+02  0.18866568806E+02  0.36820908903E+02  0.00000000000E+00 0. -1.
         11    1    4    4    0    0 -0.45410672714E+01  0.15293883554E+02 -0.11827385740E+02  0.19859789017E+02  0.51100000000E-03 0. -1.
        -11    1    4    4    0    0  0.19878008766E+01 -0.43527434745E+01 -0.23932722063E+01  0.53502785155E+01  0.51100000000E-03 0.  1.
        -12    1    4    4    0    0  0.27507556771E+02  0.84783168071E+01 -0.46459108604E+01  0.29157023564E+02  0.00000000000E+00 0.  1.
</event>
<event>
 8    1  0.1240174E-006  0.9118800E+02  0.7816164E-02  0.1184000E+00
        -11   -1    0    0    0    0  0.00000000000E+00  0.00000000000E+00  0.45593999997E+02  0.45594000000E+02  0.51100000000E-03 0.  1.
         11   -1    0    0    0    0 -0.00000000000E+00 -0.00000000000E+00 -0.45593999997E+02  0.45594000000E+02  0.51100000000E-03 0. -1.
         23    2    1    2    0    0 -0.35527136788E-14  0.17763568394E-14  0.35527136788E-14  0.91188000000E+02  0.91188000000E+02 0.  0.
    9900012    2    3    3    0    0  0.17114180809E+02  0.80969096580E+01  0.31580445532E+02  0.54367086503E+02  0.40000005301E+02 0.  0.
         12    1    3    3    0    0 -0.17114180809E+02 -0.80969096580E+01 -0.31580445532E+02  0.36820913497E+02  0.00000000000E+00 0. -1.
         11    1    4    4    0    0  0.22513579619E+02  0.32264797974E+01  0.15875454437E+01  0.22798941641E+02  0.51100000000E-03 0. -1.
        -11    1    4    4    0    0 -0.40728130644E+01 -0.42854281260E+00  0.16739358381E+02  0.17233037297E+02  0.51100000000E-03 0.  1.
         12    1    4    4    0    0 -0.13265857462E+01  0.52989726732E+01  0.13253541707E+02  0.14335107565E+02  0.00000000000E+00 0. -1.
</event>
<event>
 8    1  0.1240174E-006  0.9118800E+02  0.7816164E-02  0.1184000E+00
        -11   -1    0    0    0    0  0.00000000000E+00  0.00000000000E+00  0.45593999997E+02  0.45594000000E+02  0.51100000000E-03 0. -1.
         11   -1    0    0    0    0 -0.00000000000E+00 -0.00000000000E+00 -0.45593999997E+02  0.45594000000E+02  0.51100000000E-03 0.  1.
         23    2    1    2    0    0 -0.88817841970E-15  0.00000000000E+00  0.00000000000E+00  0.91188000000E+02  0.91188000000E+02 0.  0.
    9900012    2    3    3    0    0 -0.63578063093E+01 -0.16986883871E+01 -0.36228061804E+02  0.54367086033E+02  0.40000004230E+02 0.  0.
         12    1    3    3    0    0  0.63578063093E+01  0.16986883871E+01  0.36228061804E+02  0.36820913967E+02  0.00000000000E+00 0. -1.
         11    1    4    4    0    0  0.99482760456E+01 -0.87543409695E+01 -0.14470770444E+02  0.19621668624E+02  0.51100000000E-03 0. -1.
        -11    1    4    4    0    0  0.44587646665E+01 -0.13855597341E+01 -0.40261290788E+01  0.61652310377E+01  0.51100000000E-03 0.  1.
        -12    1    4    4    0    0 -0.20764847021E+02  0.84412123165E+01 -0.17731162281E+02  0.28580186371E+02  0.00000000000E+00 0.  1.
</event>
<event>
 8    1  0.1240174E-006  0.9118800E+02  0.7816164E-02  0.1184000E+00
        -11   -1    0    0    0    0  0.00000000000E+00  0.00000000000E+00  0.45593999997E+02  0.45594000000E+02  0.51100000000E-03 0. -1.
         11   -1    0    0    0    0 -0.00000000000E+00 -0.00000000000E+00 -0.45593999997E+02  0.45594000000E+02  0.51100000000E-03 0.  1.
         23    2    1    2    0    0  0.00000000000E+00  0.00000000000E+00  0.00000000000E+00  0.91188000000E+02  0.91188000000E+02 0.  0.
    9900012    2    3    3    0    0  0.15067854134E+02  0.73835813743E+01  0.32775320687E+02  0.54367093598E+02  0.40000021475E+02 0.  0.
        -12    1    3    3    0    0 -0.15067854134E+02 -0.73835813743E+01 -0.32775320687E+02  0.36820906402E+02  0.00000000000E+00 0.  1.
         11    1    4    4    0    0 -0.31837251200E+01  0.10921637790E+02 -0.38865057080E+01  0.12021780423E+02  0.51100000000E-03 0. -1.
        -11    1    4    4    0    0  0.15096487598E+02 -0.31170689115E+01  0.19331155853E+02  0.24724757699E+02  0.51100000000E-03 0.  1.
         12    1    4    4    0    0  0.31550916557E+01 -0.42098750408E+00  0.17330670543E+02  0.17620555476E+02  0.00000000000E+00 0. -1.
</event>
<event>
 8    1  0.1240174E-006  0.9118800E+02  0.7816164E-02  0.1184000E+00
        -11   -1    0    0    0    0  0.00000000000E+00  0.00000000000E+00  0.45593999997E+02  0.45594000000E+02  0.51100000000E-03 0.  1.
         11   -1    0    0    0    0 -0.00000000000E+00 -0.00000000000E+00 -0.45593999997E+02  0.45594000000E+02  0.51100000000E-03 0. -1.
         23    2    1    2    0    0  0.00000000000E+00  0.00000000000E+00  0.00000000000E+00  0.91188000000E+02  0.91188000000E+02 0.  0.
    9900012    2    3    3    0    0 -0.24939497492E+02  0.17009377712E+02  0.21082750155E+02  0.54367084485E+02  0.40000000700E+02 0.  0.
         12    1    3    3    0    0  0.24939497492E+02 -0.17009377712E+02 -0.21082750155E+02  0.36820915515E+02  0.00000000000E+00 0. -1.
         11    1    4    4    0    0  0.30051794503E+01 -0.26872618057E+01  0.44415644116E+01  0.59983309532E+01  0.51100000000E-03 0. -1.
        -11    1    4    4    0    0 -0.21401778221E+02  0.23329545675E+02  0.17556550543E+01  0.31707824545E+02  0.51100000000E-03 0.  1.
        -12    1    4    4    0    0 -0.65428987208E+01 -0.36329061571E+01  0.14885530689E+02  0.16660928987E+02  0.00000000000E+00 0.  1.
</event>
<event>
 8    1  0.1240174E-006  0.9118800E+02  0.7816164E-02  0.1184000E+00
        -11   -1    0    0    0    0  0.00000000000E+00  0.00000000000E+00  0.45593999997E+02  0.45594000000E+02  0.51100000000E-03 0. -1.
         11   -1    0    0    0    0 -0.00000000000E+00 -0.00000000000E+00 -0.45593999997E+02  0.45594000000E+02  0.51100000000E-03 0.  1.
         23    2    1    2    0    0  0.17763568394E-14  0.88817841970E-15  0.00000000000E+00  0.91188000000E+02  0.91188000000E+02 0.  0.
    9900012    2    3    3    0    0 -0.11498941971E+02 -0.67421256382E+01  0.34323424068E+02  0.54367090664E+02  0.40000014787E+02 0.  0.
        -12    1    3    3    0    0  0.11498941971E+02  0.67421256382E+01 -0.34323424068E+02  0.36820909336E+02  0.00000000000E+00 0.  1.
         11    1    4    4    0    0 -0.11993969931E+02 -0.60999835665E+01  0.53717449559E+01  0.14488642391E+02  0.51100000000E-03 0.  1.
        -11    1    4    4    0    0 -0.13894702045E+01 -0.13923691862E+02  0.14082205683E+02  0.19852162091E+02  0.51100000000E-03 0. -1.
         12    1    4    4    0    0  0.18844981644E+01  0.13281549791E+02  0.14869473429E+02  0.20026286182E+02  0.00000000000E+00 0. -1.
</event>
<event>
 8    1  0.1240174E-006  0.9118800E+02  0.7816164E-02  0.1184000E+00
        -11   -1    0    0    0    0  0.00000000000E+00  0.00000000000E+00  0.45593999997E+02  0.45594000000E+02  0.51100000000E-03 0.  1.
         11   -1    0    0    0    0 -0.00000000000E+00 -0.00000000000E+00 -0.45593999997E+02  0.45594000000E+02  0.51100000000E-03 0. -1.
         23    2    1    2    0    0  0.00000000000E+00 -0.71054273576E-14  0.00000000000E+00  0.91188000000E+02  0.91188000000E+02 0.  0.
    9900012    2    3    3    0    0 -0.66014517585E+01 -0.36089944771E+02  0.31172660815E+01  0.54367073522E+02  0.39999975708E+02 0.  0.
        -12    1    3    3    0    0  0.66014517585E+01  0.36089944771E+02 -0.31172660815E+01  0.36820926478E+02  0.00000000000E+00 0.  1.
         11    1    4    4    0    0 -0.13226585706E+02 -0.33016321450E+02 -0.15988743535E+01  0.35603039912E+02  0.51100000000E-03 0. -1.
        -11    1    4    4    0    0 -0.36146939794E+01  0.25944496388E+01 -0.24112075799E+01  0.50607414226E+01  0.51100000000E-03 0.  1.
         12    1    4    4    0    0  0.10239827927E+02 -0.56680729595E+01  0.71273480149E+01  0.13703292187E+02  0.00000000000E+00 0. -1.
</event>
<event>
 8    1  0.1240174E-006  0.9118800E+02  0.7816164E-02  0.1184000E+00
        -11   -1    0    0    0    0  0.00000000000E+00  0.00000000000E+00  0.45593999997E+02  0.45594000000E+02  0.51100000000E-03 0.  1.
         11   -1    0    0    0    0 -0.00000000000E+00 -0.00000000000E+00 -0.45593999997E+02  0.45594000000E+02  0.51100000000E-03 0. -1.
         23    2    1    2    0    0  0.35527136788E-14  0.71054273576E-14  0.00000000000E+00  0.91188000000E+02  0.91188000000E+02 0.  0.
    9900012    2    3    3    0    0 -0.19908208883E+02 -0.25946555854E+02  0.16918019834E+02  0.54367082891E+02  0.39999997067E+02 0.  0.
         12    1    3    3    0    0  0.19908208883E+02  0.25946555854E+02 -0.16918019834E+02  0.36820917109E+02  0.00000000000E+00 0. -1.
         11    1    4    4    0    0 -0.23457996309E+01 -0.11060486735E+02  0.21177976114E+01  0.11503139124E+02  0.51100000000E-03 0. -1.
        -11    1    4    4    0    0 -0.76782311695E-01 -0.85541485623E+01 -0.91601309547E+01  0.12533449346E+02  0.51100000000E-03 0.  1.
         12    1    4    4    0    0 -0.17485626940E+02 -0.63319205573E+01  0.23960353177E+02  0.30330494421E+02  0.00000000000E+00 0. -1.
</event>
<event>
 8    1  0.1240174E-006  0.9118800E+02  0.7816164E-02  0.1184000E+00
        -11   -1    0    0    0    0  0.00000000000E+00  0.00000000000E+00  0.45593999997E+02  0.45594000000E+02  0.51100000000E-03 0.  1.
         11   -1    0    0    0    0 -0.00000000000E+00 -0.00000000000E+00 -0.45593999997E+02  0.45594000000E+02  0.51100000000E-03 0. -1.
         23    2    1    2    0    0  0.00000000000E+00 -0.35527136788E-14  0.35527136788E-14  0.91188000000E+02  0.91188000000E+02 0.  0.
    9900012    2    3    3    0    0 -0.85778481431E+01  0.24632527119E+02 -0.25988971397E+02  0.54367251701E+02  0.40000381900E+02 0.  0.
        -12    1    3    3    0    0  0.85778481431E+01 -0.24632527119E+02  0.25988971397E+02  0.36820748299E+02  0.00000000000E+00 0.  1.
         11    1    4    4    0    0  0.49027663149E+01  0.36114346213E-02  0.56950703603E+01  0.75147160459E+01  0.51100000000E-03 0. -1.
        -11    1    4    4    0    0  0.12477237482E+00  0.22707742830E+01  0.27706938401E+01  0.35845123248E+01  0.51100000000E-03 0.  1.
         12    1    4    4    0    0 -0.13605386833E+02  0.22358141402E+02 -0.34454735597E+02  0.43268023330E+02  0.00000000000E+00 0. -1.
</event>
<event>
 8    1  0.1240174E-006  0.9118800E+02  0.7816164E-02  0.1184000E+00
        -11   -1    0    0    0    0  0.00000000000E+00  0.00000000000E+00  0.45593999997E+02  0.45594000000E+02  0.51100000000E-03 0.  1.
         11   -1    0    0    0    0 -0.00000000000E+00 -0.00000000000E+00 -0.45593999997E+02  0.45594000000E+02  0.51100000000E-03 0. -1.
         23    2    1    2    0    0 -0.53290705182E-14 -0.17763568394E-14  0.14210854715E-13  0.91188000000E+02  0.91188000000E+02 0.  0.
    9900012    2    3    3    0    0 -0.14642690706E+02 -0.10035421497E+02  0.32259293655E+02  0.54367080636E+02  0.39999991925E+02 0.  0.
         12    1    3    3    0    0  0.14642690706E+02  0.10035421497E+02 -0.32259293655E+02  0.36820919364E+02  0.00000000000E+00 0. -1.
         11    1    4    4    0    0  0.29702947381E+01  0.81517238011E+00 -0.16169507449E+00  0.30843641807E+01  0.51100000000E-03 0. -1.
        -11    1    4    4    0    0 -0.10622243549E+02 -0.16653314374E+02  0.36361085789E+02  0.41379868266E+02  0.51100000000E-03 0.  1.
         12    1    4    4    0    0 -0.69907418950E+01  0.58027204969E+01 -0.39400970602E+01  0.99028481889E+01  0.00000000000E+00 0. -1.
</event>
<event>
 8    1  0.1240174E-006  0.9118800E+02  0.7816164E-02  0.1184000E+00
        -11   -1    0    0    0    0  0.00000000000E+00  0.00000000000E+00  0.45593999997E+02  0.45594000000E+02  0.51100000000E-03 0.  1.
         11   -1    0    0    0    0 -0.00000000000E+00 -0.00000000000E+00 -0.45593999997E+02  0.45594000000E+02  0.51100000000E-03 0. -1.
         23    2    1    2    0    0  0.00000000000E+00  0.35527136788E-14  0.00000000000E+00  0.91188000000E+02  0.91188000000E+02 0.  0.
    9900012    2    3    3    0    0 -0.29775730225E+02 -0.14424419370E+02  0.16159321141E+02  0.54367059703E+02  0.39999944206E+02 0.  0.
         12    1    3    3    0    0  0.29775730225E+02  0.14424419370E+02 -0.16159321141E+02  0.36820940297E+02  0.00000000000E+00 0. -1.
         11    1    4    4    0    0 -0.85284493295E+00  0.49795929391E+01  0.12508655770E+02  0.13490372855E+02  0.51100000000E-03 0. -1.
        -11    1    4    4    0    0  0.17319179153E+01 -0.37324399402E+01  0.49337617574E+01  0.64243795741E+01  0.51100000000E-03 0.  1.
         12    1    4    4    0    0 -0.30654803207E+02 -0.15671572369E+02 -0.12830963867E+01  0.34452307275E+02  0.00000000000E+00 0. -1.
</event>
<event>
 8    1  0.1240174E-006  0.9118800E+02  0.7816164E-02  0.1184000E+00
        -11   -1    0    0    0    0  0.00000000000E+00  0.00000000000E+00  0.45593999997E+02  0.45594000000E+02  0.51100000000E-03 0.  1.
         11   -1    0    0    0    0 -0.00000000000E+00 -0.00000000000E+00 -0.45593999997E+02  0.45594000000E+02  0.51100000000E-03 0. -1.
         23    2    1    2    0    0  0.00000000000E+00  0.00000000000E+00  0.10658141036E-13  0.91188000000E+02  0.91188000000E+02 0.  0.
    9900012    2    3    3    0    0 -0.16391920452E+02  0.16996534902E+02  0.28252457709E+02  0.54367100753E+02  0.40000037786E+02 0.  0.
         12    1    3    3    0    0  0.16391920452E+02 -0.16996534902E+02 -0.28252457709E+02  0.36820899247E+02  0.00000000000E+00 0. -1.
         11    1    4    4    0    0 -0.59753414448E+01  0.71707981604E+01 -0.47473606752E+01  0.10471985737E+02  0.51100000000E-03 0. -1.
        -11    1    4    4    0    0 -0.16266314953E+02  0.31742555085E+00  0.12368383225E+02  0.20436992562E+02  0.51100000000E-03 0.  1.
         12    1    4    4    0    0  0.58497359455E+01  0.95083111903E+01  0.20631435159E+02  0.23458122454E+02  0.00000000000E+00 0. -1.
</event>
<event>
 8    1  0.1240174E-006  0.9118800E+02  0.7816164E-02  0.1184000E+00
        -11   -1    0    0    0    0  0.00000000000E+00  0.00000000000E+00  0.45593999997E+02  0.45594000000E+02  0.51100000000E-03 0. -1.
         11   -1    0    0    0    0 -0.00000000000E+00 -0.00000000000E+00 -0.45593999997E+02  0.45594000000E+02  0.51100000000E-03 0.  1.
         23    2    1    2    0    0  0.00000000000E+00 -0.17763568394E-14  0.00000000000E+00  0.91188000000E+02  0.91188000000E+02 0.  0.
    9900012    2    3    3    0    0  0.86425617711E+01 -0.14922839256E+02  0.32532970670E+02  0.54367093085E+02  0.40000020305E+02 0.  0.
        -12    1    3    3    0    0 -0.86425617711E+01  0.14922839256E+02 -0.32532970670E+02  0.36820906915E+02  0.00000000000E+00 0.  1.
         11    1    4    4    0    0  0.76698899166E+01 -0.26535523998E+01  0.18311020568E+02  0.20029029586E+02  0.51100000000E-03 0. -1.
        -11    1    4    4    0    0  0.10875628794E+02  0.43881188116E+01  0.37598010628E+01  0.12315477768E+02  0.51100000000E-03 0.  1.
        -12    1    4    4    0    0 -0.99029569390E+01 -0.16657405668E+02  0.10462149040E+02  0.22022585730E+02  0.00000000000E+00 0.  1.
</event>
<event>
 8    1  0.1240174E-006  0.9118800E+02  0.7816164E-02  0.1184000E+00
        -11   -1    0    0    0    0  0.00000000000E+00  0.00000000000E+00  0.45593999997E+02  0.45594000000E+02  0.51100000000E-03 0.  1.
         11   -1    0    0    0    0 -0.00000000000E+00 -0.00000000000E+00 -0.45593999997E+02  0.45594000000E+02  0.51100000000E-03 0. -1.
         23    2    1    2    0    0  0.00000000000E+00 -0.17763568394E-14  0.00000000000E+00  0.91188000000E+02  0.91188000000E+02 0.  0.
    9900012    2    3    3    0    0  0.97388412094E+01  0.14823115774E+02 -0.32267778841E+02  0.54367090985E+02  0.40000015518E+02 0.  0.
        -12    1    3    3    0    0 -0.97388412094E+01 -0.14823115774E+02  0.32267778841E+02  0.36820909015E+02  0.00000000000E+00 0.  1.
         11    1    4    4    0    0  0.13176338995E+02  0.10722064250E+02 -0.15570392384E+02  0.23043777693E+02  0.51100000000E-03 0. -1.
        -11    1    4    4    0    0  0.35249779230E+01  0.48704245494E+00  0.61839091219E+01  0.71346627110E+01  0.51100000000E-03 0.  1.
        -12    1    4    4    0    0 -0.69624757087E+01  0.36140090692E+01 -0.22881295579E+02  0.24188650581E+02  0.00000000000E+00 0.  1.
</event>
<event>
 8    1  0.1240174E-006  0.9118800E+02  0.7816164E-02  0.1184000E+00
        -11   -1    0    0    0    0  0.00000000000E+00  0.00000000000E+00  0.45593999997E+02  0.45594000000E+02  0.51100000000E-03 0.  1.
         11   -1    0    0    0    0 -0.00000000000E+00 -0.00000000000E+00 -0.45593999997E+02  0.45594000000E+02  0.51100000000E-03 0. -1.
         23    2    1    2    0    0 -0.35527136788E-14  0.35527136788E-14 -0.35527136788E-14  0.91188000000E+02  0.91188000000E+02 0.  0.
    9900012    2    3    3    0    0  0.19347298441E+02 -0.23157629861E+02  0.21099420188E+02  0.54367091402E+02  0.40000016468E+02 0.  0.
         12    1    3    3    0    0 -0.19347298441E+02  0.23157629861E+02 -0.21099420188E+02  0.36820908598E+02  0.00000000000E+00 0. -1.
         11    1    4    4    0    0 -0.71567863409E+01 -0.14896769034E+02  0.40283219710E+01  0.17010605414E+02  0.51100000000E-03 0. -1.
        -11    1    4    4    0    0 -0.10826922575E+01 -0.50623439374E+01  0.10080634920E+01  0.52740630381E+01  0.51100000000E-03 0.  1.
        -12    1    4    4    0    0  0.27586777040E+02 -0.31985168892E+01  0.16063034725E+02  0.32082422950E+02  0.00000000000E+00 0.  1.
</event>
<event>
 8    1  0.1240174E-006  0.9118800E+02  0.7816164E-02  0.1184000E+00
        -11   -1    0    0    0    0  0.00000000000E+00  0.00000000000E+00  0.45593999997E+02  0.45594000000E+02  0.51100000000E-03 0. -1.
         11   -1    0    0    0    0 -0.00000000000E+00 -0.00000000000E+00 -0.45593999997E+02  0.45594000000E+02  0.51100000000E-03 0.  1.
         23    2    1    2    0    0  0.88817841970E-15  0.00000000000E+00  0.00000000000E+00  0.91188000000E+02  0.91188000000E+02 0.  0.
    9900012    2    3    3    0    0  0.35194370926E+01 -0.16233370352E+02 -0.32861412946E+02  0.54367065585E+02  0.39999957614E+02 0.  0.
         12    1    3    3    0    0 -0.35194370926E+01  0.16233370352E+02  0.32861412946E+02  0.36820934415E+02  0.00000000000E+00 0. -1.
         11    1    4    4    0    0  0.59853276478E+01  0.96503134920E+00 -0.44529338333E+01  0.75222372032E+01  0.51100000000E-03 0. -1.
        -11    1    4    4    0    0  0.10638529504E+02  0.45527764379E+01 -0.63005480016E+01  0.13175848689E+02  0.51100000000E-03 0.  1.
        -12    1    4    4    0    0 -0.13104420059E+02 -0.21751178139E+02 -0.22107931111E+02  0.33668979692E+02  0.00000000000E+00 0.  1.
</event>
<event>
 8    1  0.1240174E-006  0.9118800E+02  0.7816164E-02  0.1184000E+00
        -11   -1    0    0    0    0  0.00000000000E+00  0.00000000000E+00  0.45593999997E+02  0.45594000000E+02  0.51100000000E-03 0.  1.
         11   -1    0    0    0    0 -0.00000000000E+00 -0.00000000000E+00 -0.45593999997E+02  0.45594000000E+02  0.51100000000E-03 0. -1.
         23    2    1    2    0    0  0.35527136788E-14 -0.35527136788E-14 -0.35527136788E-14  0.91188000000E+02  0.91188000000E+02 0.  0.
    9900012    2    3    3    0    0  0.23494012148E+02 -0.18150533297E+02 -0.21780040832E+02  0.54367073282E+02  0.39999975160E+02 0.  0.
        -12    1    3    3    0    0 -0.23494012148E+02  0.18150533297E+02  0.21780040832E+02  0.36820926718E+02  0.00000000000E+00 0.  1.
         11    1    4    4    0    0  0.18717431271E+02 -0.16434136051E+02 -0.10879900608E+02  0.27180789146E+02  0.51100000000E-03 0. -1.
        -11    1    4    4    0    0  0.10371752647E+02 -0.65895582505E+01  0.18577345872E+01  0.12427659030E+02  0.51100000000E-03 0.  1.
         12    1    4    4    0    0 -0.55951717699E+01  0.48731610044E+01 -0.12757874811E+02  0.14758625105E+02  0.00000000000E+00 0. -1.
</event>
<event>
 8    1  0.1240174E-006  0.9118800E+02  0.7816164E-02  0.1184000E+00
        -11   -1    0    0    0    0  0.00000000000E+00  0.00000000000E+00  0.45593999997E+02  0.45594000000E+02  0.51100000000E-03 0. -1.
         11   -1    0    0    0    0 -0.00000000000E+00 -0.00000000000E+00 -0.45593999997E+02  0.45594000000E+02  0.51100000000E-03 0.  1.
         23    2    1    2    0    0  0.00000000000E+00 -0.10547118734E-14  0.00000000000E+00  0.91188000000E+02  0.91188000000E+02 0.  0.
    9900012    2    3    3    0    0  0.30539508639E+02  0.31740451516E+00 -0.20567397637E+02  0.54367079601E+02  0.39999989566E+02 0.  0.
         12    1    3    3    0    0 -0.30539508639E+02 -0.31740451516E+00  0.20567397637E+02  0.36820920399E+02  0.00000000000E+00 0. -1.
         11    1    4    4    0    0 -0.15851166832E+01  0.65927563500E+01  0.24311553049E+01  0.72033011576E+01  0.51100000000E-03 0. -1.
        -11    1    4    4    0    0  0.21713728505E+02 -0.83263075510E+00 -0.27086151966E+02  0.34725191262E+02  0.51100000000E-03 0.  1.
         12    1    4    4    0    0  0.10410896816E+02 -0.54427210797E+01  0.40875990246E+01  0.12438587181E+02  0.00000000000E+00 0. -1.
</event>
<event>
 8    1  0.1240174E-006  0.9118800E+02  0.7816164E-02  0.1184000E+00
        -11   -1    0    0    0    0  0.00000000000E+00  0.00000000000E+00  0.45593999997E+02  0.45594000000E+02  0.51100000000E-03 0. -1.
         11   -1    0    0    0    0 -0.00000000000E+00 -0.00000000000E+00 -0.45593999997E+02  0.45594000000E+02  0.51100000000E-03 0.  1.
         23    2    1    2    0    0  0.00000000000E+00  0.00000000000E+00  0.00000000000E+00  0.91188000000E+02  0.91188000000E+02 0.  0.
    9900012    2    3    3    0    0 -0.21798958830E+02  0.16447033506E+02  0.24699815564E+02  0.54367076517E+02  0.39999982537E+02 0.  0.
        -12    1    3    3    0    0  0.21798958830E+02 -0.16447033506E+02 -0.24699815564E+02  0.36820923483E+02  0.00000000000E+00 0.  1.
         11    1    4    4    0    0 -0.15087734297E+02  0.12455031962E+02  0.11349066524E+02  0.22617888023E+02  0.51100000000E-03 0. -1.
        -11    1    4    4    0    0 -0.81869111029E+01  0.14433074415E+02  0.13199982331E+02  0.21203270603E+02  0.51100000000E-03 0.  1.
        -12    1    4    4    0    0  0.14756865704E+01 -0.10441072871E+02  0.15076670923E+00  0.10545917891E+02  0.00000000000E+00 0.  1.
</event>
<event>
 8    1  0.1240174E-006  0.9118800E+02  0.7816164E-02  0.1184000E+00
        -11   -1    0    0    0    0  0.00000000000E+00  0.00000000000E+00  0.45593999997E+02  0.45594000000E+02  0.51100000000E-03 0. -1.
         11   -1    0    0    0    0 -0.00000000000E+00 -0.00000000000E+00 -0.45593999997E+02  0.45594000000E+02  0.51100000000E-03 0.  1.
         23    2    1    2    0    0  0.00000000000E+00 -0.13322676296E-14 -0.35527136788E-14  0.91188000000E+02  0.91188000000E+02 0.  0.
    9900012    2    3    3    0    0  0.33825719191E+02 -0.21833963423E+01  0.14381464459E+02  0.54367176837E+02  0.40000211236E+02 0.  0.
        -12    1    3    3    0    0 -0.33825719191E+02  0.21833963423E+01 -0.14381464459E+02  0.36820823163E+02  0.00000000000E+00 0.  1.
         11    1    4    4    0    0  0.14118562181E+02 -0.40050482421E+01  0.21784592149E+02  0.26266759694E+02  0.51100000000E-03 0. -1.
        -11    1    4    4    0    0  0.19641452941E+01  0.80622905586E+01 -0.23825463322E+01  0.86333610531E+01  0.51100000000E-03 0.  1.
        -12    1    4    4    0    0  0.17743011717E+02 -0.62406386587E+01 -0.50205813583E+01  0.19467056090E+02  0.00000000000E+00 0.  1.
</event>
<event>
 8    1  0.1240174E-006  0.9118800E+02  0.7816164E-02  0.1184000E+00
        -11   -1    0    0    0    0  0.00000000000E+00  0.00000000000E+00  0.45593999997E+02  0.45594000000E+02  0.51100000000E-03 0.  1.
         11   -1    0    0    0    0 -0.00000000000E+00 -0.00000000000E+00 -0.45593999997E+02  0.45594000000E+02  0.51100000000E-03 0. -1.
         23    2    1    2    0    0  0.00000000000E+00  0.00000000000E+00 -0.13322676296E-14  0.91188000000E+02  0.91188000000E+02 0.  0.
    9900012    2    3    3    0    0  0.22769887020E+02 -0.28719363494E+02 -0.35369615041E+01  0.54367086227E+02  0.40000004673E+02 0.  0.
        -12    1    3    3    0    0 -0.22769887020E+02  0.28719363494E+02  0.35369615041E+01  0.36820913773E+02  0.00000000000E+00 0.  1.
         11    1    4    4    0    0  0.31588815561E+02 -0.12962933744E+02  0.27867554920E+01  0.34258676657E+02  0.51100000000E-03 0. -1.
        -11    1    4    4    0    0 -0.26767072361E+01 -0.76261248898E+01  0.63312116929E-01  0.80824842188E+01  0.51100000000E-03 0.  1.
        -12    1    4    4    0    0 -0.61422213058E+01 -0.81303048597E+01 -0.63870291131E+01  0.12025925352E+02  0.00000000000E+00 0.  1.
</event>
<event>
 8    1  0.1240174E-006  0.9118800E+02  0.7816164E-02  0.1184000E+00
        -11   -1    0    0    0    0  0.00000000000E+00  0.00000000000E+00  0.45593999997E+02  0.45594000000E+02  0.51100000000E-03 0.  1.
         11   -1    0    0    0    0 -0.00000000000E+00 -0.00000000000E+00 -0.45593999997E+02  0.45594000000E+02  0.51100000000E-03 0. -1.
         23    2    1    2    0    0 -0.35527136788E-14  0.00000000000E+00 -0.35527136788E-14  0.91188000000E+02  0.91188000000E+02 0.  0.
    9900012    2    3    3    0    0 -0.29571130731E+02 -0.19881317962E+02 -0.92769267211E+01  0.54367082765E+02  0.39999996780E+02 0.  0.
        -12    1    3    3    0    0  0.29571130731E+02  0.19881317962E+02  0.92769267211E+01  0.36820917235E+02  0.00000000000E+00 0.  1.
         11    1    4    4    0    0 -0.15841424103E+01  0.28525929177E+01  0.81334019354E+00  0.33627839749E+01  0.51100000000E-03 0. -1.
        -11    1    4    4    0    0 -0.79422187383E+01 -0.48273181716E+01 -0.20241273333E+02  0.22273100045E+02  0.51100000000E-03 0.  1.
         12    1    4    4    0    0 -0.20044769583E+02 -0.17906592708E+02  0.10151006418E+02  0.28731198745E+02  0.00000000000E+00 0. -1.
</event>
<event>
 8    1  0.1240174E-006  0.9118800E+02  0.7816164E-02  0.1184000E+00
        -11   -1    0    0    0    0  0.00000000000E+00  0.00000000000E+00  0.45593999997E+02  0.45594000000E+02  0.51100000000E-03 0.  1.
         11   -1    0    0    0    0 -0.00000000000E+00 -0.00000000000E+00 -0.45593999997E+02  0.45594000000E+02  0.51100000000E-03 0. -1.
         23    2    1    2    0    0  0.35527136788E-14 -0.35527136788E-14  0.00000000000E+00  0.91188000000E+02  0.91188000000E+02 0.  0.
    9900012    2    3    3    0    0 -0.25936106969E+02  0.16688725705E+02  0.20114085587E+02  0.54367195428E+02  0.40000253616E+02 0.  0.
         12    1    3    3    0    0  0.25936106969E+02 -0.16688725705E+02 -0.20114085587E+02  0.36820804572E+02  0.00000000000E+00 0. -1.
         11    1    4    4    0    0  0.62094804358E+01 -0.18549325629E+01 -0.50666394517E+01  0.82261326084E+01  0.51100000000E-03 0. -1.
        -11    1    4    4    0    0 -0.27275299884E+02  0.12616025181E+02  0.23825466358E+02  0.38350474867E+02  0.51100000000E-03 0.  1.
        -12    1    4    4    0    0 -0.48702875204E+01  0.59276330875E+01  0.13552586804E+01  0.77905879522E+01  0.00000000000E+00 0.  1.
</event>
<event>
 8    1  0.1240174E-006  0.9118800E+02  0.7816164E-02  0.1184000E+00
        -11   -1    0    0    0    0  0.00000000000E+00  0.00000000000E+00  0.45593999997E+02  0.45594000000E+02  0.51100000000E-03 0.  1.
         11   -1    0    0    0    0 -0.00000000000E+00 -0.00000000000E+00 -0.45593999997E+02  0.45594000000E+02  0.51100000000E-03 0. -1.
         23    2    1    2    0    0  0.88817841970E-15  0.00000000000E+00 -0.71054273576E-14  0.91188000000E+02  0.91188000000E+02 0.  0.
    9900012    2    3    3    0    0  0.77757117336E+01 -0.81757769973E+01 -0.35049603410E+02  0.54367085811E+02  0.40000003724E+02 0.  0.
        -12    1    3    3    0    0 -0.77757117336E+01  0.81757769973E+01  0.35049603410E+02  0.36820914189E+02  0.00000000000E+00 0.  1.
         11    1    4    4    0    0 -0.10340372472E+02  0.24195934709E+01 -0.17310322634E+02  0.20308249688E+02  0.51100000000E-03 0. -1.
        -11    1    4    4    0    0  0.21677866293E+02 -0.90620016003E+01 -0.18740071759E+02  0.30053952316E+02  0.51100000000E-03 0.  1.
        -12    1    4    4    0    0 -0.35617820871E+01 -0.15333688679E+01  0.10007909828E+01  0.40048838076E+01  0.00000000000E+00 0.  1.
</event>
<event>
 8    1  0.1240174E-006  0.9118800E+02  0.7816164E-02  0.1184000E+00
        -11   -1    0    0    0    0  0.00000000000E+00  0.00000000000E+00  0.45593999997E+02  0.45594000000E+02  0.51100000000E-03 0. -1.
         11   -1    0    0    0    0 -0.00000000000E+00 -0.00000000000E+00 -0.45593999997E+02  0.45594000000E+02  0.51100000000E-03 0.  1.
         23    2    1    2    0    0  0.00000000000E+00  0.71054273576E-14  0.00000000000E+00  0.91188000000E+02  0.91188000000E+02 0.  0.
    9900012    2    3    3    0    0  0.59665546778E+01 -0.32785670207E+02 -0.15661429363E+02  0.54367077750E+02  0.39999985347E+02 0.  0.
         12    1    3    3    0    0 -0.59665546778E+01  0.32785670207E+02  0.15661429363E+02  0.36820922250E+02  0.00000000000E+00 0. -1.
         11    1    4    4    0    0  0.84652581122E+01 -0.55511838733E+01 -0.23490470881E+00  0.10125779861E+02  0.51100000000E-03 0. -1.
        -11    1    4    4    0    0 -0.12019160446E+02 -0.17544719050E+02 -0.20692138222E+02  0.29672242397E+02  0.51100000000E-03 0.  1.
        -12    1    4    4    0    0  0.95204570117E+01 -0.96897672832E+01  0.52656135677E+01  0.14569055493E+02  0.00000000000E+00 0.  1.
</event>
<event>
 8    1  0.1240174E-006  0.9118800E+02  0.7816164E-02  0.1184000E+00
        -11   -1    0    0    0    0  0.00000000000E+00  0.00000000000E+00  0.45593999997E+02  0.45594000000E+02  0.51100000000E-03 0. -1.
         11   -1    0    0    0    0 -0.00000000000E+00 -0.00000000000E+00 -0.45593999997E+02  0.45594000000E+02  0.51100000000E-03 0.  1.
         23    2    1    2    0    0  0.35527136788E-14  0.13322676296E-14 -0.35527136788E-14  0.91188000000E+02  0.91188000000E+02 0.  0.
    9900012    2    3    3    0    0 -0.30903112936E+02 -0.39769181215E+01  0.19620435133E+02  0.54367085539E+02  0.40000003104E+02 0.  0.
        -12    1    3    3    0    0  0.30903112936E+02  0.39769181215E+01 -0.19620435133E+02  0.36820914461E+02  0.00000000000E+00 0.  1.
         11    1    4    4    0    0 -0.34551396007E+02 -0.81814653136E+01  0.18945580205E+02  0.40245128280E+02  0.51100000000E-03 0. -1.
        -11    1    4    4    0    0  0.38232517225E+00  0.84230686165E+01 -0.10915866377E+01  0.85021067451E+01  0.51100000000E-03 0.  1.
        -12    1    4    4    0    0  0.32659578982E+01 -0.42185214244E+01  0.17664415659E+01  0.56198505146E+01  0.00000000000E+00 0.  1.
</event>
<event>
 8    1  0.1240174E-006  0.9118800E+02  0.7816164E-02  0.1184000E+00
        -11   -1    0    0    0    0  0.00000000000E+00  0.00000000000E+00  0.45593999997E+02  0.45594000000E+02  0.51100000000E-03 0. -1.
         11   -1    0    0    0    0 -0.00000000000E+00 -0.00000000000E+00 -0.45593999997E+02  0.45594000000E+02  0.51100000000E-03 0.  1.
         23    2    1    2    0    0  0.00000000000E+00  0.35527136788E-14  0.44408920985E-15  0.91188000000E+02  0.91188000000E+02 0.  0.
    9900012    2    3    3    0    0 -0.36631130447E+02  0.37166592006E+01 -0.35608903301E+00  0.54367081043E+02  0.39999992855E+02 0.  0.
        -12    1    3    3    0    0  0.36631130447E+02 -0.37166592006E+01  0.35608903301E+00  0.36820918957E+02  0.00000000000E+00 0.  1.
         11    1    4    4    0    0 -0.10711809070E+01  0.15439681645E+02  0.18889078263E+01  0.15591637851E+02  0.51100000000E-03 0. -1.
        -11    1    4    4    0    0 -0.81349822468E+01 -0.42144354034E+00 -0.39723625294E+01  0.90628480700E+01  0.51100000000E-03 0.  1.
         12    1    4    4    0    0 -0.27424967293E+02 -0.11301578904E+02  0.17273656701E+01  0.29712595122E+02  0.00000000000E+00 0. -1.
</event>
<event>
 8    1  0.1240174E-006  0.9118800E+02  0.7816164E-02  0.1184000E+00
        -11   -1    0    0    0    0  0.00000000000E+00  0.00000000000E+00  0.45593999997E+02  0.45594000000E+02  0.51100000000E-03 0. -1.
         11   -1    0    0    0    0 -0.00000000000E+00 -0.00000000000E+00 -0.45593999997E+02  0.45594000000E+02  0.51100000000E-03 0.  1.
         23    2    1    2    0    0  0.71054273576E-14  0.00000000000E+00  0.00000000000E+00  0.91188000000E+02  0.91188000000E+02 0.  0.
    9900012    2    3    3    0    0 -0.33177282221E+02 -0.15465922061E+01  0.15895142359E+02  0.54367088094E+02  0.40000008928E+02 0.  0.
        -12    1    3    3    0    0  0.33177282221E+02  0.15465922061E+01 -0.15895142359E+02  0.36820911906E+02  0.00000000000E+00 0.  1.
         11    1    4    4    0    0 -0.26948968802E+02 -0.82360218676E+01  0.39879149461E+01  0.28460190470E+02  0.51100000000E-03 0. -1.
        -11    1    4    4    0    0 -0.17298901828E+01  0.12131186240E+02  0.13939534349E+02  0.18559871168E+02  0.51100000000E-03 0.  1.
        -12    1    4    4    0    0 -0.44984232359E+01 -0.54417565785E+01 -0.20323069363E+01  0.73470264565E+01  0.00000000000E+00 0.  1.
</event>
<event>
 8    1  0.1240174E-006  0.9118800E+02  0.7816164E-02  0.1184000E+00
        -11   -1    0    0    0    0  0.00000000000E+00  0.00000000000E+00  0.45593999997E+02  0.45594000000E+02  0.51100000000E-03 0.  1.
         11   -1    0    0    0    0 -0.00000000000E+00 -0.00000000000E+00 -0.45593999997E+02  0.45594000000E+02  0.51100000000E-03 0. -1.
         23    2    1    2    0    0 -0.71054273576E-14 -0.35527136788E-14  0.44408920985E-15  0.91188000000E+02  0.91188000000E+02 0.  0.
    9900012    2    3    3    0    0  0.23407563678E+02  0.28278943517E+02  0.28576879561E+01  0.54367094740E+02  0.40000024078E+02 0.  0.
         12    1    3    3    0    0 -0.23407563678E+02 -0.28278943517E+02 -0.28576879561E+01  0.36820905260E+02  0.00000000000E+00 0. -1.
         11    1    4    4    0    0 -0.29024739381E+01 -0.48064479836E+01  0.62719250801E+01  0.84180366863E+01  0.51100000000E-03 0. -1.
        -11    1    4    4    0    0  0.10010251124E+02  0.32379277081E+01  0.37963831788E+01  0.11184892888E+02  0.51100000000E-03 0.  1.
         12    1    4    4    0    0  0.16299786492E+02  0.29847463792E+02 -0.72106203028E+01  0.34764165165E+02  0.00000000000E+00 0. -1.
</event>
<event>
 8    1  0.1240174E-006  0.9118800E+02  0.7816164E-02  0.1184000E+00
        -11   -1    0    0    0    0  0.00000000000E+00  0.00000000000E+00  0.45593999997E+02  0.45594000000E+02  0.51100000000E-03 0.  1.
         11   -1    0    0    0    0 -0.00000000000E+00 -0.00000000000E+00 -0.45593999997E+02  0.45594000000E+02  0.51100000000E-03 0. -1.
         23    2    1    2    0    0  0.00000000000E+00  0.00000000000E+00  0.00000000000E+00  0.91188000000E+02  0.91188000000E+02 0.  0.
    9900012    2    3    3    0    0  0.22422320768E+02  0.28695328883E+02  0.54404688543E+01  0.54367067506E+02  0.39999961994E+02 0.  0.
         12    1    3    3    0    0 -0.22422320768E+02 -0.28695328883E+02 -0.54404688543E+01  0.36820932494E+02  0.00000000000E+00 0. -1.
         11    1    4    4    0    0 -0.92455579175E+00  0.16520377833E+02 -0.13759547909E+02  0.21519824490E+02  0.51100000000E-03 0. -1.
        -11    1    4    4    0    0  0.19902087348E+02  0.11893402269E+02  0.16398973095E+02  0.28398458007E+02  0.51100000000E-03 0.  1.
         12    1    4    4    0    0  0.34447892121E+01  0.28154878047E+00  0.28010436684E+01  0.44487850098E+01  0.00000000000E+00 0. -1.
</event>
<event>
 8    1  0.1240174E-006  0.9118800E+02  0.7816164E-02  0.1184000E+00
        -11   -1    0    0    0    0  0.00000000000E+00  0.00000000000E+00  0.45593999997E+02  0.45594000000E+02  0.51100000000E-03 0.  1.
         11   -1    0    0    0    0 -0.00000000000E+00 -0.00000000000E+00 -0.45593999997E+02  0.45594000000E+02  0.51100000000E-03 0. -1.
         23    2    1    2    0    0 -0.35527136788E-14  0.00000000000E+00  0.35527136788E-14  0.91188000000E+02  0.91188000000E+02 0.  0.
    9900012    2    3    3    0    0 -0.30999414971E+02  0.90807975134E+01  0.17673539012E+02  0.54367101135E+02  0.40000038657E+02 0.  0.
         12    1    3    3    0    0  0.30999414971E+02 -0.90807975134E+01 -0.17673539012E+02  0.36820898865E+02  0.00000000000E+00 0. -1.
         11    1    4    4    0    0 -0.77751604243E+01 -0.12452538849E+02  0.11816230828E+02  0.18845215697E+02  0.51100000000E-03 0. -1.
        -11    1    4    4    0    0 -0.17841423354E+02  0.13348728535E+02  0.10557077284E+02  0.24656780443E+02  0.51100000000E-03 0.  1.
        -12    1    4    4    0    0 -0.53828311933E+01  0.81846078278E+01 -0.46997691010E+01  0.10865104995E+02  0.00000000000E+00 0.  1.
</event>
<event>
 8    1  0.1240174E-006  0.9118800E+02  0.7816164E-02  0.1184000E+00
        -11   -1    0    0    0    0  0.00000000000E+00  0.00000000000E+00  0.45593999997E+02  0.45594000000E+02  0.51100000000E-03 0.  1.
         11   -1    0    0    0    0 -0.00000000000E+00 -0.00000000000E+00 -0.45593999997E+02  0.45594000000E+02  0.51100000000E-03 0. -1.
         23    2    1    2    0    0  0.17763568394E-14  0.00000000000E+00 -0.11102230246E-15  0.91188000000E+02  0.91188000000E+02 0.  0.
    9900012    2    3    3    0    0  0.85814396470E+01  0.35806124853E+02  0.24297152591E+00  0.54367099433E+02  0.40000034777E+02 0.  0.
        -12    1    3    3    0    0 -0.85814396470E+01 -0.35806124853E+02 -0.24297152591E+00  0.36820900567E+02  0.00000000000E+00 0.  1.
         11    1    4    4    0    0  0.20978624931E+00  0.21038530173E+01 -0.96820734932E+01  0.99102348699E+01  0.51100000000E-03 0. -1.
        -11    1    4    4    0    0 -0.30184639090E+01 -0.10456142444E+01 -0.41824610589E+01  0.52628332947E+01  0.51100000000E-03 0.  1.
        -12    1    4    4    0    0  0.11390117307E+02  0.34747886080E+02  0.14107506078E+02  0.39194031268E+02  0.00000000000E+00 0.  1.
</event>
<event>
 8    1  0.1240174E-006  0.9118800E+02  0.7816164E-02  0.1184000E+00
        -11   -1    0    0    0    0  0.00000000000E+00  0.00000000000E+00  0.45593999997E+02  0.45594000000E+02  0.51100000000E-03 0. -1.
         11   -1    0    0    0    0 -0.00000000000E+00 -0.00000000000E+00 -0.45593999997E+02  0.45594000000E+02  0.51100000000E-03 0.  1.
         23    2    1    2    0    0  0.00000000000E+00  0.00000000000E+00  0.00000000000E+00  0.91188000000E+02  0.91188000000E+02 0.  0.
    9900012    2    3    3    0    0  0.22853942743E+02  0.17270234270E+02 -0.23134784286E+02  0.54367055761E+02  0.39999935219E+02 0.  0.
         12    1    3    3    0    0 -0.22853942743E+02 -0.17270234270E+02  0.23134784286E+02  0.36820944239E+02  0.00000000000E+00 0. -1.
         11    1    4    4    0    0  0.96265898112E+01 -0.10676166240E+02 -0.61804811110E+00  0.14388667093E+02  0.51100000000E-03 0. -1.
        -11    1    4    4    0    0  0.13317922987E+02  0.28944935591E+02 -0.22443861125E+02  0.38973109595E+02  0.51100000000E-03 0.  1.
        -12    1    4    4    0    0 -0.90570055408E-01 -0.99853508110E+00 -0.72875050346E-01  0.10052790737E+01  0.00000000000E+00 0.  1.
</event>
<event>
 8    1  0.1240174E-006  0.9118800E+02  0.7816164E-02  0.1184000E+00
        -11   -1    0    0    0    0  0.00000000000E+00  0.00000000000E+00  0.45593999997E+02  0.45594000000E+02  0.51100000000E-03 0.  1.
         11   -1    0    0    0    0 -0.00000000000E+00 -0.00000000000E+00 -0.45593999997E+02  0.45594000000E+02  0.51100000000E-03 0. -1.
         23    2    1    2    0    0  0.00000000000E+00  0.00000000000E+00  0.17763568394E-14  0.91188000000E+02  0.91188000000E+02 0.  0.
    9900012    2    3    3    0    0 -0.31609351768E+02 -0.13506523118E+02 -0.13198558669E+02  0.54367092394E+02  0.40000018731E+02 0.  0.
        -12    1    3    3    0    0  0.31609351768E+02  0.13506523118E+02  0.13198558669E+02  0.36820907606E+02  0.00000000000E+00 0.  1.
         11    1    4    4    0    0 -0.20555596564E+02 -0.87720979107E+01 -0.13748170342E+02  0.26239177577E+02  0.51100000000E-03 0. -1.
        -11    1    4    4    0    0 -0.12570665895E+02 -0.96469985343E+01  0.90097119041E+01  0.18228031452E+02  0.51100000000E-03 0.  1.
        -12    1    4    4    0    0  0.15169106906E+01  0.49125733266E+01 -0.84601002314E+01  0.98998833658E+01  0.00000000000E+00 0.  1.
</event>
<event>
 8    1  0.1240174E-006  0.9118800E+02  0.7816164E-02  0.1184000E+00
        -11   -1    0    0    0    0  0.00000000000E+00  0.00000000000E+00  0.45593999997E+02  0.45594000000E+02  0.51100000000E-03 0.  1.
         11   -1    0    0    0    0 -0.00000000000E+00 -0.00000000000E+00 -0.45593999997E+02  0.45594000000E+02  0.51100000000E-03 0. -1.
         23    2    1    2    0    0  0.00000000000E+00  0.17763568394E-14  0.17763568394E-14  0.91188000000E+02  0.91188000000E+02 0.  0.
    9900012    2    3    3    0    0  0.31950086653E+02 -0.15634216326E+02 -0.95151561919E+01  0.54367150545E+02  0.40000151297E+02 0.  0.
        -12    1    3    3    0    0 -0.31950086653E+02  0.15634216326E+02  0.95151561919E+01  0.36820849455E+02  0.00000000000E+00 0.  1.
         11    1    4    4    0    0  0.20717601846E+02 -0.12431557327E+02  0.83250523860E+01  0.25555217497E+02  0.51100000000E-03 0.  1.
        -11    1    4    4    0    0  0.12107963363E+02 -0.53147541470E+01 -0.26947248865E+01  0.13494848310E+02  0.51100000000E-03 0. -1.
        -12    1    4    4    0    0 -0.87547855592E+00  0.21120951485E+01 -0.15145483691E+02  0.15317084738E+02  0.00000000000E+00 0.  1.
</event>
<event>
 8    1  0.1240174E-006  0.9118800E+02  0.7816164E-02  0.1184000E+00
        -11   -1    0    0    0    0  0.00000000000E+00  0.00000000000E+00  0.45593999997E+02  0.45594000000E+02  0.51100000000E-03 0.  1.
         11   -1    0    0    0    0 -0.00000000000E+00 -0.00000000000E+00 -0.45593999997E+02  0.45594000000E+02  0.51100000000E-03 0. -1.
         23    2    1    2    0    0  0.35527136788E-14  0.00000000000E+00  0.17763568394E-14  0.91188000000E+02  0.91188000000E+02 0.  0.
    9900012    2    3    3    0    0  0.30973975303E+02 -0.15367992098E+02 -0.12657703189E+02  0.54367085057E+02  0.40000002004E+02 0.  0.
        -12    1    3    3    0    0 -0.30973975303E+02  0.15367992098E+02  0.12657703189E+02  0.36820914943E+02  0.00000000000E+00 0.  1.
         11    1    4    4    0    0  0.23715396813E+01 -0.21028070578E+01 -0.41300257103E+01  0.52060647913E+01  0.51100000000E-03 0. -1.
        -11    1    4    4    0    0 -0.40454997870E+01 -0.15170533564E+02 -0.22633112685E+01  0.15862967417E+02  0.51100000000E-03 0.  1.
        -12    1    4    4    0    0  0.32647935409E+02  0.19053485230E+01 -0.62643662103E+01  0.33298052848E+02  0.00000000000E+00 0.  1.
</event>
<event>
 8    1  0.1240174E-006  0.9118800E+02  0.7816164E-02  0.1184000E+00
        -11   -1    0    0    0    0  0.00000000000E+00  0.00000000000E+00  0.45593999997E+02  0.45594000000E+02  0.51100000000E-03 0.  1.
         11   -1    0    0    0    0 -0.00000000000E+00 -0.00000000000E+00 -0.45593999997E+02  0.45594000000E+02  0.51100000000E-03 0. -1.
         23    2    1    2    0    0 -0.17763568394E-14  0.35527136788E-14  0.00000000000E+00  0.91188000000E+02  0.91188000000E+02 0.  0.
    9900012    2    3    3    0    0  0.98869567777E+01 -0.30305669224E+02 -0.18428074101E+02  0.54367089955E+02  0.40000013171E+02 0.  0.
        -12    1    3    3    0    0 -0.98869567777E+01  0.30305669224E+02  0.18428074101E+02  0.36820910045E+02  0.00000000000E+00 0.  1.
         11    1    4    4    0    0  0.17232551087E+02 -0.66909213019E+01 -0.17533001313E+02  0.25478135335E+02  0.51100000000E-03 0. -1.
        -11    1    4    4    0    0 -0.81808581700E+01 -0.16377492282E+02 -0.67815212064E+01  0.19522748883E+02  0.51100000000E-03 0.  1.
         12    1    4    4    0    0  0.83526386080E+00 -0.72372556409E+01  0.58864484184E+01  0.93662057372E+01  0.00000000000E+00 0. -1.
</event>
<event>
 8    1  0.1240174E-006  0.9118800E+02  0.7816164E-02  0.1184000E+00
        -11   -1    0    0    0    0  0.00000000000E+00  0.00000000000E+00  0.45593999997E+02  0.45594000000E+02  0.51100000000E-03 0.  1.
         11   -1    0    0    0    0 -0.00000000000E+00 -0.00000000000E+00 -0.45593999997E+02  0.45594000000E+02  0.51100000000E-03 0. -1.
         23    2    1    2    0    0  0.00000000000E+00  0.00000000000E+00  0.00000000000E+00  0.91188000000E+02  0.91188000000E+02 0.  0.
    9900012    2    3    3    0    0 -0.49575590564E+01 -0.24665502106E+02  0.26885215876E+02  0.54367092643E+02  0.40000019297E+02 0.  0.
         12    1    3    3    0    0  0.49575590564E+01  0.24665502106E+02 -0.26885215876E+02  0.36820907357E+02  0.00000000000E+00 0. -1.
         11    1    4    4    0    0  0.70081120795E+01 -0.24743316987E+02  0.13615216487E+02  0.29098444815E+02  0.51100000000E-03 0. -1.
        -11    1    4    4    0    0 -0.21550510612E+00 -0.54918029929E+01  0.10678096411E+02  0.12009499815E+02  0.51100000000E-03 0.  1.
         12    1    4    4    0    0 -0.11750166030E+02  0.55696178734E+01  0.25919029777E+01  0.13259148013E+02  0.00000000000E+00 0. -1.
</event>
<event>
 8    1  0.1240174E-006  0.9118800E+02  0.7816164E-02  0.1184000E+00
        -11   -1    0    0    0    0  0.00000000000E+00  0.00000000000E+00  0.45593999997E+02  0.45594000000E+02  0.51100000000E-03 0.  1.
         11   -1    0    0    0    0 -0.00000000000E+00 -0.00000000000E+00 -0.45593999997E+02  0.45594000000E+02  0.51100000000E-03 0. -1.
         23    2    1    2    0    0  0.17763568394E-14  0.00000000000E+00  0.00000000000E+00  0.91188000000E+02  0.91188000000E+02 0.  0.
    9900012    2    3    3    0    0 -0.13534809625E+02 -0.33894500450E+02  0.48736671195E+01  0.54367070306E+02  0.39999968376E+02 0.  0.
         12    1    3    3    0    0  0.13534809625E+02  0.33894500450E+02 -0.48736671195E+01  0.36820929694E+02  0.00000000000E+00 0. -1.
         11    1    4    4    0    0 -0.81064443440E+00 -0.87203706984E+01 -0.14596793296E+02  0.17022584537E+02  0.51100000000E-03 0. -1.
        -11    1    4    4    0    0  0.15106358659E+01 -0.11292233589E+02  0.37390359436E+01  0.11990702656E+02  0.51100000000E-03 0.  1.
        -12    1    4    4    0    0 -0.14234801057E+02 -0.13881896163E+02  0.15731424472E+02  0.25353783113E+02  0.00000000000E+00 0.  1.
</event>
<event>
 8    1  0.1240174E-006  0.9118800E+02  0.7816164E-02  0.1184000E+00
        -11   -1    0    0    0    0  0.00000000000E+00  0.00000000000E+00  0.45593999997E+02  0.45594000000E+02  0.51100000000E-03 0. -1.
         11   -1    0    0    0    0 -0.00000000000E+00 -0.00000000000E+00 -0.45593999997E+02  0.45594000000E+02  0.51100000000E-03 0.  1.
         23    2    1    2    0    0  0.35527136788E-14  0.00000000000E+00  0.71054273576E-14  0.91188000000E+02  0.91188000000E+02 0.  0.
    9900012    2    3    3    0    0 -0.99966294477E+01  0.10869317871E+02 -0.33729877279E+02  0.54367091639E+02  0.40000017009E+02 0.  0.
         12    1    3    3    0    0  0.99966294477E+01 -0.10869317871E+02  0.33729877279E+02  0.36820908361E+02  0.00000000000E+00 0. -1.
         11    1    4    4    0    0 -0.73091407024E+01 -0.42154214480E+01 -0.52963797960E+01  0.99621762179E+01  0.51100000000E-03 0. -1.
        -11    1    4    4    0    0  0.11272240901E+02  0.10536509378E+02 -0.24917065925E+02  0.29307705802E+02  0.51100000000E-03 0.  1.
        -12    1    4    4    0    0 -0.13959729646E+02  0.45482299406E+01 -0.35164315577E+01  0.15097209619E+02  0.00000000000E+00 0.  1.
</event>
<event>
 8    1  0.1240174E-006  0.9118800E+02  0.7816164E-02  0.1184000E+00
        -11   -1    0    0    0    0  0.00000000000E+00  0.00000000000E+00  0.45593999997E+02  0.45594000000E+02  0.51100000000E-03 0. -1.
         11   -1    0    0    0    0 -0.00000000000E+00 -0.00000000000E+00 -0.45593999997E+02  0.45594000000E+02  0.51100000000E-03 0.  1.
         23    2    1    2    0    0  0.00000000000E+00 -0.88817841970E-15  0.00000000000E+00  0.91188000000E+02  0.91188000000E+02 0.  0.
    9900012    2    3    3    0    0 -0.34730901712E+02  0.71371692829E+01 -0.99300071492E+01  0.54367085276E+02  0.40000002504E+02 0.  0.
         12    1    3    3    0    0  0.34730901712E+02 -0.71371692829E+01  0.99300071492E+01  0.36820914724E+02  0.00000000000E+00 0. -1.
         11    1    4    4    0    0 -0.10188132367E+02  0.88216356452E+01 -0.14352575919E+02  0.19687959071E+02  0.51100000000E-03 0.  1.
        -11    1    4    4    0    0 -0.79960936728E+01 -0.44603452223E+01 -0.92652996502E+01  0.13026049723E+02  0.51100000000E-03 0. -1.
         12    1    4    4    0    0 -0.16546675672E+02  0.27758788601E+01  0.13687868420E+02  0.21653076482E+02  0.00000000000E+00 0. -1.
</event>
<event>
 8    1  0.1240174E-006  0.9118800E+02  0.7816164E-02  0.1184000E+00
        -11   -1    0    0    0    0  0.00000000000E+00  0.00000000000E+00  0.45593999997E+02  0.45594000000E+02  0.51100000000E-03 0. -1.
         11   -1    0    0    0    0 -0.00000000000E+00 -0.00000000000E+00 -0.45593999997E+02  0.45594000000E+02  0.51100000000E-03 0.  1.
         23    2    1    2    0    0 -0.35527136788E-14  0.71054273576E-14  0.00000000000E+00  0.91188000000E+02  0.91188000000E+02 0.  0.
    9900012    2    3    3    0    0 -0.15677232174E+02  0.27885149460E+02 -0.18232467743E+02  0.54367081366E+02  0.39999993590E+02 0.  0.
         12    1    3    3    0    0  0.15677232174E+02 -0.27885149460E+02  0.18232467743E+02  0.36820918634E+02  0.00000000000E+00 0. -1.
         11    1    4    4    0    0 -0.97508359626E+01  0.12925085415E+02  0.10875816274E+02  0.19504358868E+02  0.51100000000E-03 0. -1.
        -11    1    4    4    0    0 -0.21170699649E+01  0.61463362052E+01 -0.32266921116E+01  0.72574772633E+01  0.51100000000E-03 0.  1.
        -12    1    4    4    0    0 -0.38093262466E+01  0.88137278396E+01 -0.25881591906E+02  0.27605245235E+02  0.00000000000E+00 0.  1.
</event>
<event>
 8    1  0.1240174E-006  0.9118800E+02  0.7816164E-02  0.1184000E+00
        -11   -1    0    0    0    0  0.00000000000E+00  0.00000000000E+00  0.45593999997E+02  0.45594000000E+02  0.51100000000E-03 0. -1.
         11   -1    0    0    0    0 -0.00000000000E+00 -0.00000000000E+00 -0.45593999997E+02  0.45594000000E+02  0.51100000000E-03 0.  1.
         23    2    1    2    0    0 -0.35527136788E-14  0.00000000000E+00  0.00000000000E+00  0.91188000000E+02  0.91188000000E+02 0.  0.
    9900012    2    3    3    0    0  0.28070134771E+02  0.18664348880E+02 -0.14815174320E+02  0.54367085083E+02  0.40000002064E+02 0.  0.
        -12    1    3    3    0    0 -0.28070134771E+02 -0.18664348880E+02  0.14815174320E+02  0.36820914917E+02  0.00000000000E+00 0.  1.
         11    1    4    4    0    0  0.47426578746E+01  0.11168241835E+02 -0.14945240569E+02  0.19250523248E+02  0.51100000000E-03 0. -1.
        -11    1    4    4    0    0  0.44081723492E+00 -0.69906280883E+01 -0.34267069153E+01  0.77977895232E+01  0.51100000000E-03 0.  1.
        -12    1    4    4    0    0  0.22886659662E+02  0.14486735133E+02  0.35567731640E+01  0.27318772312E+02  0.00000000000E+00 0.  1.
</event>
<event>
 8    1  0.1240174E-006  0.9118800E+02  0.7816164E-02  0.1184000E+00
        -11   -1    0    0    0    0  0.00000000000E+00  0.00000000000E+00  0.45593999997E+02  0.45594000000E+02  0.51100000000E-03 0. -1.
         11   -1    0    0    0    0 -0.00000000000E+00 -0.00000000000E+00 -0.45593999997E+02  0.45594000000E+02  0.51100000000E-03 0.  1.
         23    2    1    2    0    0  0.35527136788E-14  0.00000000000E+00 -0.17763568394E-14  0.91188000000E+02  0.91188000000E+02 0.  0.
    9900012    2    3    3    0    0 -0.28509749979E+02 -0.18280266911E+02  0.14450222661E+02  0.54367042148E+02  0.39999904186E+02 0.  0.
        -12    1    3    3    0    0  0.28509749979E+02  0.18280266911E+02 -0.14450222661E+02  0.36820957852E+02  0.00000000000E+00 0.  1.
         11    1    4    4    0    0 -0.11214677689E+02  0.81695959038E+01  0.11304217960E+02  0.17896833151E+02  0.51100000000E-03 0. -1.
        -11    1    4    4    0    0 -0.73820789294E+01 -0.31940373657E+01 -0.55090990384E+01  0.97492120959E+01  0.51100000000E-03 0.  1.
         12    1    4    4    0    0 -0.99129933606E+01 -0.23255825449E+02  0.86551037388E+01  0.26720996901E+02  0.00000000000E+00 0. -1.
</event>
<event>
 8    1  0.1240174E-006  0.9118800E+02  0.7816164E-02  0.1184000E+00
        -11   -1    0    0    0    0  0.00000000000E+00  0.00000000000E+00  0.45593999997E+02  0.45594000000E+02  0.51100000000E-03 0.  1.
         11   -1    0    0    0    0 -0.00000000000E+00 -0.00000000000E+00 -0.45593999997E+02  0.45594000000E+02  0.51100000000E-03 0. -1.
         23    2    1    2    0    0  0.00000000000E+00  0.00000000000E+00  0.00000000000E+00  0.91188000000E+02  0.91188000000E+02 0.  0.
    9900012    2    3    3    0    0  0.10669526698E+02 -0.34918033974E+02  0.47613804556E+01  0.54367100494E+02  0.40000037196E+02 0.  0.
         12    1    3    3    0    0 -0.10669526698E+02  0.34918033974E+02 -0.47613804556E+01  0.36820899506E+02  0.00000000000E+00 0. -1.
         11    1    4    4    0    0  0.13897779596E+02 -0.16727509640E+02 -0.12379772095E+02  0.25024320447E+02  0.51100000000E-03 0. -1.
        -11    1    4    4    0    0  0.31449194379E+00 -0.11631985216E+02  0.11417647130E+01  0.11692117523E+02  0.51100000000E-03 0.  1.
        -12    1    4    4    0    0 -0.35427448413E+01 -0.65585391181E+01  0.15999387838E+02  0.17650662524E+02  0.00000000000E+00 0.  1.
</event>
<event>
 8    1  0.1240174E-006  0.9118800E+02  0.7816164E-02  0.1184000E+00
        -11   -1    0    0    0    0  0.00000000000E+00  0.00000000000E+00  0.45593999997E+02  0.45594000000E+02  0.51100000000E-03 0.  1.
         11   -1    0    0    0    0 -0.00000000000E+00 -0.00000000000E+00 -0.45593999997E+02  0.45594000000E+02  0.51100000000E-03 0. -1.
         23    2    1    2    0    0  0.00000000000E+00  0.35527136788E-14  0.00000000000E+00  0.91188000000E+02  0.91188000000E+02 0.  0.
    9900012    2    3    3    0    0 -0.12999086768E+02 -0.28316727088E+02 -0.19620559026E+02  0.54367087107E+02  0.40000006679E+02 0.  0.
        -12    1    3    3    0    0  0.12999086768E+02  0.28316727088E+02  0.19620559026E+02  0.36820912893E+02  0.00000000000E+00 0.  1.
         11    1    4    4    0    0 -0.58129364784E+01  0.79739231292E+01 -0.13704434666E+02  0.16887427582E+02  0.51100000000E-03 0. -1.
        -11    1    4    4    0    0 -0.55875296147E+01 -0.25865394362E+02 -0.43299352441E+01  0.26813941377E+02  0.51100000000E-03 0.  1.
         12    1    4    4    0    0 -0.15986206745E+01 -0.10425255855E+02 -0.15861891159E+01  0.10665718148E+02  0.00000000000E+00 0. -1.
</event>
<event>
 8    1  0.1240174E-006  0.9118800E+02  0.7816164E-02  0.1184000E+00
        -11   -1    0    0    0    0  0.00000000000E+00  0.00000000000E+00  0.45593999997E+02  0.45594000000E+02  0.51100000000E-03 0.  1.
         11   -1    0    0    0    0 -0.00000000000E+00 -0.00000000000E+00 -0.45593999997E+02  0.45594000000E+02  0.51100000000E-03 0. -1.
         23    2    1    2    0    0  0.00000000000E+00  0.35527136788E-14  0.66613381478E-15  0.91188000000E+02  0.91188000000E+02 0.  0.
    9900012    2    3    3    0    0 -0.18284606471E+02 -0.31945323234E+02 -0.97174476687E+00  0.54367152669E+02  0.40000156139E+02 0.  0.
         12    1    3    3    0    0  0.18284606471E+02  0.31945323234E+02  0.97174476687E+00  0.36820847331E+02  0.00000000000E+00 0. -1.
         11    1    4    4    0    0  0.22679729510E+01  0.22333927125E+01 -0.64775969328E+00  0.32482821916E+01  0.51100000000E-03 0. -1.
        -11    1    4    4    0    0 -0.64193001740E+01 -0.11263376401E+02 -0.15504791360E+02  0.20210631313E+02  0.51100000000E-03 0.  1.
        -12    1    4    4    0    0 -0.14133279248E+02 -0.22915339545E+02  0.15180806286E+02  0.30908239165E+02  0.00000000000E+00 0.  1.
</event>
<event>
 8    1  0.1240174E-006  0.9118800E+02  0.7816164E-02  0.1184000E+00
        -11   -1    0    0    0    0  0.00000000000E+00  0.00000000000E+00  0.45593999997E+02  0.45594000000E+02  0.51100000000E-03 0.  1.
         11   -1    0    0    0    0 -0.00000000000E+00 -0.00000000000E+00 -0.45593999997E+02  0.45594000000E+02  0.51100000000E-03 0. -1.
         23    2    1    2    0    0  0.35527136788E-14  0.35527136788E-14  0.00000000000E+00  0.91188000000E+02  0.91188000000E+02 0.  0.
    9900012    2    3    3    0    0  0.20554502823E+02 -0.26829456683E+02 -0.14610707534E+02  0.54367080581E+02  0.39999991800E+02 0.  0.
        -12    1    3    3    0    0 -0.20554502823E+02  0.26829456683E+02  0.14610707534E+02  0.36820919419E+02  0.00000000000E+00 0.  1.
         11    1    4    4    0    0 -0.10027999440E+02 -0.31252488646E+01 -0.18201797490E+01  0.10660253647E+02  0.51100000000E-03 0. -1.
        -11    1    4    4    0    0  0.21360285792E+02 -0.24285768239E+02 -0.11736030833E+02  0.34406318722E+02  0.51100000000E-03 0.  1.
         12    1    4    4    0    0  0.92222164717E+01  0.58156042009E+00 -0.10544969522E+01  0.93005082117E+01  0.00000000000E+00 0. -1.
</event>
<event>
 8    1  0.1240174E-006  0.9118800E+02  0.7816164E-02  0.1184000E+00
        -11   -1    0    0    0    0  0.00000000000E+00  0.00000000000E+00  0.45593999997E+02  0.45594000000E+02  0.51100000000E-03 0. -1.
         11   -1    0    0    0    0 -0.00000000000E+00 -0.00000000000E+00 -0.45593999997E+02  0.45594000000E+02  0.51100000000E-03 0.  1.
         23    2    1    2    0    0  0.22204460493E-15  0.00000000000E+00  0.00000000000E+00  0.91188000000E+02  0.91188000000E+02 0.  0.
    9900012    2    3    3    0    0 -0.10275632108E+01 -0.32408002271E+02  0.17448435804E+02  0.54367049315E+02  0.39999920523E+02 0.  0.
         12    1    3    3    0    0  0.10275632108E+01  0.32408002271E+02 -0.17448435804E+02  0.36820950685E+02  0.00000000000E+00 0. -1.
         11    1    4    4    0    0  0.86711619653E+01 -0.20063511484E+02  0.26342716686E+02  0.34229698590E+02  0.51100000000E-03 0. -1.
        -11    1    4    4    0    0 -0.28287058061E+00 -0.73149354999E+01 -0.45028422073E+01  0.85944101216E+01  0.51100000000E-03 0.  1.
        -12    1    4    4    0    0 -0.94158545955E+01 -0.50295552868E+01 -0.43914386745E+01  0.11542940604E+02  0.00000000000E+00 0.  1.
</event>
<event>
 8    1  0.1240174E-006  0.9118800E+02  0.7816164E-02  0.1184000E+00
        -11   -1    0    0    0    0  0.00000000000E+00  0.00000000000E+00  0.45593999997E+02  0.45594000000E+02  0.51100000000E-03 0.  1.
         11   -1    0    0    0    0 -0.00000000000E+00 -0.00000000000E+00 -0.45593999997E+02  0.45594000000E+02  0.51100000000E-03 0. -1.
         23    2    1    2    0    0 -0.88817841970E-15  0.35527136788E-14  0.35527136788E-14  0.91188000000E+02  0.91188000000E+02 0.  0.
    9900012    2    3    3    0    0 -0.53082552932E+01 -0.17508144835E+02 -0.31954119422E+02  0.54367102973E+02  0.40000042848E+02 0.  0.
        -12    1    3    3    0    0  0.53082552932E+01  0.17508144835E+02  0.31954119422E+02  0.36820897027E+02  0.00000000000E+00 0.  1.
         11    1    4    4    0    0 -0.92627995867E+01 -0.35762008291E+01 -0.57602969473E+01  0.11479097950E+02  0.51100000000E-03 0.  1.
        -11    1    4    4    0    0  0.95811516722E+01 -0.99265790685E+01  0.19281780419E+01  0.13930301870E+02  0.51100000000E-03 0. -1.
         12    1    4    4    0    0 -0.56266073787E+01 -0.40053649372E+01 -0.28122000517E+02  0.28957703154E+02  0.00000000000E+00 0. -1.
</event>
<event>
 8    1  0.1240174E-006  0.9118800E+02  0.7816164E-02  0.1184000E+00
        -11   -1    0    0    0    0  0.00000000000E+00  0.00000000000E+00  0.45593999997E+02  0.45594000000E+02  0.51100000000E-03 0.  1.
         11   -1    0    0    0    0 -0.00000000000E+00 -0.00000000000E+00 -0.45593999997E+02  0.45594000000E+02  0.51100000000E-03 0. -1.
         23    2    1    2    0    0  0.00000000000E+00  0.00000000000E+00  0.00000000000E+00  0.91188000000E+02  0.91188000000E+02 0.  0.
    9900012    2    3    3    0    0  0.18180907738E+02 -0.42304350644E+01 -0.31738590140E+02  0.54367080795E+02  0.39999992288E+02 0.  0.
        -12    1    3    3    0    0 -0.18180907738E+02  0.42304350644E+01  0.31738590140E+02  0.36820919205E+02  0.00000000000E+00 0.  1.
         11    1    4    4    0    0  0.10835090278E+02  0.47349148801E+01 -0.23835128689E+02  0.26606990813E+02  0.51100000000E-03 0. -1.
        -11    1    4    4    0    0  0.99922471756E+01 -0.13260165511E+02  0.19228382518E+01  0.16714493717E+02  0.51100000000E-03 0.  1.
        -12    1    4    4    0    0 -0.26464297154E+01  0.42948155668E+01 -0.98262997037E+01  0.11045596265E+02  0.00000000000E+00 0.  1.
</event>
<event>
 8    1  0.1240174E-006  0.9118800E+02  0.7816164E-02  0.1184000E+00
        -11   -1    0    0    0    0  0.00000000000E+00  0.00000000000E+00  0.45593999997E+02  0.45594000000E+02  0.51100000000E-03 0.  1.
         11   -1    0    0    0    0 -0.00000000000E+00 -0.00000000000E+00 -0.45593999997E+02  0.45594000000E+02  0.51100000000E-03 0. -1.
         23    2    1    2    0    0 -0.35527136788E-14  0.00000000000E+00  0.00000000000E+00  0.91188000000E+02  0.91188000000E+02 0.  0.
    9900012    2    3    3    0    0  0.26736482627E+02  0.15456841060E+02 -0.20051046079E+02  0.54366839132E+02  0.39999441365E+02 0.  0.
        -12    1    3    3    0    0 -0.26736482627E+02 -0.15456841060E+02  0.20051046079E+02  0.36821160868E+02  0.00000000000E+00 0.  1.
         11    1    4    4    0    0  0.17160853748E+02  0.18256428249E+02 -0.39807598013E+01  0.25370031979E+02  0.51100000000E-03 0. -1.
        -11    1    4    4    0    0 -0.62705987292E+01  0.33381377508E+01 -0.39951545664E+01  0.81501430869E+01  0.51100000000E-03 0.  1.
         12    1    4    4    0    0  0.15846227608E+02 -0.61377249394E+01 -0.12075131711E+02  0.20846664066E+02  0.00000000000E+00 0. -1.
</event>
<event>
 8    1  0.1240174E-006  0.9118800E+02  0.7816164E-02  0.1184000E+00
        -11   -1    0    0    0    0  0.00000000000E+00  0.00000000000E+00  0.45593999997E+02  0.45594000000E+02  0.51100000000E-03 0.  1.
         11   -1    0    0    0    0 -0.00000000000E+00 -0.00000000000E+00 -0.45593999997E+02  0.45594000000E+02  0.51100000000E-03 0. -1.
         23    2    1    2    0    0 -0.17763568394E-14  0.35527136788E-14  0.00000000000E+00  0.91188000000E+02  0.91188000000E+02 0.  0.
    9900012    2    3    3    0    0  0.14906621790E+02 -0.21204545033E+02 -0.26152227229E+02  0.54367094358E+02  0.40000023208E+02 0.  0.
        -12    1    3    3    0    0 -0.14906621790E+02  0.21204545033E+02  0.26152227229E+02  0.36820905642E+02  0.00000000000E+00 0.  1.
         11    1    4    4    0    0  0.16009730129E+02  0.64673769477E+01 -0.11172220082E+02  0.20565916590E+02  0.51100000000E-03 0. -1.
        -11    1    4    4    0    0 -0.12855420825E+01 -0.32230460387E+01 -0.74497904930E+01  0.82182737156E+01  0.51100000000E-03 0.  1.
         12    1    4    4    0    0  0.18243374424E+00 -0.24448875942E+02 -0.75302166538E+01  0.25582904052E+02  0.00000000000E+00 0. -1.
</event>
<event>
 8    1  0.1240174E-006  0.9118800E+02  0.7816164E-02  0.1184000E+00
        -11   -1    0    0    0    0  0.00000000000E+00  0.00000000000E+00  0.45593999997E+02  0.45594000000E+02  0.51100000000E-03 0. -1.
         11   -1    0    0    0    0 -0.00000000000E+00 -0.00000000000E+00 -0.45593999997E+02  0.45594000000E+02  0.51100000000E-03 0.  1.
         23    2    1    2    0    0  0.71054273576E-14  0.00000000000E+00  0.00000000000E+00  0.91188000000E+02  0.91188000000E+02 0.  0.
    9900012    2    3    3    0    0 -0.35128431727E+02 -0.68849123612E+01 -0.86238194656E+01  0.54367095666E+02  0.40000026189E+02 0.  0.
        -12    1    3    3    0    0  0.35128431727E+02  0.68849123612E+01  0.86238194656E+01  0.36820904334E+02  0.00000000000E+00 0.  1.
         11    1    4    4    0    0 -0.61324526144E+01 -0.89524315369E+01  0.79322514105E+01  0.13441488690E+02  0.51100000000E-03 0. -1.
        -11    1    4    4    0    0 -0.17466739400E+02 -0.74513844048E+01 -0.51411730713E+00  0.18996695283E+02  0.51100000000E-03 0.  1.
        -12    1    4    4    0    0 -0.11529239713E+02  0.95189035805E+01 -0.16041953569E+02  0.21928911693E+02  0.00000000000E+00 0.  1.
</event>
<event>
 8    1  0.1240174E-006  0.9118800E+02  0.7816164E-02  0.1184000E+00
        -11   -1    0    0    0    0  0.00000000000E+00  0.00000000000E+00  0.45593999997E+02  0.45594000000E+02  0.51100000000E-03 0.  1.
         11   -1    0    0    0    0 -0.00000000000E+00 -0.00000000000E+00 -0.45593999997E+02  0.45594000000E+02  0.51100000000E-03 0. -1.
         23    2    1    2    0    0  0.00000000000E+00  0.00000000000E+00  0.00000000000E+00  0.91188000000E+02  0.91188000000E+02 0.  0.
    9900012    2    3    3    0    0 -0.17528831453E+02 -0.25852900403E+02 -0.19497367861E+02  0.54367085497E+02  0.40000003008E+02 0.  0.
        -12    1    3    3    0    0  0.17528831453E+02  0.25852900403E+02  0.19497367861E+02  0.36820914503E+02  0.00000000000E+00 0.  1.
         11    1    4    4    0    0 -0.21496790689E+02 -0.44853638966E+01 -0.85062076583E+01  0.23549651127E+02  0.51100000000E-03 0.  1.
        -11    1    4    4    0    0 -0.56699140499E+01 -0.11008219752E+02 -0.11156349624E+02  0.16667122266E+02  0.51100000000E-03 0. -1.
        -12    1    4    4    0    0  0.96378732865E+01 -0.10359316754E+02  0.16518942058E+00  0.14150312104E+02  0.00000000000E+00 0.  1.
</event>
<event>
 8    1  0.1240174E-006  0.9118800E+02  0.7816164E-02  0.1184000E+00
        -11   -1    0    0    0    0  0.00000000000E+00  0.00000000000E+00  0.45593999997E+02  0.45594000000E+02  0.51100000000E-03 0.  1.
         11   -1    0    0    0    0 -0.00000000000E+00 -0.00000000000E+00 -0.45593999997E+02  0.45594000000E+02  0.51100000000E-03 0. -1.
         23    2    1    2    0    0  0.00000000000E+00 -0.17763568394E-14  0.00000000000E+00  0.91188000000E+02  0.91188000000E+02 0.  0.
    9900012    2    3    3    0    0 -0.33043323190E+02 -0.36607115049E+01  0.15827748951E+02  0.54367086744E+02  0.40000005849E+02 0.  0.
         12    1    3    3    0    0  0.33043323190E+02  0.36607115049E+01 -0.15827748951E+02  0.36820913256E+02  0.00000000000E+00 0. -1.
         11    1    4    4    0    0 -0.10663449230E+02 -0.19180835538E+02  0.52507773139E+01  0.22565111657E+02  0.51100000000E-03 0. -1.
        -11    1    4    4    0    0 -0.11468056551E+02  0.15232128489E+02  0.71077418546E+01  0.20348318208E+02  0.51100000000E-03 0.  1.
         12    1    4    4    0    0 -0.10911817409E+02  0.28799554427E+00  0.34692297824E+01  0.11453656878E+02  0.00000000000E+00 0. -1.
</event>
<event>
 8    1  0.1240174E-006  0.9118800E+02  0.7816164E-02  0.1184000E+00
        -11   -1    0    0    0    0  0.00000000000E+00  0.00000000000E+00  0.45593999997E+02  0.45594000000E+02  0.51100000000E-03 0.  1.
         11   -1    0    0    0    0 -0.00000000000E+00 -0.00000000000E+00 -0.45593999997E+02  0.45594000000E+02  0.51100000000E-03 0. -1.
         23    2    1    2    0    0 -0.71054273576E-14  0.00000000000E+00  0.00000000000E+00  0.91188000000E+02  0.91188000000E+02 0.  0.
    9900012    2    3    3    0    0 -0.31102257690E+02  0.14512037172E+02 -0.13335266479E+02  0.54367095769E+02  0.40000026425E+02 0.  0.
        -12    1    3    3    0    0  0.31102257690E+02 -0.14512037172E+02  0.13335266479E+02  0.36820904231E+02  0.00000000000E+00 0.  1.
         11    1    4    4    0    0 -0.16478538220E+02  0.11410508077E+02 -0.30915931867E+01  0.20280529212E+02  0.51100000000E-03 0. -1.
        -11    1    4    4    0    0 -0.19691514283E+02  0.54603484219E+01  0.20940822655E+01  0.20541575413E+02  0.51100000000E-03 0.  1.
         12    1    4    4    0    0  0.50677948126E+01 -0.23588193278E+01 -0.12337755558E+02  0.13544991144E+02  0.00000000000E+00 0. -1.
</event>
<event>
 8    1  0.1240174E-006  0.9118800E+02  0.7816164E-02  0.1184000E+00
        -11   -1    0    0    0    0  0.00000000000E+00  0.00000000000E+00  0.45593999997E+02  0.45594000000E+02  0.51100000000E-03 0.  1.
         11   -1    0    0    0    0 -0.00000000000E+00 -0.00000000000E+00 -0.45593999997E+02  0.45594000000E+02  0.51100000000E-03 0. -1.
         23    2    1    2    0    0  0.35527136788E-14  0.00000000000E+00  0.00000000000E+00  0.91188000000E+02  0.91188000000E+02 0.  0.
    9900012    2    3    3    0    0 -0.18116332866E+02  0.86911542253E+01 -0.30855187119E+02  0.54367078631E+02  0.39999987356E+02 0.  0.
        -12    1    3    3    0    0  0.18116332866E+02 -0.86911542253E+01  0.30855187119E+02  0.36820921369E+02  0.00000000000E+00 0.  1.
         11    1    4    4    0    0 -0.62023671557E+01  0.28325317674E+01  0.41077601797E+01  0.79602944985E+01  0.51100000000E-03 0. -1.
        -11    1    4    4    0    0 -0.76887141447E+01  0.66813777518E+01  0.95593646034E+00  0.10230882105E+02  0.51100000000E-03 0.  1.
         12    1    4    4    0    0 -0.42252515659E+01 -0.82275529381E+00 -0.35918883759E+02  0.36175902028E+02  0.00000000000E+00 0. -1.
</event>
<event>
 8    1  0.1240174E-006  0.9118800E+02  0.7816164E-02  0.1184000E+00
        -11   -1    0    0    0    0  0.00000000000E+00  0.00000000000E+00  0.45593999997E+02  0.45594000000E+02  0.51100000000E-03 0.  1.
         11   -1    0    0    0    0 -0.00000000000E+00 -0.00000000000E+00 -0.45593999997E+02  0.45594000000E+02  0.51100000000E-03 0. -1.
         23    2    1    2    0    0  0.00000000000E+00  0.35527136788E-14  0.00000000000E+00  0.91188000000E+02  0.91188000000E+02 0.  0.
    9900012    2    3    3    0    0 -0.18942152788E+02 -0.19333783053E+02  0.24963499931E+02  0.54367127547E+02  0.40000098869E+02 0.  0.
         12    1    3    3    0    0  0.18942152788E+02  0.19333783053E+02 -0.24963499931E+02  0.36820872453E+02  0.00000000000E+00 0. -1.
         11    1    4    4    0    0  0.42087780647E+01 -0.21056625581E+01 -0.79493414386E+01  0.92379465887E+01  0.51100000000E-03 0. -1.
        -11    1    4    4    0    0 -0.11817735513E+02 -0.12133167206E+02  0.25646964084E+02  0.30734986352E+02  0.51100000000E-03 0.  1.
         12    1    4    4    0    0 -0.11333195339E+02 -0.50949532898E+01  0.72658772857E+01  0.14394194606E+02  0.00000000000E+00 0. -1.
</event>
<event>
 8    1  0.1240174E-006  0.9118800E+02  0.7816164E-02  0.1184000E+00
        -11   -1    0    0    0    0  0.00000000000E+00  0.00000000000E+00  0.45593999997E+02  0.45594000000E+02  0.51100000000E-03 0.  1.
         11   -1    0    0    0    0 -0.00000000000E+00 -0.00000000000E+00 -0.45593999997E+02  0.45594000000E+02  0.51100000000E-03 0. -1.
         23    2    1    2    0    0  0.00000000000E+00  0.35527136788E-14 -0.26645352591E-14  0.91188000000E+02  0.91188000000E+02 0.  0.
    9900012    2    3    3    0    0 -0.18641522697E+02  0.31049293619E+02 -0.66493092120E+01  0.54367104904E+02  0.40000047250E+02 0.  0.
        -12    1    3    3    0    0  0.18641522697E+02 -0.31049293619E+02  0.66493092120E+01  0.36820895096E+02  0.00000000000E+00 0.  1.
         11    1    4    4    0    0 -0.43986552861E+01  0.13142508116E+02  0.11321079826E+02  0.17895265759E+02  0.51100000000E-03 0. -1.
        -11    1    4    4    0    0 -0.48581071935E+01  0.47232153582E+01  0.49664147114E+01  0.84009073421E+01  0.51100000000E-03 0.  1.
         12    1    4    4    0    0 -0.93847602170E+01  0.13183570145E+02 -0.22936803749E+02  0.28070931803E+02  0.00000000000E+00 0. -1.
</event>
<event>
 8    1  0.1240174E-006  0.9118800E+02  0.7816164E-02  0.1184000E+00
        -11   -1    0    0    0    0  0.00000000000E+00  0.00000000000E+00  0.45593999997E+02  0.45594000000E+02  0.51100000000E-03 0.  1.
         11   -1    0    0    0    0 -0.00000000000E+00 -0.00000000000E+00 -0.45593999997E+02  0.45594000000E+02  0.51100000000E-03 0. -1.
         23    2    1    2    0    0  0.17763568394E-14  0.88817841970E-15  0.00000000000E+00  0.91188000000E+02  0.91188000000E+02 0.  0.
    9900012    2    3    3    0    0  0.96519798919E+01  0.49882106650E+01  0.35181476955E+02  0.54367091779E+02  0.40000017328E+02 0.  0.
         12    1    3    3    0    0 -0.96519798919E+01 -0.49882106650E+01 -0.35181476955E+02  0.36820908221E+02  0.00000000000E+00 0. -1.
         11    1    4    4    0    0 -0.36244337751E+01  0.12517107518E+02  0.68634663068E+01  0.14728260956E+02  0.51100000000E-03 0. -1.
        -11    1    4    4    0    0  0.16511011314E+02 -0.30191273918E+00  0.26945048642E+02  0.31602852601E+02  0.51100000000E-03 0.  1.
        -12    1    4    4    0    0 -0.32345976466E+01 -0.72269841134E+01  0.13729620060E+01  0.80359782217E+01  0.00000000000E+00 0.  1.
</event>
<event>
 8    1  0.1240174E-006  0.9118800E+02  0.7816164E-02  0.1184000E+00
        -11   -1    0    0    0    0  0.00000000000E+00  0.00000000000E+00  0.45593999997E+02  0.45594000000E+02  0.51100000000E-03 0.  1.
         11   -1    0    0    0    0 -0.00000000000E+00 -0.00000000000E+00 -0.45593999997E+02  0.45594000000E+02  0.51100000000E-03 0. -1.
         23    2    1    2    0    0 -0.88817841970E-15 -0.17763568394E-14  0.00000000000E+00  0.91188000000E+02  0.91188000000E+02 0.  0.
    9900012    2    3    3    0    0 -0.64010296836E+00  0.61387377980E+01 -0.36299895390E+02  0.54367133105E+02  0.40000111539E+02 0.  0.
        -12    1    3    3    0    0  0.64010296836E+00 -0.61387377980E+01  0.36299895390E+02  0.36820866895E+02  0.00000000000E+00 0.  1.
         11    1    4    4    0    0  0.44497685606E+01 -0.16258162217E+02 -0.18818156516E+02  0.25263635800E+02  0.51100000000E-03 0. -1.
        -11    1    4    4    0    0 -0.49206205418E+01  0.13977870452E+02 -0.10447399442E+02  0.18131230632E+02  0.51100000000E-03 0.  1.
         12    1    4    4    0    0 -0.16925098713E+00  0.84190295632E+01 -0.70343394328E+01  0.10972266673E+02  0.00000000000E+00 0. -1.
</event>
<event>
 8    1  0.1240174E-006  0.9118800E+02  0.7816164E-02  0.1184000E+00
        -11   -1    0    0    0    0  0.00000000000E+00  0.00000000000E+00  0.45593999997E+02  0.45594000000E+02  0.51100000000E-03 0.  1.
         11   -1    0    0    0    0 -0.00000000000E+00 -0.00000000000E+00 -0.45593999997E+02  0.45594000000E+02  0.51100000000E-03 0. -1.
         23    2    1    2    0    0  0.00000000000E+00 -0.35527136788E-14  0.00000000000E+00  0.91188000000E+02  0.91188000000E+02 0.  0.
    9900012    2    3    3    0    0  0.25950811006E+02  0.23477169012E+02 -0.11452388125E+02  0.54367092211E+02  0.40000018313E+02 0.  0.
        -12    1    3    3    0    0 -0.25950811006E+02 -0.23477169012E+02  0.11452388125E+02  0.36820907789E+02  0.00000000000E+00 0.  1.
         11    1    4    4    0    0 -0.16514474019E+01 -0.46898892268E-01 -0.42647205271E+01  0.45735456118E+01  0.51100000000E-03 0.  1.
        -11    1    4    4    0    0  0.11777905934E+02  0.66336744639E+01 -0.19383829369E+02  0.23631706379E+02  0.51100000000E-03 0. -1.
         12    1    4    4    0    0  0.15824352473E+02  0.16890393440E+02  0.12196161771E+02  0.26161840220E+02  0.00000000000E+00 0. -1.
</event>
<event>
 8    1  0.1240174E-006  0.9118800E+02  0.7816164E-02  0.1184000E+00
        -11   -1    0    0    0    0  0.00000000000E+00  0.00000000000E+00  0.45593999997E+02  0.45594000000E+02  0.51100000000E-03 0. -1.
         11   -1    0    0    0    0 -0.00000000000E+00 -0.00000000000E+00 -0.45593999997E+02  0.45594000000E+02  0.51100000000E-03 0.  1.
         23    2    1    2    0    0  0.71054273576E-14  0.00000000000E+00  0.88817841970E-15  0.91188000000E+02  0.91188000000E+02 0.  0.
    9900012    2    3    3    0    0  0.34300408460E+02 -0.11498323795E+02  0.68592308001E+01  0.54367102160E+02  0.40000040993E+02 0.  0.
        -12    1    3    3    0    0 -0.34300408460E+02  0.11498323795E+02 -0.68592308001E+01  0.36820897840E+02  0.00000000000E+00 0.  1.
         11    1    4    4    0    0 -0.19055124732E+01 -0.79159678383E+01 -0.52970582903E+01  0.97135138542E+01  0.51100000000E-03 0. -1.
        -11    1    4    4    0    0  0.23385600942E+01 -0.10216627174E+01  0.10329925483E+02  0.10640489592E+02  0.51100000000E-03 0.  1.
         12    1    4    4    0    0  0.33867360839E+02 -0.25606932388E+01  0.18263636076E+01  0.34013098713E+02  0.00000000000E+00 0. -1.
</event>
<event>
 8    1  0.1240174E-006  0.9118800E+02  0.7816164E-02  0.1184000E+00
        -11   -1    0    0    0    0  0.00000000000E+00  0.00000000000E+00  0.45593999997E+02  0.45594000000E+02  0.51100000000E-03 0.  1.
         11   -1    0    0    0    0 -0.00000000000E+00 -0.00000000000E+00 -0.45593999997E+02  0.45594000000E+02  0.51100000000E-03 0. -1.
         23    2    1    2    0    0 -0.35527136788E-14  0.00000000000E+00  0.00000000000E+00  0.91188000000E+02  0.91188000000E+02 0.  0.
    9900012    2    3    3    0    0  0.29938470583E+02 -0.17556004744E+02 -0.12298732890E+02  0.54367025622E+02  0.39999866511E+02 0.  0.
        -12    1    3    3    0    0 -0.29938470583E+02  0.17556004744E+02  0.12298732890E+02  0.36820974378E+02  0.00000000000E+00 0.  1.
         11    1    4    4    0    0  0.14501657916E+02 -0.15195749436E+02 -0.22459881294E+02  0.30751506487E+02  0.51100000000E-03 0. -1.
        -11    1    4    4    0    0  0.57071117661E+01 -0.80028047519E+01  0.65125324115E+01  0.11791059633E+02  0.51100000000E-03 0.  1.
         12    1    4    4    0    0  0.97297009011E+01  0.56425494437E+01  0.36486159922E+01  0.11824459502E+02  0.00000000000E+00 0. -1.
</event>
<event>
 8    1  0.1240174E-006  0.9118800E+02  0.7816164E-02  0.1184000E+00
        -11   -1    0    0    0    0  0.00000000000E+00  0.00000000000E+00  0.45593999997E+02  0.45594000000E+02  0.51100000000E-03 0.  1.
         11   -1    0    0    0    0 -0.00000000000E+00 -0.00000000000E+00 -0.45593999997E+02  0.45594000000E+02  0.51100000000E-03 0. -1.
         23    2    1    2    0    0  0.00000000000E+00  0.17763568394E-14  0.00000000000E+00  0.91188000000E+02  0.91188000000E+02 0.  0.
    9900012    2    3    3    0    0 -0.33995931271E+02 -0.11457065380E+02 -0.82941955359E+01  0.54367063433E+02  0.39999952707E+02 0.  0.
        -12    1    3    3    0    0  0.33995931271E+02  0.11457065380E+02  0.82941955359E+01  0.36820936567E+02  0.00000000000E+00 0.  1.
         11    1    4    4    0    0 -0.62796410487E+01  0.16576738942E+01 -0.12209643780E+02  0.13829576130E+02  0.51100000000E-03 0. -1.
        -11    1    4    4    0    0 -0.16069468247E+02  0.24670879411E+01 -0.75835891783E+01  0.17939485994E+02  0.51100000000E-03 0.  1.
        -12    1    4    4    0    0 -0.11646821976E+02 -0.15581827215E+02  0.11499037422E+02  0.22598001309E+02  0.00000000000E+00 0.  1.
</event>
<event>
 8    1  0.1240174E-006  0.9118800E+02  0.7816164E-02  0.1184000E+00
        -11   -1    0    0    0    0  0.00000000000E+00  0.00000000000E+00  0.45593999997E+02  0.45594000000E+02  0.51100000000E-03 0.  1.
         11   -1    0    0    0    0 -0.00000000000E+00 -0.00000000000E+00 -0.45593999997E+02  0.45594000000E+02  0.51100000000E-03 0. -1.
         23    2    1    2    0    0  0.00000000000E+00 -0.44408920985E-15 -0.88817841970E-15  0.91188000000E+02  0.91188000000E+02 0.  0.
    9900012    2    3    3    0    0  0.36662405663E+02 -0.49487087135E+00  0.33759029160E+01  0.54367168849E+02  0.40000193024E+02 0.  0.
         12    1    3    3    0    0 -0.36662405663E+02  0.49487087135E+00 -0.33759029160E+01  0.36820831151E+02  0.00000000000E+00 0. -1.
         11    1    4    4    0    0  0.57255180212E-02 -0.10430002834E+02 -0.54139476203E+01  0.11751417829E+02  0.51100000000E-03 0. -1.
        -11    1    4    4    0    0  0.19731452746E+02 -0.38812529238E+00  0.11122854475E+02  0.22653890629E+02  0.51100000000E-03 0.  1.
        -12    1    4    4    0    0  0.16925227399E+02  0.10323257255E+02 -0.23330039388E+01  0.19961860391E+02  0.00000000000E+00 0.  1.
</event>
<event>
 8    1  0.1240174E-006  0.9118800E+02  0.7816164E-02  0.1184000E+00
        -11   -1    0    0    0    0  0.00000000000E+00  0.00000000000E+00  0.45593999997E+02  0.45594000000E+02  0.51100000000E-03 0.  1.
         11   -1    0    0    0    0 -0.00000000000E+00 -0.00000000000E+00 -0.45593999997E+02  0.45594000000E+02  0.51100000000E-03 0. -1.
         23    2    1    2    0    0  0.00000000000E+00  0.00000000000E+00  0.00000000000E+00  0.91188000000E+02  0.91188000000E+02 0.  0.
    9900012    2    3    3    0    0 -0.87622770175E+01  0.22069288292E+01 -0.35695003172E+02  0.54367064585E+02  0.39999955335E+02 0.  0.
        -12    1    3    3    0    0  0.87622770175E+01 -0.22069288292E+01  0.35695003172E+02  0.36820935415E+02  0.00000000000E+00 0.  1.
         11    1    4    4    0    0 -0.12093306743E+02 -0.20633766845E+01 -0.19488235826E+02  0.23028176811E+02  0.51100000000E-03 0. -1.
        -11    1    4    4    0    0 -0.10988129181E+02  0.33551813187E+01 -0.30867595006E+01  0.11896398995E+02  0.51100000000E-03 0.  1.
         12    1    4    4    0    0  0.14319158907E+02  0.91512419502E+00 -0.13120007845E+02  0.19442488779E+02  0.00000000000E+00 0. -1.
</event>
<event>
 8    1  0.1240174E-006  0.9118800E+02  0.7816164E-02  0.1184000E+00
        -11   -1    0    0    0    0  0.00000000000E+00  0.00000000000E+00  0.45593999997E+02  0.45594000000E+02  0.51100000000E-03 0.  1.
         11   -1    0    0    0    0 -0.00000000000E+00 -0.00000000000E+00 -0.45593999997E+02  0.45594000000E+02  0.51100000000E-03 0. -1.
         23    2    1    2    0    0  0.00000000000E+00  0.66613381478E-15  0.00000000000E+00  0.91188000000E+02  0.91188000000E+02 0.  0.
    9900012    2    3    3    0    0  0.35699327872E+02 -0.15306486431E+01 -0.88879019369E+01  0.54367086151E+02  0.40000004499E+02 0.  0.
        -12    1    3    3    0    0 -0.35699327872E+02  0.15306486431E+01  0.88879019369E+01  0.36820913849E+02  0.00000000000E+00 0.  1.
         11    1    4    4    0    0  0.31461399265E+02 -0.16045012205E+02 -0.67332397025E+01  0.35952726983E+02  0.51100000000E-03 0. -1.
        -11    1    4    4    0    0  0.49955852148E+01  0.16176967338E+01 -0.15764682445E+01  0.54825237571E+01  0.51100000000E-03 0.  1.
         12    1    4    4    0    0 -0.75765660716E+00  0.12896666828E+02 -0.57819398987E+00  0.12931835411E+02  0.00000000000E+00 0. -1.
</event>
<event>
 8    1  0.1240174E-006  0.9118800E+02  0.7816164E-02  0.1184000E+00
        -11   -1    0    0    0    0  0.00000000000E+00  0.00000000000E+00  0.45593999997E+02  0.45594000000E+02  0.51100000000E-03 0.  1.
         11   -1    0    0    0    0 -0.00000000000E+00 -0.00000000000E+00 -0.45593999997E+02  0.45594000000E+02  0.51100000000E-03 0. -1.
         23    2    1    2    0    0  0.35527136788E-14 -0.71054273576E-14  0.00000000000E+00  0.91188000000E+02  0.91188000000E+02 0.  0.
    9900012    2    3    3    0    0 -0.15072192060E+02  0.29803003859E+02 -0.15504522082E+02  0.54367079079E+02  0.39999988377E+02 0.  0.
        -12    1    3    3    0    0  0.15072192060E+02 -0.29803003859E+02  0.15504522082E+02  0.36820920921E+02  0.00000000000E+00 0.  1.
         11    1    4    4    0    0 -0.16873220416E+02  0.35930506429E+02 -0.47939208993E+01  0.39983603356E+02  0.51100000000E-03 0. -1.
        -11    1    4    4    0    0 -0.39787044460E-01 -0.54006681988E+01 -0.25248120715E+01  0.59618349742E+01  0.51100000000E-03 0.  1.
         12    1    4    4    0    0  0.18408154007E+01 -0.72683437157E+00 -0.81857891107E+01  0.84216407492E+01  0.00000000000E+00 0. -1.
</event>
<event>
 8    1  0.1240174E-006  0.9118800E+02  0.7816164E-02  0.1184000E+00
        -11   -1    0    0    0    0  0.00000000000E+00  0.00000000000E+00  0.45593999997E+02  0.45594000000E+02  0.51100000000E-03 0.  1.
         11   -1    0    0    0    0 -0.00000000000E+00 -0.00000000000E+00 -0.45593999997E+02  0.45594000000E+02  0.51100000000E-03 0. -1.
         23    2    1    2    0    0  0.17763568394E-14  0.35527136788E-14 -0.35527136788E-14  0.91188000000E+02  0.91188000000E+02 0.  0.
    9900012    2    3    3    0    0  0.85019687068E+01  0.24304866795E+02 -0.26320566533E+02  0.54367051555E+02  0.39999925629E+02 0.  0.
        -12    1    3    3    0    0 -0.85019687068E+01 -0.24304866795E+02  0.26320566533E+02  0.36820948445E+02  0.00000000000E+00 0.  1.
         11    1    4    4    0    0  0.12961980380E+02  0.15162824842E+02 -0.24801519260E+02  0.31828282241E+02  0.51100000000E-03 0. -1.
        -11    1    4    4    0    0 -0.11417690580E+02  0.83663895133E+00  0.73609158803E+00  0.11471942032E+02  0.51100000000E-03 0.  1.
         12    1    4    4    0    0  0.69576789065E+01  0.83054030015E+01 -0.22551388609E+01  0.11066827281E+02  0.00000000000E+00 0. -1.
</event>
<event>
 8    1  0.1240174E-006  0.9118800E+02  0.7816164E-02  0.1184000E+00
        -11   -1    0    0    0    0  0.00000000000E+00  0.00000000000E+00  0.45593999997E+02  0.45594000000E+02  0.51100000000E-03 0.  1.
         11   -1    0    0    0    0 -0.00000000000E+00 -0.00000000000E+00 -0.45593999997E+02  0.45594000000E+02  0.51100000000E-03 0. -1.
         23    2    1    2    0    0  0.00000000000E+00  0.17763568394E-14  0.00000000000E+00  0.91188000000E+02  0.91188000000E+02 0.  0.
    9900012    2    3    3    0    0 -0.24108017337E+02  0.11451223750E+02 -0.25366371860E+02  0.54367084114E+02  0.39999999855E+02 0.  0.
        -12    1    3    3    0    0  0.24108017337E+02 -0.11451223750E+02  0.25366371860E+02  0.36820915886E+02  0.00000000000E+00 0.  1.
         11    1    4    4    0    0 -0.11481969146E+02 -0.77559180669E+01 -0.14041485761E+02  0.19726966395E+02  0.51100000000E-03 0. -1.
        -11    1    4    4    0    0 -0.13275460929E+02  0.19519869779E+02 -0.31689052239E+00  0.23608549277E+02  0.51100000000E-03 0.  1.
        -12    1    4    4    0    0  0.64941273738E+00 -0.31272796220E+00 -0.11007995577E+02  0.11031568442E+02  0.00000000000E+00 0.  1.
</event>
<event>
 8    1  0.1240174E-006  0.9118800E+02  0.7816164E-02  0.1184000E+00
        -11   -1    0    0    0    0  0.00000000000E+00  0.00000000000E+00  0.45593999997E+02  0.45594000000E+02  0.51100000000E-03 0.  1.
         11   -1    0    0    0    0 -0.00000000000E+00 -0.00000000000E+00 -0.45593999997E+02  0.45594000000E+02  0.51100000000E-03 0. -1.
         23    2    1    2    0    0  0.13877787808E-14 -0.88817841970E-15  0.71054273576E-14  0.91188000000E+02  0.91188000000E+02 0.  0.
    9900012    2    3    3    0    0 -0.34916666477E+00 -0.58972478894E+01 -0.36344177863E+02  0.54366827903E+02  0.39999415766E+02 0.  0.
        -12    1    3    3    0    0  0.34916666477E+00  0.58972478894E+01  0.36344177863E+02  0.36821172097E+02  0.00000000000E+00 0.  1.
         11    1    4    4    0    0  0.97255436138E+01  0.13343780821E+01 -0.11615221186E+02  0.15207896860E+02  0.51100000000E-03 0. -1.
        -11    1    4    4    0    0  0.31721791360E+01 -0.14210899672E+02 -0.16745213988E+02  0.22190416438E+02  0.51100000000E-03 0.  1.
        -12    1    4    4    0    0 -0.13246889415E+02  0.69792737002E+01 -0.79837426895E+01  0.16968514604E+02  0.00000000000E+00 0.  1.
</event>
<event>
 8    1  0.1240174E-006  0.9118800E+02  0.7816164E-02  0.1184000E+00
        -11   -1    0    0    0    0  0.00000000000E+00  0.00000000000E+00  0.45593999997E+02  0.45594000000E+02  0.51100000000E-03 0. -1.
         11   -1    0    0    0    0 -0.00000000000E+00 -0.00000000000E+00 -0.45593999997E+02  0.45594000000E+02  0.51100000000E-03 0.  1.
         23    2    1    2    0    0  0.00000000000E+00  0.00000000000E+00  0.35527136788E-14  0.91188000000E+02  0.91188000000E+02 0.  0.
    9900012    2    3    3    0    0  0.19693456024E+02  0.96720635863E+01 -0.29570234398E+02  0.54367084931E+02  0.40000001716E+02 0.  0.
         12    1    3    3    0    0 -0.19693456024E+02 -0.96720635863E+01  0.29570234398E+02  0.36820915069E+02  0.00000000000E+00 0. -1.
         11    1    4    4    0    0 -0.96057657856E+01  0.66182986436E+01 -0.27561367882E+01  0.11986196374E+02  0.51100000000E-03 0. -1.
        -11    1    4    4    0    0  0.17525936235E+02 -0.14744467387E+01 -0.70792455436E+01  0.18959117907E+02  0.51100000000E-03 0.  1.
         12    1    4    4    0    0  0.11773285575E+02  0.45282116814E+01 -0.19734852066E+02  0.23421770649E+02  0.00000000000E+00 0. -1.
</event>
<event>
 8    1  0.1240174E-006  0.9118800E+02  0.7816164E-02  0.1184000E+00
        -11   -1    0    0    0    0  0.00000000000E+00  0.00000000000E+00  0.45593999997E+02  0.45594000000E+02  0.51100000000E-03 0.  1.
         11   -1    0    0    0    0 -0.00000000000E+00 -0.00000000000E+00 -0.45593999997E+02  0.45594000000E+02  0.51100000000E-03 0. -1.
         23    2    1    2    0    0 -0.13322676296E-14  0.00000000000E+00 -0.17763568394E-14  0.91188000000E+02  0.91188000000E+02 0.  0.
    9900012    2    3    3    0    0 -0.28724568811E+01  0.34409339078E+02  0.12787718331E+02  0.54367090663E+02  0.40000014785E+02 0.  0.
         12    1    3    3    0    0  0.28724568811E+01 -0.34409339078E+02 -0.12787718331E+02  0.36820909337E+02  0.00000000000E+00 0. -1.
         11    1    4    4    0    0  0.10611090065E+02  0.15366676817E+02 -0.33258391511E+01  0.18968162670E+02  0.51100000000E-03 0. -1.
        -11    1    4    4    0    0  0.13494892742E+01  0.15602143811E+02  0.11690645084E+02  0.19542753019E+02  0.51100000000E-03 0.  1.
         12    1    4    4    0    0 -0.14833036221E+02  0.34405184496E+01  0.44229123976E+01  0.15856174974E+02  0.00000000000E+00 0. -1.
</event>
<event>
 8    1  0.1240174E-006  0.9118800E+02  0.7816164E-02  0.1184000E+00
        -11   -1    0    0    0    0  0.00000000000E+00  0.00000000000E+00  0.45593999997E+02  0.45594000000E+02  0.51100000000E-03 0. -1.
         11   -1    0    0    0    0 -0.00000000000E+00 -0.00000000000E+00 -0.45593999997E+02  0.45594000000E+02  0.51100000000E-03 0.  1.
         23    2    1    2    0    0  0.17763568394E-14 -0.35527136788E-14  0.35527136788E-14  0.91188000000E+02  0.91188000000E+02 0.  0.
    9900012    2    3    3    0    0  0.49831115450E+01 -0.26217949719E+02  0.25368636436E+02  0.54367081994E+02  0.39999995023E+02 0.  0.
        -12    1    3    3    0    0 -0.49831115450E+01  0.26217949719E+02 -0.25368636436E+02  0.36820918006E+02  0.00000000000E+00 0.  1.
         11    1    4    4    0    0  0.43369494634E+00  0.54078202302E+00  0.11241883597E+02  0.11263235928E+02  0.51100000000E-03 0. -1.
        -11    1    4    4    0    0 -0.50918097375E+01  0.51003428637E+01  0.43234457075E+01  0.84042969234E+01  0.51100000000E-03 0.  1.
        -12    1    4    4    0    0  0.96412263362E+01 -0.31859074606E+02  0.98033071315E+01  0.34699549143E+02  0.00000000000E+00 0.  1.
</event>
<event>
 8    1  0.1240174E-006  0.9118800E+02  0.7816164E-02  0.1184000E+00
        -11   -1    0    0    0    0  0.00000000000E+00  0.00000000000E+00  0.45593999997E+02  0.45594000000E+02  0.51100000000E-03 0. -1.
         11   -1    0    0    0    0 -0.00000000000E+00 -0.00000000000E+00 -0.45593999997E+02  0.45594000000E+02  0.51100000000E-03 0.  1.
         23    2    1    2    0    0  0.35527136788E-14 -0.17763568394E-14  0.00000000000E+00  0.91188000000E+02  0.91188000000E+02 0.  0.
    9900012    2    3    3    0    0  0.19130990395E+02  0.12337722402E+02  0.28940718736E+02  0.54367090335E+02  0.40000014037E+02 0.  0.
        -12    1    3    3    0    0 -0.19130990395E+02 -0.12337722402E+02 -0.28940718736E+02  0.36820909665E+02  0.00000000000E+00 0.  1.
         11    1    4    4    0    0  0.21226160029E+02  0.14815886558E+02  0.16658347712E+02  0.30782477367E+02  0.51100000000E-03 0. -1.
        -11    1    4    4    0    0  0.76969242890E+01 -0.37823648378E+01  0.10720477430E+01  0.86428128466E+01  0.51100000000E-03 0.  1.
         12    1    4    4    0    0 -0.97920939228E+01  0.13042006815E+01  0.11210323281E+02  0.14941800122E+02  0.00000000000E+00 0. -1.
</event>
<event>
 8    1  0.1240174E-006  0.9118800E+02  0.7816164E-02  0.1184000E+00
        -11   -1    0    0    0    0  0.00000000000E+00  0.00000000000E+00  0.45593999997E+02  0.45594000000E+02  0.51100000000E-03 0.  1.
         11   -1    0    0    0    0 -0.00000000000E+00 -0.00000000000E+00 -0.45593999997E+02  0.45594000000E+02  0.51100000000E-03 0. -1.
         23    2    1    2    0    0  0.00000000000E+00  0.66613381478E-15 -0.17763568394E-14  0.91188000000E+02  0.91188000000E+02 0.  0.
    9900012    2    3    3    0    0 -0.33440012480E+02  0.99964332175E+00  0.15380053533E+02  0.54367085181E+02  0.40000002287E+02 0.  0.
        -12    1    3    3    0    0  0.33440012480E+02 -0.99964332175E+00 -0.15380053533E+02  0.36820914819E+02  0.00000000000E+00 0.  1.
         11    1    4    4    0    0 -0.14700931208E+02 -0.36705863304E+01  0.10310674658E+01  0.15187286880E+02  0.51100000000E-03 0. -1.
        -11    1    4    4    0    0 -0.21992918041E+01  0.10610168062E+02  0.18206828237E+02  0.21187287355E+02  0.51100000000E-03 0.  1.
        -12    1    4    4    0    0 -0.16539789468E+02 -0.59399384097E+01 -0.38578421698E+01  0.17992510946E+02  0.00000000000E+00 0.  1.
</event>
<event>
 8    1  0.1240174E-006  0.9118800E+02  0.7816164E-02  0.1184000E+00
        -11   -1    0    0    0    0  0.00000000000E+00  0.00000000000E+00  0.45593999997E+02  0.45594000000E+02  0.51100000000E-03 0.  1.
         11   -1    0    0    0    0 -0.00000000000E+00 -0.00000000000E+00 -0.45593999997E+02  0.45594000000E+02  0.51100000000E-03 0. -1.
         23    2    1    2    0    0  0.16653345369E-14  0.00000000000E+00  0.00000000000E+00  0.91188000000E+02  0.91188000000E+02 0.  0.
    9900012    2    3    3    0    0  0.64202384047E+00 -0.20372668549E+02 -0.30664662532E+02  0.54367090904E+02  0.40000015334E+02 0.  0.
        -12    1    3    3    0    0 -0.64202384047E+00  0.20372668549E+02  0.30664662532E+02  0.36820909096E+02  0.00000000000E+00 0.  1.
         11    1    4    4    0    0  0.93280480134E+01  0.24296596176E+01 -0.69791554845E+01  0.11900602385E+02  0.51100000000E-03 0. -1.
        -11    1    4    4    0    0 -0.11416980320E+02 -0.16222943315E+01 -0.14260227481E+01  0.11619501696E+02  0.51100000000E-03 0.  1.
         12    1    4    4    0    0  0.27309561474E+01 -0.21180033835E+02 -0.22259484299E+02  0.30846986822E+02  0.00000000000E+00 0. -1.
</event>
<event>
 8    1  0.1240174E-006  0.9118800E+02  0.7816164E-02  0.1184000E+00
        -11   -1    0    0    0    0  0.00000000000E+00  0.00000000000E+00  0.45593999997E+02  0.45594000000E+02  0.51100000000E-03 0. -1.
         11   -1    0    0    0    0 -0.00000000000E+00 -0.00000000000E+00 -0.45593999997E+02  0.45594000000E+02  0.51100000000E-03 0.  1.
         23    2    1    2    0    0  0.17763568394E-14 -0.11102230246E-15  0.00000000000E+00  0.91188000000E+02  0.91188000000E+02 0.  0.
    9900012    2    3    3    0    0  0.13206398924E+02 -0.61049167971E+00 -0.34365653966E+02  0.54367084135E+02  0.39999999903E+02 0.  0.
         12    1    3    3    0    0 -0.13206398924E+02  0.61049167971E+00  0.34365653966E+02  0.36820915865E+02  0.00000000000E+00 0. -1.
         11    1    4    4    0    0  0.84864509945E+01 -0.94399198579E+01  0.19423289362E+01  0.12841517798E+02  0.51100000000E-03 0. -1.
        -11    1    4    4    0    0 -0.88358581830E+00  0.14297158740E+01 -0.30563715055E+02  0.30609892022E+02  0.51100000000E-03 0.  1.
         12    1    4    4    0    0  0.56035337478E+01  0.73997123042E+01 -0.57442678472E+01  0.10915674315E+02  0.00000000000E+00 0. -1.
</event>
<event>
 8    1  0.1240174E-006  0.9118800E+02  0.7816164E-02  0.1184000E+00
        -11   -1    0    0    0    0  0.00000000000E+00  0.00000000000E+00  0.45593999997E+02  0.45594000000E+02  0.51100000000E-03 0.  1.
         11   -1    0    0    0    0 -0.00000000000E+00 -0.00000000000E+00 -0.45593999997E+02  0.45594000000E+02  0.51100000000E-03 0. -1.
         23    2    1    2    0    0  0.00000000000E+00 -0.88817841970E-15  0.00000000000E+00  0.91188000000E+02  0.91188000000E+02 0.  0.
    9900012    2    3    3    0    0  0.16776003712E+02  0.78831604164E+01 -0.31815160684E+02  0.54367041729E+02  0.39999903229E+02 0.  0.
        -12    1    3    3    0    0 -0.16776003712E+02 -0.78831604164E+01  0.31815160684E+02  0.36820958271E+02  0.00000000000E+00 0.  1.
         11    1    4    4    0    0  0.15056994977E+02 -0.54178810847E+01 -0.20655010440E+02  0.26128451728E+02  0.51100000000E-03 0. -1.
        -11    1    4    4    0    0  0.54172376167E+01  0.10483175804E+02  0.39386712497E+01  0.12440119365E+02  0.51100000000E-03 0.  1.
         12    1    4    4    0    0 -0.36982288815E+01  0.28178656971E+01 -0.15098821493E+02  0.15798470636E+02  0.00000000000E+00 0. -1.
</event>
<event>
 8    1  0.1240174E-006  0.9118800E+02  0.7816164E-02  0.1184000E+00
        -11   -1    0    0    0    0  0.00000000000E+00  0.00000000000E+00  0.45593999997E+02  0.45594000000E+02  0.51100000000E-03 0.  1.
         11   -1    0    0    0    0 -0.00000000000E+00 -0.00000000000E+00 -0.45593999997E+02  0.45594000000E+02  0.51100000000E-03 0. -1.
         23    2    1    2    0    0  0.00000000000E+00  0.22204460493E-15 -0.71054273576E-14  0.91188000000E+02  0.91188000000E+02 0.  0.
    9900012    2    3    3    0    0 -0.17104687547E+02 -0.19887283537E+01  0.32546174771E+02  0.54367097393E+02  0.40000030128E+02 0.  0.
         12    1    3    3    0    0  0.17104687547E+02  0.19887283537E+01 -0.32546174771E+02  0.36820902607E+02  0.00000000000E+00 0. -1.
         11    1    4    4    0    0 -0.60405296266E+01 -0.59490595521E+01  0.72711464314E+01  0.11169103743E+02  0.51100000000E-03 0. -1.
        -11    1    4    4    0    0 -0.17989619949E+02 -0.39524116383E+01  0.31293981350E+01  0.18682642120E+02  0.51100000000E-03 0.  1.
         12    1    4    4    0    0  0.69254620279E+01  0.79127428368E+01  0.22145630204E+02  0.24515351530E+02  0.00000000000E+00 0. -1.
</event>
<event>
 8    1  0.1240174E-006  0.9118800E+02  0.7816164E-02  0.1184000E+00
        -11   -1    0    0    0    0  0.00000000000E+00  0.00000000000E+00  0.45593999997E+02  0.45594000000E+02  0.51100000000E-03 0.  1.
         11   -1    0    0    0    0 -0.00000000000E+00 -0.00000000000E+00 -0.45593999997E+02  0.45594000000E+02  0.51100000000E-03 0. -1.
         23    2    1    2    0    0  0.00000000000E+00 -0.17763568394E-14  0.35527136788E-14  0.91188000000E+02  0.91188000000E+02 0.  0.
    9900012    2    3    3    0    0  0.22852511477E+02  0.15204337543E+02 -0.24543265349E+02  0.54367067979E+02  0.39999963071E+02 0.  0.
        -12    1    3    3    0    0 -0.22852511477E+02 -0.15204337543E+02  0.24543265349E+02  0.36820932021E+02  0.00000000000E+00 0.  1.
         11    1    4    4    0    0  0.21345773521E+02  0.38298510451E+01 -0.95009633568E+01  0.23676530810E+02  0.51100000000E-03 0. -1.
        -11    1    4    4    0    0 -0.65234697512E+01  0.95070520603E+01  0.20527702018E+01  0.11711257927E+02  0.51100000000E-03 0.  1.
        -12    1    4    4    0    0  0.80302077074E+01  0.18674344371E+01 -0.17095072194E+02  0.18979279241E+02  0.00000000000E+00 0.  1.
</event>
<event>
 8    1  0.1240174E-006  0.9118800E+02  0.7816164E-02  0.1184000E+00
        -11   -1    0    0    0    0  0.00000000000E+00  0.00000000000E+00  0.45593999997E+02  0.45594000000E+02  0.51100000000E-03 0. -1.
         11   -1    0    0    0    0 -0.00000000000E+00 -0.00000000000E+00 -0.45593999997E+02  0.45594000000E+02  0.51100000000E-03 0.  1.
         23    2    1    2    0    0  0.00000000000E+00  0.13322676296E-14  0.00000000000E+00  0.91188000000E+02  0.91188000000E+02 0.  0.
    9900012    2    3    3    0    0  0.35053086487E+02 -0.27893585866E+01 -0.10921495199E+02  0.54367103067E+02  0.40000043061E+02 0.  0.
         12    1    3    3    0    0 -0.35053086487E+02  0.27893585866E+01  0.10921495199E+02  0.36820896933E+02  0.00000000000E+00 0. -1.
         11    1    4    4    0    0  0.84185286617E+00 -0.11951379824E+02 -0.85827589660E+01  0.14737976376E+02  0.51100000000E-03 0. -1.
        -11    1    4    4    0    0  0.31365068162E+02  0.89302360046E+01 -0.77417385367E+01  0.33517922545E+02  0.51100000000E-03 0.  1.
        -12    1    4    4    0    0  0.28461654588E+01  0.23178523257E+00  0.54030023036E+01  0.61112041453E+01  0.00000000000E+00 0.  1.
</event>
<event>
 8    1  0.1240174E-006  0.9118800E+02  0.7816164E-02  0.1184000E+00
        -11   -1    0    0    0    0  0.00000000000E+00  0.00000000000E+00  0.45593999997E+02  0.45594000000E+02  0.51100000000E-03 0.  1.
         11   -1    0    0    0    0 -0.00000000000E+00 -0.00000000000E+00 -0.45593999997E+02  0.45594000000E+02  0.51100000000E-03 0. -1.
         23    2    1    2    0    0  0.00000000000E+00  0.00000000000E+00 -0.17763568394E-14  0.91188000000E+02  0.91188000000E+02 0.  0.
    9900012    2    3    3    0    0  0.22720682601E+02  0.28235017162E+02 -0.65064219953E+01  0.54367093721E+02  0.40000021756E+02 0.  0.
         12    1    3    3    0    0 -0.22720682601E+02 -0.28235017162E+02  0.65064219953E+01  0.36820906279E+02  0.00000000000E+00 0. -1.
         11    1    4    4    0    0  0.24871227624E+02  0.87919204297E+01 -0.15021213748E+02  0.30356427509E+02  0.51100000000E-03 0. -1.
        -11    1    4    4    0    0  0.24415166490E+01  0.59962309210E+01  0.72881495415E+01  0.97484825899E+01  0.51100000000E-03 0.  1.
         12    1    4    4    0    0 -0.45920616718E+01  0.13446865812E+02  0.12266422115E+01  0.14262183622E+02  0.00000000000E+00 0. -1.
</event>
<event>
 8    1  0.1240174E-006  0.9118800E+02  0.7816164E-02  0.1184000E+00
        -11   -1    0    0    0    0  0.00000000000E+00  0.00000000000E+00  0.45593999997E+02  0.45594000000E+02  0.51100000000E-03 0.  1.
         11   -1    0    0    0    0 -0.00000000000E+00 -0.00000000000E+00 -0.45593999997E+02  0.45594000000E+02  0.51100000000E-03 0. -1.
         23    2    1    2    0    0  0.00000000000E+00  0.00000000000E+00  0.00000000000E+00  0.91188000000E+02  0.91188000000E+02 0.  0.
    9900012    2    3    3    0    0  0.17229670597E+02 -0.14856216467E+02  0.28951879351E+02  0.54367081563E+02  0.39999994039E+02 0.  0.
         12    1    3    3    0    0 -0.17229670597E+02  0.14856216467E+02 -0.28951879351E+02  0.36820918437E+02  0.00000000000E+00 0. -1.
         11    1    4    4    0    0  0.14288223020E+00 -0.23585343426E+01 -0.73720731291E+01  0.77414831950E+01  0.51100000000E-03 0. -1.
        -11    1    4    4    0    0  0.60558681511E+01 -0.70978548303E+01  0.32423813635E+02  0.33739543168E+02  0.51100000000E-03 0.  1.
         12    1    4    4    0    0  0.11030920216E+02 -0.53998272943E+01  0.39001388447E+01  0.12886055200E+02  0.00000000000E+00 0. -1.
</event>
<event>
 8    1  0.1240174E-006  0.9118800E+02  0.7816164E-02  0.1184000E+00
        -11   -1    0    0    0    0  0.00000000000E+00  0.00000000000E+00  0.45593999997E+02  0.45594000000E+02  0.51100000000E-03 0. -1.
         11   -1    0    0    0    0 -0.00000000000E+00 -0.00000000000E+00 -0.45593999997E+02  0.45594000000E+02  0.51100000000E-03 0.  1.
         23    2    1    2    0    0 -0.71054273576E-14  0.17763568394E-14  0.00000000000E+00  0.91188000000E+02  0.91188000000E+02 0.  0.
    9900012    2    3    3    0    0  0.29650602020E+02 -0.12677422860E+02  0.17773693396E+02  0.54367089807E+02  0.40000012833E+02 0.  0.
        -12    1    3    3    0    0 -0.29650602020E+02  0.12677422860E+02 -0.17773693396E+02  0.36820910193E+02  0.00000000000E+00 0.  1.
         11    1    4    4    0    0  0.39245286103E+01  0.34425218684E+01  0.14590645805E+02  0.15496445622E+02  0.51100000000E-03 0. -1.
        -11    1    4    4    0    0  0.16793027014E+02 -0.22113829804E+02  0.41240676923E+01  0.28071963941E+02  0.51100000000E-03 0.  1.
         12    1    4    4    0    0  0.89330463954E+01  0.59938850757E+01 -0.94102010148E+00  0.10798680245E+02  0.00000000000E+00 0. -1.
</event>
<event>
 8    1  0.1240174E-006  0.9118800E+02  0.7816164E-02  0.1184000E+00
        -11   -1    0    0    0    0  0.00000000000E+00  0.00000000000E+00  0.45593999997E+02  0.45594000000E+02  0.51100000000E-03 0. -1.
         11   -1    0    0    0    0 -0.00000000000E+00 -0.00000000000E+00 -0.45593999997E+02  0.45594000000E+02  0.51100000000E-03 0.  1.
         23    2    1    2    0    0 -0.71054273576E-14  0.00000000000E+00  0.00000000000E+00  0.91188000000E+02  0.91188000000E+02 0.  0.
    9900012    2    3    3    0    0  0.32080837641E+02  0.16443155285E+02  0.74979191071E+01  0.54367132406E+02  0.40000109945E+02 0.  0.
         12    1    3    3    0    0 -0.32080837641E+02 -0.16443155285E+02 -0.74979191071E+01  0.36820867594E+02  0.00000000000E+00 0. -1.
         11    1    4    4    0    0 -0.33195365037E+01  0.53165291603E+01  0.59024668110E+00  0.62954901571E+01  0.51100000000E-03 0. -1.
        -11    1    4    4    0    0 -0.35215427024E+01  0.39130083681E+01  0.66558972392E+01  0.84860983858E+01  0.51100000000E-03 0.  1.
        -12    1    4    4    0    0  0.38921916847E+02  0.72136177561E+01  0.25177518678E+00  0.39585543863E+02  0.00000000000E+00 0.  1.
</event>
<event>
 8    1  0.1240174E-006  0.9118800E+02  0.7816164E-02  0.1184000E+00
        -11   -1    0    0    0    0  0.00000000000E+00  0.00000000000E+00  0.45593999997E+02  0.45594000000E+02  0.51100000000E-03 0. -1.
         11   -1    0    0    0    0 -0.00000000000E+00 -0.00000000000E+00 -0.45593999997E+02  0.45594000000E+02  0.51100000000E-03 0.  1.
         23    2    1    2    0    0 -0.44408920985E-15  0.71054273576E-14  0.00000000000E+00  0.91188000000E+02  0.91188000000E+02 0.  0.
    9900012    2    3    3    0    0  0.33380882017E+01 -0.36411747731E+02 -0.43373773213E+01  0.54367203598E+02  0.40000272241E+02 0.  0.
         12    1    3    3    0    0 -0.33380882017E+01  0.36411747731E+02  0.43373773213E+01  0.36820796402E+02  0.00000000000E+00 0. -1.
         11    1    4    4    0    0 -0.43090659690E+01 -0.32021672331E+01 -0.86195826671E+00  0.54373612008E+01  0.51100000000E-03 0. -1.
        -11    1    4    4    0    0  0.20352406594E+02 -0.10908010611E+02 -0.27321285709E+01  0.23252304756E+02  0.51100000000E-03 0.  1.
        -12    1    4    4    0    0 -0.12705252424E+02 -0.22301569886E+02 -0.74329048367E+00  0.25677537641E+02  0.00000000000E+00 0.  1.
</event>
<event>
 8    1  0.1240174E-006  0.9118800E+02  0.7816164E-02  0.1184000E+00
        -11   -1    0    0    0    0  0.00000000000E+00  0.00000000000E+00  0.45593999997E+02  0.45594000000E+02  0.51100000000E-03 0. -1.
         11   -1    0    0    0    0 -0.00000000000E+00 -0.00000000000E+00 -0.45593999997E+02  0.45594000000E+02  0.51100000000E-03 0.  1.
         23    2    1    2    0    0 -0.35527136788E-14  0.00000000000E+00  0.00000000000E+00  0.91188000000E+02  0.91188000000E+02 0.  0.
    9900012    2    3    3    0    0  0.28545679030E+02 -0.16764972065E+02  0.16120026694E+02  0.54367145309E+02  0.40000139360E+02 0.  0.
        -12    1    3    3    0    0 -0.28545679030E+02  0.16764972065E+02 -0.16120026694E+02  0.36820854691E+02  0.00000000000E+00 0.  1.
         11    1    4    4    0    0  0.51391861237E+01  0.27403897759E+01 -0.28486861779E+01  0.64835162789E+01  0.51100000000E-03 0. -1.
        -11    1    4    4    0    0  0.30376783433E+02 -0.10649539837E+02  0.17133439993E+02  0.36465277138E+02  0.51100000000E-03 0.  1.
         12    1    4    4    0    0 -0.69702905273E+01 -0.88558220030E+01  0.18352728790E+01  0.11418351892E+02  0.00000000000E+00 0. -1.
</event>
<event>
 8    1  0.1240174E-006  0.9118800E+02  0.7816164E-02  0.1184000E+00
        -11   -1    0    0    0    0  0.00000000000E+00  0.00000000000E+00  0.45593999997E+02  0.45594000000E+02  0.51100000000E-03 0. -1.
         11   -1    0    0    0    0 -0.00000000000E+00 -0.00000000000E+00 -0.45593999997E+02  0.45594000000E+02  0.51100000000E-03 0.  1.
         23    2    1    2    0    0  0.00000000000E+00  0.17763568394E-14  0.00000000000E+00  0.91188000000E+02  0.91188000000E+02 0.  0.
    9900012    2    3    3    0    0 -0.21254129136E+02  0.48858424635E+01 -0.29667665282E+02  0.54367084406E+02  0.40000000521E+02 0.  0.
         12    1    3    3    0    0  0.21254129136E+02 -0.48858424635E+01  0.29667665282E+02  0.36820915594E+02  0.00000000000E+00 0. -1.
         11    1    4    4    0    0  0.63000095344E+01  0.55387469293E+00 -0.42565919047E+01  0.76233504585E+01  0.51100000000E-03 0.  1.
        -11    1    4    4    0    0 -0.19190119400E+02 -0.10743290985E+02 -0.14121994832E+02  0.26136367806E+02  0.51100000000E-03 0. -1.
        -12    1    4    4    0    0 -0.83640192704E+01  0.15075258756E+02 -0.11289078544E+02  0.20607366142E+02  0.00000000000E+00 0.  1.
</event>
<event>
 8    1  0.1240174E-006  0.9118800E+02  0.7816164E-02  0.1184000E+00
        -11   -1    0    0    0    0  0.00000000000E+00  0.00000000000E+00  0.45593999997E+02  0.45594000000E+02  0.51100000000E-03 0. -1.
         11   -1    0    0    0    0 -0.00000000000E+00 -0.00000000000E+00 -0.45593999997E+02  0.45594000000E+02  0.51100000000E-03 0.  1.
         23    2    1    2    0    0 -0.71054273576E-14  0.17763568394E-14 -0.88817841970E-15  0.91188000000E+02  0.91188000000E+02 0.  0.
    9900012    2    3    3    0    0  0.33881790679E+02 -0.13070169168E+02  0.60806105672E+01  0.54367097152E+02  0.40000029578E+02 0.  0.
        -12    1    3    3    0    0 -0.33881790679E+02  0.13070169168E+02 -0.60806105672E+01  0.36820902848E+02  0.00000000000E+00 0.  1.
         11    1    4    4    0    0  0.89605793387E+01 -0.20263695143E+02  0.69558060312E+01  0.23222673419E+02  0.51100000000E-03 0. -1.
        -11    1    4    4    0    0  0.11993952396E+02  0.80314734020E+01 -0.78506069631E+01  0.16431417742E+02  0.51100000000E-03 0.  1.
         12    1    4    4    0    0  0.12927258944E+02 -0.83794742740E+00  0.69754114991E+01  0.14713005991E+02  0.00000000000E+00 0. -1.
</event>
<event>
 8    1  0.1240174E-006  0.9118800E+02  0.7816164E-02  0.1184000E+00
        -11   -1    0    0    0    0  0.00000000000E+00  0.00000000000E+00  0.45593999997E+02  0.45594000000E+02  0.51100000000E-03 0.  1.
         11   -1    0    0    0    0 -0.00000000000E+00 -0.00000000000E+00 -0.45593999997E+02  0.45594000000E+02  0.51100000000E-03 0. -1.
         23    2    1    2    0    0  0.88817841970E-15 -0.71054273576E-14 -0.35527136788E-14  0.91188000000E+02  0.91188000000E+02 0.  0.
    9900012    2    3    3    0    0 -0.68170716932E+01 -0.33531273207E+02 -0.13599996000E+02  0.54367100492E+02  0.40000037192E+02 0.  0.
        -12    1    3    3    0    0  0.68170716932E+01  0.33531273207E+02  0.13599996000E+02  0.36820899508E+02  0.00000000000E+00 0.  1.
         11    1    4    4    0    0 -0.32538744892E+01 -0.10263725187E+02 -0.20753088192E+02  0.23379957734E+02  0.51100000000E-03 0. -1.
        -11    1    4    4    0    0 -0.89306661711E+01 -0.36205993894E+01  0.88371267301E+00  0.96771114775E+01  0.51100000000E-03 0.  1.
        -12    1    4    4    0    0  0.53674689670E+01 -0.19646948631E+02  0.62693795190E+01  0.21310031280E+02  0.00000000000E+00 0.  1.
</event>
<event>
 8    1  0.1240174E-006  0.9118800E+02  0.7816164E-02  0.1184000E+00
        -11   -1    0    0    0    0  0.00000000000E+00  0.00000000000E+00  0.45593999997E+02  0.45594000000E+02  0.51100000000E-03 0.  1.
         11   -1    0    0    0    0 -0.00000000000E+00 -0.00000000000E+00 -0.45593999997E+02  0.45594000000E+02  0.51100000000E-03 0. -1.
         23    2    1    2    0    0  0.00000000000E+00  0.00000000000E+00  0.14210854715E-13  0.91188000000E+02  0.91188000000E+02 0.  0.
    9900012    2    3    3    0    0 -0.77301696985E+01 -0.54119265566E+01 -0.35591220965E+02  0.54367089060E+02  0.40000011131E+02 0.  0.
        -12    1    3    3    0    0  0.77301696985E+01  0.54119265566E+01  0.35591220965E+02  0.36820910940E+02  0.00000000000E+00 0.  1.
         11    1    4    4    0    0 -0.70472398595E+01 -0.25235163490E+01 -0.11962976021E+01  0.75804256223E+01  0.51100000000E-03 0. -1.
        -11    1    4    4    0    0 -0.12540565263E+02 -0.69551955457E+01 -0.56242771184E+01  0.15403668900E+02  0.51100000000E-03 0.  1.
         12    1    4    4    0    0  0.11857635424E+02  0.40667853380E+01 -0.28770646245E+02  0.31382994538E+02  0.00000000000E+00 0. -1.
</event>
<event>
 8    1  0.1240174E-006  0.9118800E+02  0.7816164E-02  0.1184000E+00
        -11   -1    0    0    0    0  0.00000000000E+00  0.00000000000E+00  0.45593999997E+02  0.45594000000E+02  0.51100000000E-03 0.  1.
         11   -1    0    0    0    0 -0.00000000000E+00 -0.00000000000E+00 -0.45593999997E+02  0.45594000000E+02  0.51100000000E-03 0. -1.
         23    2    1    2    0    0  0.00000000000E+00  0.00000000000E+00 -0.35527136788E-14  0.91188000000E+02  0.91188000000E+02 0.  0.
    9900012    2    3    3    0    0  0.29025896444E+02 -0.83079191244E+01 -0.21077356094E+02  0.54367093921E+02  0.40000022212E+02 0.  0.
        -12    1    3    3    0    0 -0.29025896444E+02  0.83079191244E+01  0.21077356094E+02  0.36820906079E+02  0.00000000000E+00 0.  1.
         11    1    4    4    0    0  0.74089722781E+01 -0.23600604768E+01 -0.27460543993E+02  0.28540221308E+02  0.51100000000E-03 0. -1.
        -11    1    4    4    0    0  0.22228949781E+02 -0.51558017121E+01  0.39005025146E+01  0.23149998268E+02  0.51100000000E-03 0.  1.
        -12    1    4    4    0    0 -0.61202561572E+00 -0.79205693545E+00  0.24826853841E+01  0.26768743452E+01  0.00000000000E+00 0.  1.
</event>
<event>
 8    1  0.1240174E-006  0.9118800E+02  0.7816164E-02  0.1184000E+00
        -11   -1    0    0    0    0  0.00000000000E+00  0.00000000000E+00  0.45593999997E+02  0.45594000000E+02  0.51100000000E-03 0. -1.
         11   -1    0    0    0    0 -0.00000000000E+00 -0.00000000000E+00 -0.45593999997E+02  0.45594000000E+02  0.51100000000E-03 0.  1.
         23    2    1    2    0    0  0.00000000000E+00  0.00000000000E+00 -0.71054273576E-14  0.91188000000E+02  0.91188000000E+02 0.  0.
    9900012    2    3    3    0    0  0.84540636933E+01  0.15779100536E+02  0.32176528998E+02  0.54367078977E+02  0.39999988144E+02 0.  0.
        -12    1    3    3    0    0 -0.84540636933E+01 -0.15779100536E+02 -0.32176528998E+02  0.36820921023E+02  0.00000000000E+00 0.  1.
         11    1    4    4    0    0 -0.75551365837E+01  0.10135975062E+01  0.14323875510E+02  0.16225932287E+02  0.51100000000E-03 0. -1.
        -11    1    4    4    0    0  0.34766371559E+00 -0.48440881763E+01 -0.28296211999E+01  0.56207487682E+01  0.51100000000E-03 0.  1.
         12    1    4    4    0    0  0.15661536561E+02  0.19609591206E+02  0.20682274688E+02  0.32520397922E+02  0.00000000000E+00 0. -1.
</event>
<event>
 8    1  0.1240174E-006  0.9118800E+02  0.7816164E-02  0.1184000E+00
        -11   -1    0    0    0    0  0.00000000000E+00  0.00000000000E+00  0.45593999997E+02  0.45594000000E+02  0.51100000000E-03 0.  1.
         11   -1    0    0    0    0 -0.00000000000E+00 -0.00000000000E+00 -0.45593999997E+02  0.45594000000E+02  0.51100000000E-03 0. -1.
         23    2    1    2    0    0  0.00000000000E+00  0.00000000000E+00  0.00000000000E+00  0.91188000000E+02  0.91188000000E+02 0.  0.
    9900012    2    3    3    0    0  0.70563103587E+01  0.35185563721E+02  0.82440899555E+01  0.54367076201E+02  0.39999981814E+02 0.  0.
         12    1    3    3    0    0 -0.70563103587E+01 -0.35185563721E+02 -0.82440899555E+01  0.36820923799E+02  0.00000000000E+00 0. -1.
         11    1    4    4    0    0  0.45663030574E+01 -0.50242069774E+01  0.46425070966E+01  0.82247584625E+01  0.51100000000E-03 0. -1.
        -11    1    4    4    0    0  0.11888330425E+02  0.18085984489E+02  0.44244307459E+01  0.22090966998E+02  0.51100000000E-03 0.  1.
         12    1    4    4    0    0 -0.93983231234E+01  0.22123786210E+02 -0.82284788695E+00  0.24051350740E+02  0.00000000000E+00 0. -1.
</event>
<event>
 8    1  0.1240174E-006  0.9118800E+02  0.7816164E-02  0.1184000E+00
        -11   -1    0    0    0    0  0.00000000000E+00  0.00000000000E+00  0.45593999997E+02  0.45594000000E+02  0.51100000000E-03 0. -1.
         11   -1    0    0    0    0 -0.00000000000E+00 -0.00000000000E+00 -0.45593999997E+02  0.45594000000E+02  0.51100000000E-03 0.  1.
         23    2    1    2    0    0  0.88817841970E-15  0.00000000000E+00  0.00000000000E+00  0.91188000000E+02  0.91188000000E+02 0.  0.
    9900012    2    3    3    0    0 -0.79279191205E+01 -0.11071648207E+02 -0.34210365132E+02  0.54367049740E+02  0.39999921491E+02 0.  0.
         12    1    3    3    0    0  0.79279191205E+01  0.11071648207E+02  0.34210365132E+02  0.36820950260E+02  0.00000000000E+00 0. -1.
         11    1    4    4    0    0  0.45456889677E+01  0.28069475334E+01  0.58321720833E+00  0.53742334541E+01  0.51100000000E-03 0.  1.
        -11    1    4    4    0    0 -0.37462886410E+00 -0.20168867135E+02 -0.25391784322E+02  0.32429404244E+02  0.51100000000E-03 0. -1.
        -12    1    4    4    0    0 -0.12098979224E+02  0.62902713947E+01 -0.94017980187E+01  0.16563412042E+02  0.00000000000E+00 0.  1.
</event>
<event>
 8    1  0.1240174E-006  0.9118800E+02  0.7816164E-02  0.1184000E+00
        -11   -1    0    0    0    0  0.00000000000E+00  0.00000000000E+00  0.45593999997E+02  0.45594000000E+02  0.51100000000E-03 0. -1.
         11   -1    0    0    0    0 -0.00000000000E+00 -0.00000000000E+00 -0.45593999997E+02  0.45594000000E+02  0.51100000000E-03 0.  1.
         23    2    1    2    0    0  0.00000000000E+00  0.00000000000E+00 -0.17763568394E-14  0.91188000000E+02  0.91188000000E+02 0.  0.
    9900012    2    3    3    0    0 -0.36426444333E+02  0.37914301326E+01  0.38101657031E+01  0.54367107128E+02  0.40000052320E+02 0.  0.
         12    1    3    3    0    0  0.36426444333E+02 -0.37914301326E+01 -0.38101657031E+01  0.36820892872E+02  0.00000000000E+00 0. -1.
         11    1    4    4    0    0 -0.76121947486E+01 -0.12214160219E+01  0.16179622159E+02  0.17922542774E+02  0.51100000000E-03 0. -1.
        -11    1    4    4    0    0 -0.47122131834E+01  0.86826476949E+01 -0.41681659637E+01  0.10722263373E+02  0.51100000000E-03 0.  1.
         12    1    4    4    0    0 -0.24102036401E+02 -0.36698015404E+01 -0.82012904926E+01  0.25722300981E+02  0.00000000000E+00 0. -1.
</event>
<event>
 8    1  0.1240174E-006  0.9118800E+02  0.7816164E-02  0.1184000E+00
        -11   -1    0    0    0    0  0.00000000000E+00  0.00000000000E+00  0.45593999997E+02  0.45594000000E+02  0.51100000000E-03 0. -1.
         11   -1    0    0    0    0 -0.00000000000E+00 -0.00000000000E+00 -0.45593999997E+02  0.45594000000E+02  0.51100000000E-03 0.  1.
         23    2    1    2    0    0  0.00000000000E+00  0.00000000000E+00  0.17763568394E-14  0.91188000000E+02  0.91188000000E+02 0.  0.
    9900012    2    3    3    0    0  0.30832315867E+02  0.15384445205E+02 -0.12979481151E+02  0.54367084926E+02  0.40000001705E+02 0.  0.
         12    1    3    3    0    0 -0.30832315867E+02 -0.15384445205E+02  0.12979481151E+02  0.36820915074E+02  0.00000000000E+00 0. -1.
         11    1    4    4    0    0  0.12673869950E+02 -0.26786048258E+01  0.34964684524E+01  0.13417421333E+02  0.51100000000E-03 0. -1.
        -11    1    4    4    0    0  0.15285228261E+01  0.14901666300E+02 -0.18607798337E+02  0.23888202105E+02  0.51100000000E-03 0.  1.
        -12    1    4    4    0    0  0.16629923091E+02  0.31613837301E+01  0.21318487340E+01  0.17061461488E+02  0.00000000000E+00 0.  1.
</event>
<event>
 8    1  0.1240174E-006  0.9118800E+02  0.7816164E-02  0.1184000E+00
        -11   -1    0    0    0    0  0.00000000000E+00  0.00000000000E+00  0.45593999997E+02  0.45594000000E+02  0.51100000000E-03 0.  1.
         11   -1    0    0    0    0 -0.00000000000E+00 -0.00000000000E+00 -0.45593999997E+02  0.45594000000E+02  0.51100000000E-03 0. -1.
         23    2    1    2    0    0  0.00000000000E+00  0.88817841970E-15 -0.35527136788E-14  0.91188000000E+02  0.91188000000E+02 0.  0.
    9900012    2    3    3    0    0 -0.16798663524E+02 -0.71120674269E+01  0.31984520331E+02  0.54366998655E+02  0.39999805032E+02 0.  0.
         12    1    3    3    0    0  0.16798663524E+02  0.71120674269E+01 -0.31984520331E+02  0.36821001345E+02  0.00000000000E+00 0. -1.
         11    1    4    4    0    0 -0.11783267644E+02 -0.10084591784E+00  0.15816640857E+02  0.19723632894E+02  0.51100000000E-03 0. -1.
        -11    1    4    4    0    0 -0.92560549013E+01  0.72568608368E+00  0.22127429619E+02  0.23996339604E+02  0.51100000000E-03 0.  1.
         12    1    4    4    0    0  0.42406590215E+01 -0.77369075927E+01 -0.59595501448E+01  0.10647026156E+02  0.00000000000E+00 0. -1.
</event>
<event>
 8    1  0.1240174E-006  0.9118800E+02  0.7816164E-02  0.1184000E+00
        -11   -1    0    0    0    0  0.00000000000E+00  0.00000000000E+00  0.45593999997E+02  0.45594000000E+02  0.51100000000E-03 0.  1.
         11   -1    0    0    0    0 -0.00000000000E+00 -0.00000000000E+00 -0.45593999997E+02  0.45594000000E+02  0.51100000000E-03 0. -1.
         23    2    1    2    0    0  0.00000000000E+00  0.35527136788E-14  0.00000000000E+00  0.91188000000E+02  0.91188000000E+02 0.  0.
    9900012    2    3    3    0    0 -0.24401979976E+02 -0.26536817772E+02  0.74913037756E+01  0.54367096203E+02  0.40000027413E+02 0.  0.
         12    1    3    3    0    0  0.24401979976E+02  0.26536817772E+02 -0.74913037756E+01  0.36820903797E+02  0.00000000000E+00 0. -1.
         11    1    4    4    0    0 -0.66129053824E+01  0.43479954983E+01 -0.15528767643E+01  0.80651725931E+01  0.51100000000E-03 0. -1.
        -11    1    4    4    0    0 -0.34049579721E+01  0.17087930140E+01 -0.64189721004E+01  0.74643764270E+01  0.51100000000E-03 0.  1.
        -12    1    4    4    0    0 -0.14384116622E+02 -0.32593606284E+02  0.15463152640E+02  0.38837547182E+02  0.00000000000E+00 0.  1.
</event>
<event>
 8    1  0.1240174E-006  0.9118800E+02  0.7816164E-02  0.1184000E+00
        -11   -1    0    0    0    0  0.00000000000E+00  0.00000000000E+00  0.45593999997E+02  0.45594000000E+02  0.51100000000E-03 0. -1.
         11   -1    0    0    0    0 -0.00000000000E+00 -0.00000000000E+00 -0.45593999997E+02  0.45594000000E+02  0.51100000000E-03 0.  1.
         23    2    1    2    0    0  0.17763568394E-14  0.17763568394E-14  0.71054273576E-14  0.91188000000E+02  0.91188000000E+02 0.  0.
    9900012    2    3    3    0    0  0.14177692434E+02  0.80061151809E+01 -0.33025378329E+02  0.54367075829E+02  0.39999980967E+02 0.  0.
         12    1    3    3    0    0 -0.14177692434E+02 -0.80061151809E+01  0.33025378329E+02  0.36820924171E+02  0.00000000000E+00 0. -1.
         11    1    4    4    0    0  0.73169942998E+01 -0.68408647967E+01 -0.15499459470E+01  0.10135983892E+02  0.51100000000E-03 0. -1.
        -11    1    4    4    0    0  0.16585421072E+02  0.62581382641E+01 -0.21496666257E+02  0.27863006785E+02  0.51100000000E-03 0.  1.
         12    1    4    4    0    0 -0.97247229376E+01  0.85888417135E+01 -0.99787661251E+01  0.16368085153E+02  0.00000000000E+00 0. -1.
</event>
<event>
 8    1  0.1240174E-006  0.9118800E+02  0.7816164E-02  0.1184000E+00
        -11   -1    0    0    0    0  0.00000000000E+00  0.00000000000E+00  0.45593999997E+02  0.45594000000E+02  0.51100000000E-03 0.  1.
         11   -1    0    0    0    0 -0.00000000000E+00 -0.00000000000E+00 -0.45593999997E+02  0.45594000000E+02  0.51100000000E-03 0. -1.
         23    2    1    2    0    0 -0.35527136788E-14 -0.17763568394E-14 -0.35527136788E-14  0.91188000000E+02  0.91188000000E+02 0.  0.
    9900012    2    3    3    0    0 -0.20413355894E+02  0.52620722543E+01 -0.30189162247E+02  0.54367081754E+02  0.39999994476E+02 0.  0.
        -12    1    3    3    0    0  0.20413355894E+02 -0.52620722543E+01  0.30189162247E+02  0.36820918246E+02  0.00000000000E+00 0.  1.
         11    1    4    4    0    0 -0.14871844004E+00  0.13831848316E+02 -0.15434811496E+02  0.20726204456E+02  0.51100000000E-03 0. -1.
        -11    1    4    4    0    0 -0.13260860353E+01 -0.25634742104E+00 -0.12794223349E+02  0.12865316534E+02  0.51100000000E-03 0.  1.
         12    1    4    4    0    0 -0.18938551419E+02 -0.83134286403E+01 -0.19601274024E+01  0.20775560764E+02  0.00000000000E+00 0. -1.
</event>
<event>
 8    1  0.1240174E-006  0.9118800E+02  0.7816164E-02  0.1184000E+00
        -11   -1    0    0    0    0  0.00000000000E+00  0.00000000000E+00  0.45593999997E+02  0.45594000000E+02  0.51100000000E-03 0. -1.
         11   -1    0    0    0    0 -0.00000000000E+00 -0.00000000000E+00 -0.45593999997E+02  0.45594000000E+02  0.51100000000E-03 0.  1.
         23    2    1    2    0    0 -0.35527136788E-14  0.00000000000E+00  0.00000000000E+00  0.91188000000E+02  0.91188000000E+02 0.  0.
    9900012    2    3    3    0    0 -0.87415839699E+01  0.45839611286E+01 -0.35473269585E+02  0.54367070558E+02  0.39999968952E+02 0.  0.
         12    1    3    3    0    0  0.87415839699E+01 -0.45839611286E+01  0.35473269585E+02  0.36820929442E+02  0.00000000000E+00 0. -1.
         11    1    4    4    0    0  0.13511446276E+02 -0.56097916251E+01 -0.17308853550E+02  0.22663304128E+02  0.51100000000E-03 0. -1.
        -11    1    4    4    0    0 -0.14016783076E+02  0.61786680585E+01 -0.16271614920E+02  0.22347518859E+02  0.51100000000E-03 0.  1.
         12    1    4    4    0    0 -0.82362471698E+01  0.40150846951E+01 -0.18928011145E+01  0.93562475710E+01  0.00000000000E+00 0. -1.
</event>
<event>
 8    1  0.1240174E-006  0.9118800E+02  0.7816164E-02  0.1184000E+00
        -11   -1    0    0    0    0  0.00000000000E+00  0.00000000000E+00  0.45593999997E+02  0.45594000000E+02  0.51100000000E-03 0.  1.
         11   -1    0    0    0    0 -0.00000000000E+00 -0.00000000000E+00 -0.45593999997E+02  0.45594000000E+02  0.51100000000E-03 0. -1.
         23    2    1    2    0    0  0.00000000000E+00  0.00000000000E+00 -0.22204460493E-15  0.91188000000E+02  0.91188000000E+02 0.  0.
    9900012    2    3    3    0    0  0.13818058596E+02 -0.34074619728E+02  0.19397457463E+01  0.54367067549E+02  0.39999962092E+02 0.  0.
         12    1    3    3    0    0 -0.13818058596E+02  0.34074619728E+02 -0.19397457463E+01  0.36820932451E+02  0.00000000000E+00 0. -1.
         11    1    4    4    0    0  0.16170036010E+02 -0.24552659324E+02 -0.37387261716E+01  0.29635809725E+02  0.51100000000E-03 0. -1.
        -11    1    4    4    0    0 -0.22707753229E+01  0.15464998800E+01  0.11777291039E+02  0.12093496886E+02  0.51100000000E-03 0.  1.
        -12    1    4    4    0    0 -0.81202090435E-01 -0.11068460284E+02 -0.60988191215E+01  0.12637760938E+02  0.00000000000E+00 0.  1.
</event>
<event>
 8    1  0.1240174E-006  0.9118800E+02  0.7816164E-02  0.1184000E+00
        -11   -1    0    0    0    0  0.00000000000E+00  0.00000000000E+00  0.45593999997E+02  0.45594000000E+02  0.51100000000E-03 0.  1.
         11   -1    0    0    0    0 -0.00000000000E+00 -0.00000000000E+00 -0.45593999997E+02  0.45594000000E+02  0.51100000000E-03 0. -1.
         23    2    1    2    0    0 -0.17763568394E-14  0.00000000000E+00  0.00000000000E+00  0.91188000000E+02  0.91188000000E+02 0.  0.
    9900012    2    3    3    0    0 -0.15115160201E+02 -0.21819206559E+02  0.25519281555E+02  0.54367087819E+02  0.40000008300E+02 0.  0.
         12    1    3    3    0    0  0.15115160201E+02  0.21819206559E+02 -0.25519281555E+02  0.36820912181E+02  0.00000000000E+00 0. -1.
         11    1    4    4    0    0  0.30377854455E+01 -0.64428954225E+00  0.12037824316E+02  0.12431913125E+02  0.51100000000E-03 0. -1.
        -11    1    4    4    0    0 -0.17277902663E+02 -0.13022430365E+02  0.21474994139E+02  0.30484176003E+02  0.51100000000E-03 0.  1.
         12    1    4    4    0    0 -0.87504298360E+00 -0.81524866522E+01 -0.79935369003E+01  0.11450998691E+02  0.00000000000E+00 0. -1.
</event>
<event>
 8    1  0.1240174E-006  0.9118800E+02  0.7816164E-02  0.1184000E+00
        -11   -1    0    0    0    0  0.00000000000E+00  0.00000000000E+00  0.45593999997E+02  0.45594000000E+02  0.51100000000E-03 0. -1.
         11   -1    0    0    0    0 -0.00000000000E+00 -0.00000000000E+00 -0.45593999997E+02  0.45594000000E+02  0.51100000000E-03 0.  1.
         23    2    1    2    0    0  0.00000000000E+00  0.88817841970E-15  0.00000000000E+00  0.91188000000E+02  0.91188000000E+02 0.  0.
    9900012    2    3    3    0    0 -0.14500108272E+02  0.21459648323E+01  0.33777563895E+02  0.54367053140E+02  0.39999929243E+02 0.  0.
        -12    1    3    3    0    0  0.14500108272E+02 -0.21459648323E+01 -0.33777563895E+02  0.36820946860E+02  0.00000000000E+00 0.  1.
         11    1    4    4    0    0 -0.23921494245E+01 -0.11368414664E+02  0.23282134356E+02  0.26019627424E+02  0.51100000000E-03 0. -1.
        -11    1    4    4    0    0 -0.41990507124E+01  0.63377035793E+01  0.14953082199E+02  0.16774778122E+02  0.51100000000E-03 0.  1.
        -12    1    4    4    0    0 -0.79089081350E+01  0.71766759174E+01 -0.44576526591E+01  0.11572647594E+02  0.00000000000E+00 0.  1.
</event>
<event>
 8    1  0.1240174E-006  0.9118800E+02  0.7816164E-02  0.1184000E+00
        -11   -1    0    0    0    0  0.00000000000E+00  0.00000000000E+00  0.45593999997E+02  0.45594000000E+02  0.51100000000E-03 0. -1.
         11   -1    0    0    0    0 -0.00000000000E+00 -0.00000000000E+00 -0.45593999997E+02  0.45594000000E+02  0.51100000000E-03 0.  1.
         23    2    1    2    0    0  0.17763568394E-14  0.00000000000E+00  0.19984014443E-14  0.91188000000E+02  0.91188000000E+02 0.  0.
    9900012    2    3    3    0    0  0.85809783926E+01 -0.35798633513E+02 -0.77783081896E+00  0.54367076976E+02  0.39999983581E+02 0.  0.
         12    1    3    3    0    0 -0.85809783926E+01  0.35798633513E+02  0.77783081896E+00  0.36820923024E+02  0.00000000000E+00 0. -1.
         11    1    4    4    0    0 -0.48569756894E+01 -0.12014810488E+02 -0.57095821667E+01  0.14161398684E+02  0.51100000000E-03 0. -1.
        -11    1    4    4    0    0 -0.41894367409E+00 -0.10758042235E+02 -0.11003232589E+02  0.15394223404E+02  0.51100000000E-03 0.  1.
         12    1    4    4    0    0  0.13856897756E+02 -0.13025780789E+02  0.15934983936E+02  0.24811454888E+02  0.00000000000E+00 0. -1.
</event>
<event>
 8    1  0.1240174E-006  0.9118800E+02  0.7816164E-02  0.1184000E+00
        -11   -1    0    0    0    0  0.00000000000E+00  0.00000000000E+00  0.45593999997E+02  0.45594000000E+02  0.51100000000E-03 0.  1.
         11   -1    0    0    0    0 -0.00000000000E+00 -0.00000000000E+00 -0.45593999997E+02  0.45594000000E+02  0.51100000000E-03 0. -1.
         23    2    1    2    0    0  0.00000000000E+00  0.88817841970E-15  0.00000000000E+00  0.91188000000E+02  0.91188000000E+02 0.  0.
    9900012    2    3    3    0    0  0.16977899818E+02 -0.29150662611E+01 -0.32542784126E+02  0.54367088927E+02  0.40000010827E+02 0.  0.
        -12    1    3    3    0    0 -0.16977899818E+02  0.29150662611E+01  0.32542784126E+02  0.36820911073E+02  0.00000000000E+00 0.  1.
         11    1    4    4    0    0  0.23637847157E+02 -0.38515558889E+01 -0.12988164944E+02  0.27244719302E+02  0.51100000000E-03 0. -1.
        -11    1    4    4    0    0 -0.49677928392E+01 -0.40157160923E+01  0.48923590673E+00  0.64065820420E+01  0.51100000000E-03 0.  1.
         12    1    4    4    0    0 -0.16921545000E+01  0.49522057200E+01 -0.20043855089E+02  0.20715787583E+02  0.00000000000E+00 0. -1.
</event>
<event>
 8    1  0.1240174E-006  0.9118800E+02  0.7816164E-02  0.1184000E+00
        -11   -1    0    0    0    0  0.00000000000E+00  0.00000000000E+00  0.45593999997E+02  0.45594000000E+02  0.51100000000E-03 0. -1.
         11   -1    0    0    0    0 -0.00000000000E+00 -0.00000000000E+00 -0.45593999997E+02  0.45594000000E+02  0.51100000000E-03 0.  1.
         23    2    1    2    0    0  0.00000000000E+00  0.88817841970E-15  0.17763568394E-14  0.91188000000E+02  0.91188000000E+02 0.  0.
    9900012    2    3    3    0    0 -0.33400778278E+02 -0.54511762193E+01 -0.14507101841E+02  0.54367037009E+02  0.39999892470E+02 0.  0.
        -12    1    3    3    0    0  0.33400778278E+02  0.54511762193E+01  0.14507101841E+02  0.36820962991E+02  0.00000000000E+00 0.  1.
         11    1    4    4    0    0  0.55993352231E+01  0.50387820618E-01 -0.27791386117E+01  0.62512963102E+01  0.51100000000E-03 0. -1.
        -11    1    4    4    0    0 -0.80464921351E+01 -0.50952313765E+00 -0.14550898018E+02  0.16635332365E+02  0.51100000000E-03 0.  1.
        -12    1    4    4    0    0 -0.30953621366E+02 -0.49920409023E+01  0.28229347892E+01  0.31480408334E+02  0.00000000000E+00 0.  1.
</event>
<event>
 8    1  0.1240174E-006  0.9118800E+02  0.7816164E-02  0.1184000E+00
        -11   -1    0    0    0    0  0.00000000000E+00  0.00000000000E+00  0.45593999997E+02  0.45594000000E+02  0.51100000000E-03 0.  1.
         11   -1    0    0    0    0 -0.00000000000E+00 -0.00000000000E+00 -0.45593999997E+02  0.45594000000E+02  0.51100000000E-03 0. -1.
         23    2    1    2    0    0 -0.35527136788E-14 -0.17763568394E-14  0.00000000000E+00  0.91188000000E+02  0.91188000000E+02 0.  0.
    9900012    2    3    3    0    0 -0.31648211645E+02 -0.12917300055E+02 -0.13686178785E+02  0.54367116920E+02  0.40000074642E+02 0.  0.
        -12    1    3    3    0    0  0.31648211645E+02  0.12917300055E+02  0.13686178785E+02  0.36820883080E+02  0.00000000000E+00 0.  1.
         11    1    4    4    0    0 -0.10313697127E+02  0.57747079883E+01 -0.84913968635E+01  0.14554154793E+02  0.51100000000E-03 0.  1.
        -11    1    4    4    0    0 -0.13151019186E+02 -0.73873612516E+01 -0.16129486571E+02  0.22083540233E+02  0.51100000000E-03 0. -1.
        -12    1    4    4    0    0 -0.81834953317E+01 -0.11304646792E+02  0.10934704649E+02  0.17729421894E+02  0.00000000000E+00 0.  1.
</event>
<event>
 8    1  0.1240174E-006  0.9118800E+02  0.7816164E-02  0.1184000E+00
        -11   -1    0    0    0    0  0.00000000000E+00  0.00000000000E+00  0.45593999997E+02  0.45594000000E+02  0.51100000000E-03 0.  1.
         11   -1    0    0    0    0 -0.00000000000E+00 -0.00000000000E+00 -0.45593999997E+02  0.45594000000E+02  0.51100000000E-03 0. -1.
         23    2    1    2    0    0  0.00000000000E+00  0.71054273576E-14  0.00000000000E+00  0.91188000000E+02  0.91188000000E+02 0.  0.
    9900012    2    3    3    0    0 -0.20670495482E+02 -0.17890270358E+02 -0.24666726153E+02  0.54367101911E+02  0.40000040427E+02 0.  0.
        -12    1    3    3    0    0  0.20670495482E+02  0.17890270358E+02  0.24666726153E+02  0.36820898089E+02  0.00000000000E+00 0.  1.
         11    1    4    4    0    0 -0.77085652303E+01 -0.63511067298E+01 -0.13479716420E+02  0.16776808088E+02  0.51100000000E-03 0. -1.
        -11    1    4    4    0    0 -0.85906096060E+01  0.60685016521E+01  0.64089635230E+01  0.12316659426E+02  0.51100000000E-03 0.  1.
        -12    1    4    4    0    0 -0.43713206457E+01 -0.17607665280E+02 -0.17595973256E+02  0.25273634397E+02  0.00000000000E+00 0.  1.
</event>
<event>
 8    1  0.1240174E-006  0.9118800E+02  0.7816164E-02  0.1184000E+00
        -11   -1    0    0    0    0  0.00000000000E+00  0.00000000000E+00  0.45593999997E+02  0.45594000000E+02  0.51100000000E-03 0. -1.
         11   -1    0    0    0    0 -0.00000000000E+00 -0.00000000000E+00 -0.45593999997E+02  0.45594000000E+02  0.51100000000E-03 0.  1.
         23    2    1    2    0    0 -0.88817841970E-15  0.00000000000E+00  0.35527136788E-14  0.91188000000E+02  0.91188000000E+02 0.  0.
    9900012    2    3    3    0    0  0.68487057670E+01 -0.29953490369E+02 -0.20289524412E+02  0.54367066323E+02  0.39999959297E+02 0.  0.
         12    1    3    3    0    0 -0.68487057670E+01  0.29953490369E+02  0.20289524412E+02  0.36820933677E+02  0.00000000000E+00 0. -1.
         11    1    4    4    0    0  0.52410293439E+01  0.12043220746E+01  0.32247254453E+01  0.62703775565E+01  0.51100000000E-03 0. -1.
        -11    1    4    4    0    0 -0.90489906851E+01 -0.49041668062E+01 -0.15579926533E+02  0.18672685814E+02  0.51100000000E-03 0.  1.
        -12    1    4    4    0    0  0.10656667108E+02 -0.26253645637E+02 -0.79343233241E+01  0.29424002952E+02  0.00000000000E+00 0.  1.
</event>
<event>
 8    1  0.1240174E-006  0.9118800E+02  0.7816164E-02  0.1184000E+00
        -11   -1    0    0    0    0  0.00000000000E+00  0.00000000000E+00  0.45593999997E+02  0.45594000000E+02  0.51100000000E-03 0. -1.
         11   -1    0    0    0    0 -0.00000000000E+00 -0.00000000000E+00 -0.45593999997E+02  0.45594000000E+02  0.51100000000E-03 0.  1.
         23    2    1    2    0    0  0.00000000000E+00  0.00000000000E+00 -0.71054273576E-14  0.91188000000E+02  0.91188000000E+02 0.  0.
    9900012    2    3    3    0    0  0.59328317307E+01  0.40595910373E+01 -0.36112435204E+02  0.54366990398E+02  0.39999786210E+02 0.  0.
         12    1    3    3    0    0 -0.59328317307E+01 -0.40595910373E+01  0.36112435204E+02  0.36821009602E+02  0.00000000000E+00 0. -1.
         11    1    4    4    0    0  0.24607909788E+00 -0.54847188268E+01 -0.87525089904E+01  0.10331946062E+02  0.51100000000E-03 0. -1.
        -11    1    4    4    0    0 -0.41025841173E+01  0.59590992937E+01 -0.31866527038E+02  0.32677478584E+02  0.51100000000E-03 0.  1.
         12    1    4    4    0    0  0.97893367501E+01  0.35852105703E+01  0.45066008249E+01  0.11357565753E+02  0.00000000000E+00 0. -1.
</event>
<event>
 8    1  0.1240174E-006  0.9118800E+02  0.7816164E-02  0.1184000E+00
        -11   -1    0    0    0    0  0.00000000000E+00  0.00000000000E+00  0.45593999997E+02  0.45594000000E+02  0.51100000000E-03 0.  1.
         11   -1    0    0    0    0 -0.00000000000E+00 -0.00000000000E+00 -0.45593999997E+02  0.45594000000E+02  0.51100000000E-03 0. -1.
         23    2    1    2    0    0 -0.17763568394E-14 -0.17763568394E-14 -0.71054273576E-14  0.91188000000E+02  0.91188000000E+02 0.  0.
    9900012    2    3    3    0    0  0.10755190850E+02  0.13340799480E+02 -0.32590312850E+02  0.54367088106E+02  0.40000008956E+02 0.  0.
        -12    1    3    3    0    0 -0.10755190850E+02 -0.13340799480E+02  0.32590312850E+02  0.36820911894E+02  0.00000000000E+00 0.  1.
         11    1    4    4    0    0  0.15096733792E+01 -0.26094813733E+00  0.85112871782E+01  0.86480759324E+01  0.51100000000E-03 0. -1.
        -11    1    4    4    0    0  0.36328455251E+01 -0.13822818778E+01 -0.60946345884E+01  0.72286126488E+01  0.51100000000E-03 0.  1.
         12    1    4    4    0    0  0.56126719460E+01  0.14984029496E+02 -0.35006965440E+02  0.38490399525E+02  0.00000000000E+00 0. -1.
</event>
<event>
 8    1  0.1240174E-006  0.9118800E+02  0.7816164E-02  0.1184000E+00
        -11   -1    0    0    0    0  0.00000000000E+00  0.00000000000E+00  0.45593999997E+02  0.45594000000E+02  0.51100000000E-03 0.  1.
         11   -1    0    0    0    0 -0.00000000000E+00 -0.00000000000E+00 -0.45593999997E+02  0.45594000000E+02  0.51100000000E-03 0. -1.
         23    2    1    2    0    0  0.00000000000E+00  0.00000000000E+00  0.17763568394E-14  0.91188000000E+02  0.91188000000E+02 0.  0.
    9900012    2    3    3    0    0  0.26086327763E+02 -0.24735154356E+02  0.79658878748E+01  0.54367085742E+02  0.40000003565E+02 0.  0.
        -12    1    3    3    0    0 -0.26086327763E+02  0.24735154356E+02 -0.79658878748E+01  0.36820914258E+02  0.00000000000E+00 0.  1.
         11    1    4    4    0    0  0.11227914437E+02 -0.18762353092E+02  0.98510823544E+01  0.23981988657E+02  0.51100000000E-03 0. -1.
        -11    1    4    4    0    0 -0.51444277878E+01 -0.27827966187E+01  0.62472745535E+01  0.85578930756E+01  0.51100000000E-03 0.  1.
         12    1    4    4    0    0  0.20002841114E+02 -0.31900046456E+01 -0.81324690331E+01  0.21827204009E+02  0.00000000000E+00 0. -1.
</event>
<event>
 8    1  0.1240174E-006  0.9118800E+02  0.7816164E-02  0.1184000E+00
        -11   -1    0    0    0    0  0.00000000000E+00  0.00000000000E+00  0.45593999997E+02  0.45594000000E+02  0.51100000000E-03 0.  1.
         11   -1    0    0    0    0 -0.00000000000E+00 -0.00000000000E+00 -0.45593999997E+02  0.45594000000E+02  0.51100000000E-03 0. -1.
         23    2    1    2    0    0  0.00000000000E+00  0.35527136788E-14  0.00000000000E+00  0.91188000000E+02  0.91188000000E+02 0.  0.
    9900012    2    3    3    0    0  0.18103586541E+02 -0.23834532195E+02  0.21446505914E+02  0.54367117521E+02  0.40000076013E+02 0.  0.
         12    1    3    3    0    0 -0.18103586541E+02  0.23834532195E+02 -0.21446505914E+02  0.36820882479E+02  0.00000000000E+00 0. -1.
         11    1    4    4    0    0  0.13455412381E+02 -0.19608466093E+02  0.43589960413E+01  0.24177280898E+02  0.51100000000E-03 0. -1.
        -11    1    4    4    0    0 -0.41504285209E+01 -0.84560791180E+01  0.18070084430E+02  0.20377911633E+02  0.51100000000E-03 0.  1.
         12    1    4    4    0    0  0.87986026806E+01  0.42300130165E+01 -0.98257455720E+00  0.98119249901E+01  0.00000000000E+00 0. -1.
</event>
<event>
 8    1  0.1240174E-006  0.9118800E+02  0.7816164E-02  0.1184000E+00
        -11   -1    0    0    0    0  0.00000000000E+00  0.00000000000E+00  0.45593999997E+02  0.45594000000E+02  0.51100000000E-03 0.  1.
         11   -1    0    0    0    0 -0.00000000000E+00 -0.00000000000E+00 -0.45593999997E+02  0.45594000000E+02  0.51100000000E-03 0. -1.
         23    2    1    2    0    0 -0.71054273576E-14  0.00000000000E+00  0.00000000000E+00  0.91188000000E+02  0.91188000000E+02 0.  0.
    9900012    2    3    3    0    0 -0.34518129597E+02  0.53014745435E+01  0.11669335652E+02  0.54367077988E+02  0.39999985890E+02 0.  0.
        -12    1    3    3    0    0  0.34518129597E+02 -0.53014745435E+01 -0.11669335652E+02  0.36820922012E+02  0.00000000000E+00 0.  1.
         11    1    4    4    0    0 -0.19640341093E+02  0.16852468189E+02  0.48101495265E+01  0.26322732020E+02  0.51100000000E-03 0. -1.
        -11    1    4    4    0    0  0.71354820571E+00  0.46519208402E+01  0.11494228416E+01  0.48446559915E+01  0.51100000000E-03 0.  1.
        -12    1    4    4    0    0 -0.15591336710E+02 -0.16202914486E+02  0.57097632843E+01  0.23199689976E+02  0.00000000000E+00 0.  1.
</event>
<event>
 8    1  0.1240174E-006  0.9118800E+02  0.7816164E-02  0.1184000E+00
        -11   -1    0    0    0    0  0.00000000000E+00  0.00000000000E+00  0.45593999997E+02  0.45594000000E+02  0.51100000000E-03 0. -1.
         11   -1    0    0    0    0 -0.00000000000E+00 -0.00000000000E+00 -0.45593999997E+02  0.45594000000E+02  0.51100000000E-03 0.  1.
         23    2    1    2    0    0  0.00000000000E+00  0.17763568394E-14 -0.71054273576E-14  0.91188000000E+02  0.91188000000E+02 0.  0.
    9900012    2    3    3    0    0  0.10166011768E+02 -0.12179506984E+02  0.33227855172E+02  0.54367101791E+02  0.40000040152E+02 0.  0.
        -12    1    3    3    0    0 -0.10166011768E+02  0.12179506984E+02 -0.33227855172E+02  0.36820898209E+02  0.00000000000E+00 0.  1.
         11    1    4    4    0    0  0.41860869020E+01 -0.68904890560E+01  0.81793842245E+00  0.81037760646E+01  0.51100000000E-03 0. -1.
        -11    1    4    4    0    0  0.10782689587E+02 -0.84490752752E+01  0.36160603673E+00  0.13703431210E+02  0.51100000000E-03 0.  1.
        -12    1    4    4    0    0 -0.48027647209E+01  0.31600573469E+01  0.32048310712E+02  0.32559894516E+02  0.00000000000E+00 0.  1.
</event>
<event>
 8    1  0.1240174E-006  0.9118800E+02  0.7816164E-02  0.1184000E+00
        -11   -1    0    0    0    0  0.00000000000E+00  0.00000000000E+00  0.45593999997E+02  0.45594000000E+02  0.51100000000E-03 0.  1.
         11   -1    0    0    0    0 -0.00000000000E+00 -0.00000000000E+00 -0.45593999997E+02  0.45594000000E+02  0.51100000000E-03 0. -1.
         23    2    1    2    0    0 -0.35527136788E-14 -0.17763568394E-14  0.35527136788E-14  0.91188000000E+02  0.91188000000E+02 0.  0.
    9900012    2    3    3    0    0 -0.24906668065E+02 -0.12299173861E+02 -0.24169575735E+02  0.54367079547E+02  0.39999989444E+02 0.  0.
        -12    1    3    3    0    0  0.24906668065E+02  0.12299173861E+02  0.24169575735E+02  0.36820920453E+02  0.00000000000E+00 0.  1.
         11    1    4    4    0    0 -0.18334778521E+02 -0.15149608445E+02 -0.18218095822E+01  0.23853589455E+02  0.51100000000E-03 0. -1.
        -11    1    4    4    0    0  0.56683081611E-01 -0.16776342680E+01  0.32655254920E+01  0.36716926218E+01  0.51100000000E-03 0.  1.
         12    1    4    4    0    0 -0.66285726257E+01  0.45280688516E+01 -0.25613291645E+02  0.26841797471E+02  0.00000000000E+00 0. -1.
</event>
<event>
 8    1  0.1240174E-006  0.9118800E+02  0.7816164E-02  0.1184000E+00
        -11   -1    0    0    0    0  0.00000000000E+00  0.00000000000E+00  0.45593999997E+02  0.45594000000E+02  0.51100000000E-03 0.  1.
         11   -1    0    0    0    0 -0.00000000000E+00 -0.00000000000E+00 -0.45593999997E+02  0.45594000000E+02  0.51100000000E-03 0. -1.
         23    2    1    2    0    0  0.00000000000E+00  0.35527136788E-14 -0.17763568394E-14  0.91188000000E+02  0.91188000000E+02 0.  0.
    9900012    2    3    3    0    0 -0.28818098937E+02 -0.18285883859E+02  0.13817509701E+02  0.54367082723E+02  0.39999996683E+02 0.  0.
         12    1    3    3    0    0  0.28818098937E+02  0.18285883859E+02 -0.13817509701E+02  0.36820917277E+02  0.00000000000E+00 0. -1.
         11    1    4    4    0    0  0.17957248521E+01 -0.15653806611E+01  0.23689004505E+01  0.33595734795E+01  0.51100000000E-03 0. -1.
        -11    1    4    4    0    0 -0.25725064056E+02 -0.24011389447E+02 -0.16624980217E+01  0.35229102228E+02  0.51100000000E-03 0.  1.
        -12    1    4    4    0    0 -0.48887597322E+01  0.72908862493E+01  0.13111107272E+02  0.15778407015E+02  0.00000000000E+00 0.  1.
</event>
<event>
 8    1  0.1240174E-006  0.9118800E+02  0.7816164E-02  0.1184000E+00
        -11   -1    0    0    0    0  0.00000000000E+00  0.00000000000E+00  0.45593999997E+02  0.45594000000E+02  0.51100000000E-03 0.  1.
         11   -1    0    0    0    0 -0.00000000000E+00 -0.00000000000E+00 -0.45593999997E+02  0.45594000000E+02  0.51100000000E-03 0. -1.
         23    2    1    2    0    0 -0.27755575616E-15  0.17763568394E-14  0.00000000000E+00  0.91188000000E+02  0.91188000000E+02 0.  0.
    9900012    2    3    3    0    0  0.21958221407E+00  0.15447164527E+02  0.33423216571E+02  0.54367156524E+02  0.40000164928E+02 0.  0.
         12    1    3    3    0    0 -0.21958221407E+00 -0.15447164527E+02 -0.33423216571E+02  0.36820843476E+02  0.00000000000E+00 0. -1.
         11    1    4    4    0    0  0.73268368407E+01  0.34108398670E+01 -0.56761425318E+01  0.98759789890E+01  0.51100000000E-03 0. -1.
        -11    1    4    4    0    0  0.28032713230E+01  0.53659025114E+01  0.26280226754E+02  0.26968529036E+02  0.51100000000E-03 0.  1.
         12    1    4    4    0    0 -0.99105259496E+01  0.66704221487E+01  0.12819132349E+02  0.17522648499E+02  0.00000000000E+00 0. -1.
</event>
<event>
 8    1  0.1240174E-006  0.9118800E+02  0.7816164E-02  0.1184000E+00
        -11   -1    0    0    0    0  0.00000000000E+00  0.00000000000E+00  0.45593999997E+02  0.45594000000E+02  0.51100000000E-03 0. -1.
         11   -1    0    0    0    0 -0.00000000000E+00 -0.00000000000E+00 -0.45593999997E+02  0.45594000000E+02  0.51100000000E-03 0.  1.
         23    2    1    2    0    0  0.10658141036E-13  0.00000000000E+00  0.00000000000E+00  0.91188000000E+02  0.91188000000E+02 0.  0.
    9900012    2    3    3    0    0  0.29641408499E+02  0.17098631364E+02 -0.13594239614E+02  0.54367086880E+02  0.40000006160E+02 0.  0.
         12    1    3    3    0    0 -0.29641408499E+02 -0.17098631364E+02  0.13594239614E+02  0.36820913120E+02  0.00000000000E+00 0. -1.
         11    1    4    4    0    0 -0.17670520382E+01 -0.66608598931E+00  0.83739544638E+00  0.20657625337E+01  0.51100000000E-03 0. -1.
        -11    1    4    4    0    0  0.21706069860E+02 -0.48223849053E+01 -0.16415914858E+02  0.27638580387E+02  0.51100000000E-03 0.  1.
         12    1    4    4    0    0  0.97023906771E+01  0.22587102258E+02  0.19842797975E+01  0.24662743959E+02  0.00000000000E+00 0. -1.
</event>
<event>
 8    1  0.1240174E-006  0.9118800E+02  0.7816164E-02  0.1184000E+00
        -11   -1    0    0    0    0  0.00000000000E+00  0.00000000000E+00  0.45593999997E+02  0.45594000000E+02  0.51100000000E-03 0.  1.
         11   -1    0    0    0    0 -0.00000000000E+00 -0.00000000000E+00 -0.45593999997E+02  0.45594000000E+02  0.51100000000E-03 0. -1.
         23    2    1    2    0    0  0.00000000000E+00  0.00000000000E+00  0.00000000000E+00  0.91188000000E+02  0.91188000000E+02 0.  0.
    9900012    2    3    3    0    0 -0.32238487015E+02 -0.49190349571E+01  0.17095722353E+02  0.54367072897E+02  0.39999974284E+02 0.  0.
         12    1    3    3    0    0  0.32238487015E+02  0.49190349571E+01 -0.17095722353E+02  0.36820927103E+02  0.00000000000E+00 0. -1.
         11    1    4    4    0    0  0.25844458407E+01 -0.35333246295E+01 -0.38969540283E+01  0.58608868100E+01  0.51100000000E-03 0. -1.
        -11    1    4    4    0    0 -0.13613272399E+02 -0.72165947965E+00 -0.53806958436E+01  0.14655847496E+02  0.51100000000E-03 0.  1.
        -12    1    4    4    0    0 -0.21209660456E+02 -0.66405084799E+00  0.26373372225E+02  0.33850338591E+02  0.00000000000E+00 0.  1.
</event>
<event>
 8    1  0.1240174E-006  0.9118800E+02  0.7816164E-02  0.1184000E+00
        -11   -1    0    0    0    0  0.00000000000E+00  0.00000000000E+00  0.45593999997E+02  0.45594000000E+02  0.51100000000E-03 0.  1.
         11   -1    0    0    0    0 -0.00000000000E+00 -0.00000000000E+00 -0.45593999997E+02  0.45594000000E+02  0.51100000000E-03 0. -1.
         23    2    1    2    0    0  0.17763568394E-14 -0.44408920985E-15  0.00000000000E+00  0.91188000000E+02  0.91188000000E+02 0.  0.
    9900012    2    3    3    0    0 -0.15520828047E+02 -0.22995646031E+01 -0.33310572043E+02  0.54367104975E+02  0.40000047412E+02 0.  0.
        -12    1    3    3    0    0  0.15520828047E+02  0.22995646031E+01  0.33310572043E+02  0.36820895025E+02  0.00000000000E+00 0.  1.
         11    1    4    4    0    0 -0.42875813048E+01 -0.72084979358E+01 -0.88365904364E+01  0.12183231375E+02  0.51100000000E-03 0. -1.
        -11    1    4    4    0    0 -0.94907133052E+01 -0.52953215427E+01  0.42361657676E+01  0.11664440405E+02  0.51100000000E-03 0.  1.
        -12    1    4    4    0    0 -0.17425334374E+01  0.10204254875E+02 -0.28710147374E+02  0.30519433195E+02  0.00000000000E+00 0.  1.
</event>
<event>
 8    1  0.1240174E-006  0.9118800E+02  0.7816164E-02  0.1184000E+00
        -11   -1    0    0    0    0  0.00000000000E+00  0.00000000000E+00  0.45593999997E+02  0.45594000000E+02  0.51100000000E-03 0.  1.
         11   -1    0    0    0    0 -0.00000000000E+00 -0.00000000000E+00 -0.45593999997E+02  0.45594000000E+02  0.51100000000E-03 0. -1.
         23    2    1    2    0    0  0.00000000000E+00  0.00000000000E+00  0.00000000000E+00  0.91188000000E+02  0.91188000000E+02 0.  0.
    9900012    2    3    3    0    0  0.13793415800E+02 -0.12637948698E+02 -0.31714390000E+02  0.54367101046E+02  0.40000038455E+02 0.  0.
        -12    1    3    3    0    0 -0.13793415800E+02  0.12637948698E+02  0.31714390000E+02  0.36820898954E+02  0.00000000000E+00 0.  1.
         11    1    4    4    0    0 -0.24301295012E+01  0.33595312703E+01 -0.26226239764E+01  0.49061325432E+01  0.51100000000E-03 0.  1.
        -11    1    4    4    0    0 -0.59732887786E+01 -0.96229610604E+01  0.11782354106E+01  0.11387264700E+02  0.51100000000E-03 0. -1.
         12    1    4    4    0    0  0.22196834080E+02 -0.63745189075E+01 -0.30270001434E+02  0.38073703803E+02  0.00000000000E+00 0. -1.
</event>
<event>
 8    1  0.1240174E-006  0.9118800E+02  0.7816164E-02  0.1184000E+00
        -11   -1    0    0    0    0  0.00000000000E+00  0.00000000000E+00  0.45593999997E+02  0.45594000000E+02  0.51100000000E-03 0.  1.
         11   -1    0    0    0    0 -0.00000000000E+00 -0.00000000000E+00 -0.45593999997E+02  0.45594000000E+02  0.51100000000E-03 0. -1.
         23    2    1    2    0    0  0.00000000000E+00 -0.17763568394E-14  0.35527136788E-14  0.91188000000E+02  0.91188000000E+02 0.  0.
    9900012    2    3    3    0    0  0.28879049931E+02  0.15802133504E+02  0.16494605227E+02  0.54367096293E+02  0.40000027619E+02 0.  0.
         12    1    3    3    0    0 -0.28879049931E+02 -0.15802133504E+02 -0.16494605227E+02  0.36820903707E+02  0.00000000000E+00 0. -1.
         11    1    4    4    0    0 -0.92167693134E+00 -0.32750108325E+01 -0.31656700647E+01  0.46472197644E+01  0.51100000000E-03 0. -1.
        -11    1    4    4    0    0  0.12139595087E+02  0.22412344553E+02  0.18898079842E+02  0.31730433014E+02  0.51100000000E-03 0.  1.
        -12    1    4    4    0    0  0.17661131775E+02 -0.33352002164E+01  0.76219544922E+00  0.17989443515E+02  0.00000000000E+00 0.  1.
</event>
<event>
 8    1  0.1240174E-006  0.9118800E+02  0.7816164E-02  0.1184000E+00
        -11   -1    0    0    0    0  0.00000000000E+00  0.00000000000E+00  0.45593999997E+02  0.45594000000E+02  0.51100000000E-03 0. -1.
         11   -1    0    0    0    0 -0.00000000000E+00 -0.00000000000E+00 -0.45593999997E+02  0.45594000000E+02  0.51100000000E-03 0.  1.
         23    2    1    2    0    0  0.00000000000E+00  0.00000000000E+00 -0.66613381478E-15  0.91188000000E+02  0.91188000000E+02 0.  0.
    9900012    2    3    3    0    0  0.23223957871E+02  0.28552261758E+02 -0.10939108142E+01  0.54367075085E+02  0.39999979272E+02 0.  0.
         12    1    3    3    0    0 -0.23223957871E+02 -0.28552261758E+02  0.10939108142E+01  0.36820924915E+02  0.00000000000E+00 0. -1.
         11    1    4    4    0    0  0.19323441991E+02  0.12211270573E+01  0.89232543190E+01  0.21319264283E+02  0.51100000000E-03 0.  1.
        -11    1    4    4    0    0  0.63748062191E+01  0.28053856957E+02 -0.10038251838E+02  0.30470043399E+02  0.51100000000E-03 0. -1.
         12    1    4    4    0    0 -0.24742903385E+01 -0.72272225635E+00  0.21086704378E-01  0.25777674038E+01  0.00000000000E+00 0. -1.
</event>
<event>
 8    1  0.1240174E-006  0.9118800E+02  0.7816164E-02  0.1184000E+00
        -11   -1    0    0    0    0  0.00000000000E+00  0.00000000000E+00  0.45593999997E+02  0.45594000000E+02  0.51100000000E-03 0. -1.
         11   -1    0    0    0    0 -0.00000000000E+00 -0.00000000000E+00 -0.45593999997E+02  0.45594000000E+02  0.51100000000E-03 0.  1.
         23    2    1    2    0    0 -0.17763568394E-14 -0.35527136788E-14 -0.35527136788E-14  0.91188000000E+02  0.91188000000E+02 0.  0.
    9900012    2    3    3    0    0  0.15958194669E+02  0.31358673580E+02  0.10851227276E+02  0.54367088561E+02  0.40000009993E+02 0.  0.
         12    1    3    3    0    0 -0.15958194669E+02 -0.31358673580E+02 -0.10851227276E+02  0.36820911439E+02  0.00000000000E+00 0. -1.
         11    1    4    4    0    0 -0.38789741494E+01 -0.53104563259E+01  0.84294786446E+00  0.66300790496E+01  0.51100000000E-03 0.  1.
        -11    1    4    4    0    0  0.63136622931E+01 -0.45688236802E+00  0.46684629631E+01  0.78654700907E+01  0.51100000000E-03 0. -1.
        -12    1    4    4    0    0  0.13523506525E+02  0.37126012274E+02  0.53398164488E+01  0.39871539421E+02  0.00000000000E+00 0.  1.
</event>
<event>
 8    1  0.1240174E-006  0.9118800E+02  0.7816164E-02  0.1184000E+00
        -11   -1    0    0    0    0  0.00000000000E+00  0.00000000000E+00  0.45593999997E+02  0.45594000000E+02  0.51100000000E-03 0.  1.
         11   -1    0    0    0    0 -0.00000000000E+00 -0.00000000000E+00 -0.45593999997E+02  0.45594000000E+02  0.51100000000E-03 0. -1.
         23    2    1    2    0    0  0.00000000000E+00  0.00000000000E+00 -0.35527136788E-14  0.91188000000E+02  0.91188000000E+02 0.  0.
    9900012    2    3    3    0    0 -0.27242318568E+02 -0.39994023936E+01  0.24446686169E+02  0.54367087394E+02  0.40000007332E+02 0.  0.
         12    1    3    3    0    0  0.27242318568E+02  0.39994023936E+01 -0.24446686169E+02  0.36820912606E+02  0.00000000000E+00 0. -1.
         11    1    4    4    0    0 -0.18209241336E+01 -0.46475904217E+01 -0.66832878181E+01  0.83415944368E+01  0.51100000000E-03 0. -1.
        -11    1    4    4    0    0 -0.22837550563E+02  0.20049424720E+01  0.10544369916E+02  0.25234049362E+02  0.51100000000E-03 0.  1.
         12    1    4    4    0    0 -0.25838438717E+01 -0.13567544438E+01  0.20585604072E+02  0.20791443595E+02  0.00000000000E+00 0. -1.
</event>
<event>
 8    1  0.1240174E-006  0.9118800E+02  0.7816164E-02  0.1184000E+00
        -11   -1    0    0    0    0  0.00000000000E+00  0.00000000000E+00  0.45593999997E+02  0.45594000000E+02  0.51100000000E-03 0.  1.
         11   -1    0    0    0    0 -0.00000000000E+00 -0.00000000000E+00 -0.45593999997E+02  0.45594000000E+02  0.51100000000E-03 0. -1.
         23    2    1    2    0    0  0.00000000000E+00  0.00000000000E+00  0.00000000000E+00  0.91188000000E+02  0.91188000000E+02 0.  0.
    9900012    2    3    3    0    0  0.10381708946E+02  0.17867017437E+02 -0.30475715371E+02  0.54367089907E+02  0.40000013061E+02 0.  0.
        -12    1    3    3    0    0 -0.10381708946E+02 -0.17867017437E+02  0.30475715371E+02  0.36820910093E+02  0.00000000000E+00 0.  1.
         11    1    4    4    0    0 -0.62349256156E+01  0.10978040763E+02 -0.12457913732E+02  0.17736721547E+02  0.51100000000E-03 0. -1.
        -11    1    4    4    0    0  0.12955209156E+02 -0.82445931625E+01 -0.44759864324E+01  0.15995162253E+02  0.51100000000E-03 0.  1.
        -12    1    4    4    0    0  0.36614254051E+01  0.15133569836E+02 -0.13541815206E+02  0.20635206106E+02  0.00000000000E+00 0.  1.
</event>
<event>
 8    1  0.1240174E-006  0.9118800E+02  0.7816164E-02  0.1184000E+00
        -11   -1    0    0    0    0  0.00000000000E+00  0.00000000000E+00  0.45593999997E+02  0.45594000000E+02  0.51100000000E-03 0.  1.
         11   -1    0    0    0    0 -0.00000000000E+00 -0.00000000000E+00 -0.45593999997E+02  0.45594000000E+02  0.51100000000E-03 0. -1.
         23    2    1    2    0    0  0.44408920985E-15  0.71054273576E-14 -0.17763568394E-14  0.91188000000E+02  0.91188000000E+02 0.  0.
    9900012    2    3    3    0    0 -0.38262872791E+01  0.35999937873E+02 -0.67189498185E+01  0.54367078123E+02  0.39999986198E+02 0.  0.
        -12    1    3    3    0    0  0.38262872791E+01 -0.35999937873E+02  0.67189498185E+01  0.36820921877E+02  0.00000000000E+00 0.  1.
         11    1    4    4    0    0 -0.20836689084E+01 -0.34334047718E+01 -0.16300464872E+01  0.43343968736E+01  0.51100000000E-03 0. -1.
        -11    1    4    4    0    0  0.83125513992E+01  0.35027818406E+01  0.63225885096E+01  0.11015585191E+02  0.51100000000E-03 0.  1.
         12    1    4    4    0    0 -0.10055169770E+02  0.35930560804E+02 -0.11411491841E+02  0.39017096058E+02  0.00000000000E+00 0. -1.
</event>
<event>
 8    1  0.1240174E-006  0.9118800E+02  0.7816164E-02  0.1184000E+00
        -11   -1    0    0    0    0  0.00000000000E+00  0.00000000000E+00  0.45593999997E+02  0.45594000000E+02  0.51100000000E-03 0.  1.
         11   -1    0    0    0    0 -0.00000000000E+00 -0.00000000000E+00 -0.45593999997E+02  0.45594000000E+02  0.51100000000E-03 0. -1.
         23    2    1    2    0    0 -0.35527136788E-14  0.00000000000E+00  0.00000000000E+00  0.91188000000E+02  0.91188000000E+02 0.  0.
    9900012    2    3    3    0    0  0.21824107449E+02 -0.28321796785E+02 -0.87957283421E+01  0.54367072851E+02  0.39999974178E+02 0.  0.
         12    1    3    3    0    0 -0.21824107449E+02  0.28321796785E+02  0.87957283421E+01  0.36820927149E+02  0.00000000000E+00 0. -1.
         11    1    4    4    0    0  0.41932173205E+01  0.32469359057E+01 -0.68726230126E+01  0.86809337981E+01  0.51100000000E-03 0. -1.
        -11    1    4    4    0    0  0.16375419285E+02 -0.25208783396E+01 -0.47499274750E+00  0.16575126025E+02  0.51100000000E-03 0.  1.
         12    1    4    4    0    0  0.12554708429E+01 -0.29047854351E+02 -0.14481125820E+01  0.29111013028E+02  0.00000000000E+00 0. -1.
</event>
<event>
 8    1  0.1240174E-006  0.9118800E+02  0.7816164E-02  0.1184000E+00
        -11   -1    0    0    0    0  0.00000000000E+00  0.00000000000E+00  0.45593999997E+02  0.45594000000E+02  0.51100000000E-03 0. -1.
         11   -1    0    0    0    0 -0.00000000000E+00 -0.00000000000E+00 -0.45593999997E+02  0.45594000000E+02  0.51100000000E-03 0.  1.
         23    2    1    2    0    0 -0.17763568394E-14  0.00000000000E+00  0.00000000000E+00  0.91188000000E+02  0.91188000000E+02 0.  0.
    9900012    2    3    3    0    0 -0.10289147538E+02 -0.87174501626E+01 -0.34262505169E+02  0.54367085361E+02  0.40000002698E+02 0.  0.
         12    1    3    3    0    0  0.10289147538E+02  0.87174501626E+01  0.34262505169E+02  0.36820914639E+02  0.00000000000E+00 0. -1.
         11    1    4    4    0    0 -0.12627560670E+02 -0.35484222068E+01 -0.10389097035E+02  0.16732600697E+02  0.51100000000E-03 0. -1.
        -11    1    4    4    0    0 -0.12927849630E+02 -0.46402962912E+01 -0.98935786770E+01  0.16927626680E+02  0.51100000000E-03 0.  1.
         12    1    4    4    0    0  0.15266262762E+02 -0.52873166453E+00 -0.13979829457E+02  0.20706857983E+02  0.00000000000E+00 0. -1.
</event>
<event>
 8    1  0.1240174E-006  0.9118800E+02  0.7816164E-02  0.1184000E+00
        -11   -1    0    0    0    0  0.00000000000E+00  0.00000000000E+00  0.45593999997E+02  0.45594000000E+02  0.51100000000E-03 0.  1.
         11   -1    0    0    0    0 -0.00000000000E+00 -0.00000000000E+00 -0.45593999997E+02  0.45594000000E+02  0.51100000000E-03 0. -1.
         23    2    1    2    0    0  0.35527136788E-14  0.00000000000E+00  0.35527136788E-14  0.91188000000E+02  0.91188000000E+02 0.  0.
    9900012    2    3    3    0    0  0.22552474399E+02 -0.85050961094E+01  0.27835750080E+02  0.54367085510E+02  0.40000003037E+02 0.  0.
         12    1    3    3    0    0 -0.22552474399E+02  0.85050961094E+01 -0.27835750080E+02  0.36820914490E+02  0.00000000000E+00 0. -1.
         11    1    4    4    0    0 -0.77443909939E+00  0.27132357995E+01 -0.17447801365E+00  0.28269855431E+01  0.51100000000E-03 0. -1.
        -11    1    4    4    0    0 -0.65230683412E+01  0.52571206526E+01  0.18862783859E+01  0.85875365822E+01  0.51100000000E-03 0.  1.
        -12    1    4    4    0    0  0.29849981840E+02 -0.16475452562E+02  0.26123949708E+02  0.42952563385E+02  0.00000000000E+00 0.  1.
</event>
<event>
 8    1  0.1240174E-006  0.9118800E+02  0.7816164E-02  0.1184000E+00
        -11   -1    0    0    0    0  0.00000000000E+00  0.00000000000E+00  0.45593999997E+02  0.45594000000E+02  0.51100000000E-03 0.  1.
         11   -1    0    0    0    0 -0.00000000000E+00 -0.00000000000E+00 -0.45593999997E+02  0.45594000000E+02  0.51100000000E-03 0. -1.
         23    2    1    2    0    0 -0.17763568394E-14 -0.71054273576E-14  0.00000000000E+00  0.91188000000E+02  0.91188000000E+02 0.  0.
    9900012    2    3    3    0    0 -0.10902941182E+02 -0.34064627683E+02  0.87468514632E+01  0.54367076653E+02  0.39999982845E+02 0.  0.
         12    1    3    3    0    0  0.10902941182E+02  0.34064627683E+02 -0.87468514632E+01  0.36820923347E+02  0.00000000000E+00 0. -1.
         11    1    4    4    0    0 -0.12017267207E+02 -0.35337635459E+02  0.11431245710E+02  0.39036349339E+02  0.51100000000E-03 0.  1.
        -11    1    4    4    0    0  0.46783627805E+00 -0.67574781797E+01 -0.26517016976E+01  0.72741944080E+01  0.51100000000E-03 0. -1.
         12    1    4    4    0    0  0.64648974705E+00  0.80304859547E+01 -0.32692549651E-01  0.80565329060E+01  0.00000000000E+00 0. -1.
</event>
<event>
 8    1  0.1240174E-006  0.9118800E+02  0.7816164E-02  0.1184000E+00
        -11   -1    0    0    0    0  0.00000000000E+00  0.00000000000E+00  0.45593999997E+02  0.45594000000E+02  0.51100000000E-03 0.  1.
         11   -1    0    0    0    0 -0.00000000000E+00 -0.00000000000E+00 -0.45593999997E+02  0.45594000000E+02  0.51100000000E-03 0. -1.
         23    2    1    2    0    0  0.00000000000E+00  0.00000000000E+00  0.17763568394E-14  0.91188000000E+02  0.91188000000E+02 0.  0.
    9900012    2    3    3    0    0 -0.20399975021E+02  0.29428250051E+02 -0.85788756117E+01  0.54367109344E+02  0.40000057372E+02 0.  0.
         12    1    3    3    0    0  0.20399975021E+02 -0.29428250051E+02  0.85788756117E+01  0.36820890656E+02  0.00000000000E+00 0. -1.
         11    1    4    4    0    0 -0.11283676442E+02  0.33641956461E+02 -0.17548892580E+01  0.35527204015E+02  0.51100000000E-03 0. -1.
        -11    1    4    4    0    0 -0.12374580239E+02 -0.36860047565E+00 -0.37460757409E+01  0.12934418662E+02  0.51100000000E-03 0.  1.
         12    1    4    4    0    0  0.32582816611E+01 -0.38451059344E+01 -0.30779106128E+01  0.59054866667E+01  0.00000000000E+00 0. -1.
</event>
<event>
 8    1  0.1240174E-006  0.9118800E+02  0.7816164E-02  0.1184000E+00
        -11   -1    0    0    0    0  0.00000000000E+00  0.00000000000E+00  0.45593999997E+02  0.45594000000E+02  0.51100000000E-03 0.  1.
         11   -1    0    0    0    0 -0.00000000000E+00 -0.00000000000E+00 -0.45593999997E+02  0.45594000000E+02  0.51100000000E-03 0. -1.
         23    2    1    2    0    0  0.00000000000E+00  0.00000000000E+00  0.35527136788E-14  0.91188000000E+02  0.91188000000E+02 0.  0.
    9900012    2    3    3    0    0 -0.22570043664E+02  0.20110173245E+02 -0.21022660705E+02  0.54367106447E+02  0.40000050767E+02 0.  0.
        -12    1    3    3    0    0  0.22570043664E+02 -0.20110173245E+02  0.21022660705E+02  0.36820893553E+02  0.00000000000E+00 0.  1.
         11    1    4    4    0    0 -0.19263374003E+02  0.20630542068E+01 -0.17304802769E+02  0.25976719766E+02  0.51100000000E-03 0. -1.
        -11    1    4    4    0    0 -0.29906624119E+01  0.12742283420E+02  0.81281078203E+01  0.15407010918E+02  0.51100000000E-03 0.  1.
        -12    1    4    4    0    0 -0.31600724879E+00  0.53048356175E+01 -0.11845965756E+02  0.12983375763E+02  0.00000000000E+00 0.  1.
</event>
<event>
 8    1  0.1240174E-006  0.9118800E+02  0.7816164E-02  0.1184000E+00
        -11   -1    0    0    0    0  0.00000000000E+00  0.00000000000E+00  0.45593999997E+02  0.45594000000E+02  0.51100000000E-03 0.  1.
         11   -1    0    0    0    0 -0.00000000000E+00 -0.00000000000E+00 -0.45593999997E+02  0.45594000000E+02  0.51100000000E-03 0. -1.
         23    2    1    2    0    0  0.17763568394E-14 -0.71054273576E-14  0.17763568394E-14  0.91188000000E+02  0.91188000000E+02 0.  0.
    9900012    2    3    3    0    0  0.64289567631E+01 -0.36052997906E+02  0.38250001411E+01  0.54367071588E+02  0.39999971299E+02 0.  0.
         12    1    3    3    0    0 -0.64289567631E+01  0.36052997906E+02 -0.38250001411E+01  0.36820928412E+02  0.00000000000E+00 0. -1.
         11    1    4    4    0    0  0.31931733809E+01 -0.95460232678E+00 -0.62609319209E+01  0.70927350593E+01  0.51100000000E-03 0. -1.
        -11    1    4    4    0    0  0.14845717190E+02 -0.22873371319E+02 -0.66827348661E+00  0.27276968748E+02  0.51100000000E-03 0.  1.
         12    1    4    4    0    0 -0.11609933808E+02 -0.12225024260E+02  0.10754205549E+02  0.19997367781E+02  0.00000000000E+00 0. -1.
</event>
<event>
 8    1  0.1240174E-006  0.9118800E+02  0.7816164E-02  0.1184000E+00
        -11   -1    0    0    0    0  0.00000000000E+00  0.00000000000E+00  0.45593999997E+02  0.45594000000E+02  0.51100000000E-03 0.  1.
         11   -1    0    0    0    0 -0.00000000000E+00 -0.00000000000E+00 -0.45593999997E+02  0.45594000000E+02  0.51100000000E-03 0. -1.
         23    2    1    2    0    0  0.88817841970E-15  0.00000000000E+00 -0.17763568394E-14  0.91188000000E+02  0.91188000000E+02 0.  0.
    9900012    2    3    3    0    0  0.52671136836E+01 -0.36073324307E+02 -0.51722729460E+01  0.54367087185E+02  0.40000006855E+02 0.  0.
         12    1    3    3    0    0 -0.52671136836E+01  0.36073324307E+02  0.51722729460E+01  0.36820912815E+02  0.00000000000E+00 0. -1.
         11    1    4    4    0    0  0.91003772753E+00  0.15350585723E+01  0.95281221550E+01  0.96937962403E+01  0.51100000000E-03 0. -1.
        -11    1    4    4    0    0  0.53331167707E+01 -0.11563872895E+02  0.31069474286E+01  0.13107952296E+02  0.51100000000E-03 0.  1.
         12    1    4    4    0    0 -0.97604081469E+00 -0.26044509985E+02 -0.17807342530E+02  0.31565338648E+02  0.00000000000E+00 0. -1.
</event>
<event>
 8    1  0.1240174E-006  0.9118800E+02  0.7816164E-02  0.1184000E+00
        -11   -1    0    0    0    0  0.00000000000E+00  0.00000000000E+00  0.45593999997E+02  0.45594000000E+02  0.51100000000E-03 0.  1.
         11   -1    0    0    0    0 -0.00000000000E+00 -0.00000000000E+00 -0.45593999997E+02  0.45594000000E+02  0.51100000000E-03 0. -1.
         23    2    1    2    0    0  0.00000000000E+00  0.71054273576E-14 -0.17763568394E-14  0.91188000000E+02  0.91188000000E+02 0.  0.
    9900012    2    3    3    0    0 -0.15156718267E+02 -0.32304581512E+02  0.90811084010E+01  0.54367100703E+02  0.40000037672E+02 0.  0.
         12    1    3    3    0    0  0.15156718267E+02  0.32304581512E+02 -0.90811084010E+01  0.36820899297E+02  0.00000000000E+00 0. -1.
         11    1    4    4    0    0  0.89953204304E+00 -0.32749119198E+01  0.37285312017E+00  0.34166102630E+01  0.51100000000E-03 0. -1.
        -11    1    4    4    0    0 -0.24814340354E+02 -0.12824474564E+02 -0.44884409038E+01  0.28290718214E+02  0.51100000000E-03 0.  1.
        -12    1    4    4    0    0  0.87580900444E+01 -0.16205195028E+02  0.13196696185E+02  0.22659772226E+02  0.00000000000E+00 0.  1.
</event>
<event>
 8    1  0.1240174E-006  0.9118800E+02  0.7816164E-02  0.1184000E+00
        -11   -1    0    0    0    0  0.00000000000E+00  0.00000000000E+00  0.45593999997E+02  0.45594000000E+02  0.51100000000E-03 0.  1.
         11   -1    0    0    0    0 -0.00000000000E+00 -0.00000000000E+00 -0.45593999997E+02  0.45594000000E+02  0.51100000000E-03 0. -1.
         23    2    1    2    0    0  0.35527136788E-14  0.88817841970E-15 -0.71054273576E-14  0.91188000000E+02  0.91188000000E+02 0.  0.
    9900012    2    3    3    0    0  0.12202723128E+02  0.53380922788E+01 -0.34327559896E+02  0.54367040624E+02  0.39999900711E+02 0.  0.
        -12    1    3    3    0    0 -0.12202723128E+02 -0.53380922788E+01  0.34327559896E+02  0.36820959376E+02  0.00000000000E+00 0.  1.
         11    1    4    4    0    0 -0.19412960805E+01  0.40518780378E+01  0.10211279713E+00  0.44940820408E+01  0.51100000000E-03 0. -1.
        -11    1    4    4    0    0 -0.28771422481E+01  0.60137237476E+01  0.38608673687E+01  0.77038378701E+01  0.51100000000E-03 0.  1.
         12    1    4    4    0    0  0.17021161457E+02 -0.47275095066E+01 -0.38290540062E+02  0.42169120713E+02  0.00000000000E+00 0. -1.
</event>
<event>
 8    1  0.1240174E-006  0.9118800E+02  0.7816164E-02  0.1184000E+00
        -11   -1    0    0    0    0  0.00000000000E+00  0.00000000000E+00  0.45593999997E+02  0.45594000000E+02  0.51100000000E-03 0. -1.
         11   -1    0    0    0    0 -0.00000000000E+00 -0.00000000000E+00 -0.45593999997E+02  0.45594000000E+02  0.51100000000E-03 0.  1.
         23    2    1    2    0    0 -0.44408920985E-15  0.00000000000E+00  0.00000000000E+00  0.91188000000E+02  0.91188000000E+02 0.  0.
    9900012    2    3    3    0    0  0.32934142479E+01  0.27535234757E+02 -0.24222767241E+02  0.54367106701E+02  0.40000051346E+02 0.  0.
         12    1    3    3    0    0 -0.32934142479E+01 -0.27535234757E+02  0.24222767241E+02  0.36820893299E+02  0.00000000000E+00 0. -1.
         11    1    4    4    0    0 -0.44911539954E+01  0.10636200602E+02 -0.96956917571E+01  0.15076659656E+02  0.51100000000E-03 0. -1.
        -11    1    4    4    0    0 -0.77989390104E+01  0.13077102098E+02 -0.17257726142E+02  0.23014412025E+02  0.51100000000E-03 0.  1.
        -12    1    4    4    0    0  0.15583507254E+02  0.38219320565E+01  0.27306506583E+01  0.16276035021E+02  0.00000000000E+00 0.  1.
</event>
<event>
 8    1  0.1240174E-006  0.9118800E+02  0.7816164E-02  0.1184000E+00
        -11   -1    0    0    0    0  0.00000000000E+00  0.00000000000E+00  0.45593999997E+02  0.45594000000E+02  0.51100000000E-03 0. -1.
         11   -1    0    0    0    0 -0.00000000000E+00 -0.00000000000E+00 -0.45593999997E+02  0.45594000000E+02  0.51100000000E-03 0.  1.
         23    2    1    2    0    0  0.71054273576E-14  0.71054273576E-14 -0.44408920985E-15  0.91188000000E+02  0.91188000000E+02 0.  0.
    9900012    2    3    3    0    0  0.17541906419E+02  0.32282202896E+02  0.24330846359E+01  0.54367095537E+02  0.40000025895E+02 0.  0.
        -12    1    3    3    0    0 -0.17541906419E+02 -0.32282202896E+02 -0.24330846359E+01  0.36820904463E+02  0.00000000000E+00 0.  1.
         11    1    4    4    0    0 -0.20631585878E+01  0.11255743842E+02 -0.59039000694E+01  0.12876506866E+02  0.51100000000E-03 0. -1.
        -11    1    4    4    0    0 -0.56578736142E+00 -0.64801167672E+01  0.19227177568E+01  0.67829840401E+01  0.51100000000E-03 0.  1.
         12    1    4    4    0    0  0.20170852368E+02  0.27506575822E+02  0.64142669484E+01  0.34707604630E+02  0.00000000000E+00 0. -1.
</event>
<event>
 8    1  0.1240174E-006  0.9118800E+02  0.7816164E-02  0.1184000E+00
        -11   -1    0    0    0    0  0.00000000000E+00  0.00000000000E+00  0.45593999997E+02  0.45594000000E+02  0.51100000000E-03 0.  1.
         11   -1    0    0    0    0 -0.00000000000E+00 -0.00000000000E+00 -0.45593999997E+02  0.45594000000E+02  0.51100000000E-03 0. -1.
         23    2    1    2    0    0  0.00000000000E+00 -0.17763568394E-14  0.00000000000E+00  0.91188000000E+02  0.91188000000E+02 0.  0.
    9900012    2    3    3    0    0 -0.22302539351E+02 -0.13433623107E+02 -0.26036805486E+02  0.54367072103E+02  0.39999972472E+02 0.  0.
        -12    1    3    3    0    0  0.22302539351E+02  0.13433623107E+02  0.26036805486E+02  0.36820927897E+02  0.00000000000E+00 0.  1.
         11    1    4    4    0    0  0.66822923207E+01 -0.63932248953E+01 -0.50686578588E+01  0.10545977810E+02  0.51100000000E-03 0. -1.
        -11    1    4    4    0    0 -0.32365372866E+02 -0.58892656795E+01 -0.13530835772E+02  0.35570835357E+02  0.51100000000E-03 0.  1.
        -12    1    4    4    0    0  0.33805411945E+01 -0.11511325327E+01 -0.74373118551E+01  0.82502589357E+01  0.00000000000E+00 0.  1.
</event>
<event>
 8    1  0.1240174E-006  0.9118800E+02  0.7816164E-02  0.1184000E+00
        -11   -1    0    0    0    0  0.00000000000E+00  0.00000000000E+00  0.45593999997E+02  0.45594000000E+02  0.51100000000E-03 0. -1.
         11   -1    0    0    0    0 -0.00000000000E+00 -0.00000000000E+00 -0.45593999997E+02  0.45594000000E+02  0.51100000000E-03 0.  1.
         23    2    1    2    0    0  0.35527136788E-14  0.35527136788E-14  0.00000000000E+00  0.91188000000E+02  0.91188000000E+02 0.  0.
    9900012    2    3    3    0    0  0.20558106166E+02  0.21772249743E+02  0.21426912769E+02  0.54367093184E+02  0.40000020531E+02 0.  0.
        -12    1    3    3    0    0 -0.20558106166E+02 -0.21772249743E+02 -0.21426912769E+02  0.36820906816E+02  0.00000000000E+00 0.  1.
         11    1    4    4    0    0  0.11247652106E+02 -0.49923345270E+01  0.52293196926E+01  0.13370821465E+02  0.51100000000E-03 0. -1.
        -11    1    4    4    0    0  0.11330549150E+01 -0.14270272252E+01 -0.46489448149E+01  0.49932863221E+01  0.51100000000E-03 0.  1.
         12    1    4    4    0    0  0.81773991445E+01  0.28191611495E+02  0.20846537891E+02  0.36002985397E+02  0.00000000000E+00 0. -1.
</event>
<event>
 8    1  0.1240174E-006  0.9118800E+02  0.7816164E-02  0.1184000E+00
        -11   -1    0    0    0    0  0.00000000000E+00  0.00000000000E+00  0.45593999997E+02  0.45594000000E+02  0.51100000000E-03 0. -1.
         11   -1    0    0    0    0 -0.00000000000E+00 -0.00000000000E+00 -0.45593999997E+02  0.45594000000E+02  0.51100000000E-03 0.  1.
         23    2    1    2    0    0 -0.35527136788E-14  0.00000000000E+00  0.00000000000E+00  0.91188000000E+02  0.91188000000E+02 0.  0.
    9900012    2    3    3    0    0 -0.17876813377E+02  0.54160887308E+01  0.31731038863E+02  0.54367172999E+02  0.40000202486E+02 0.  0.
        -12    1    3    3    0    0  0.17876813377E+02 -0.54160887308E+01 -0.31731038863E+02  0.36820827001E+02  0.00000000000E+00 0.  1.
         11    1    4    4    0    0 -0.13052547815E+02  0.12782762277E+02  0.28030526415E+02  0.33458607671E+02  0.51100000000E-03 0. -1.
        -11    1    4    4    0    0 -0.16405346144E+01  0.61673908167E+01 -0.45303528894E+00  0.63979140774E+01  0.51100000000E-03 0.  1.
        -12    1    4    4    0    0 -0.31837309473E+01 -0.13534064363E+02  0.41535477369E+01  0.14510651251E+02  0.00000000000E+00 0.  1.
</event>
<event>
 8    1  0.1240174E-006  0.9118800E+02  0.7816164E-02  0.1184000E+00
        -11   -1    0    0    0    0  0.00000000000E+00  0.00000000000E+00  0.45593999997E+02  0.45594000000E+02  0.51100000000E-03 0.  1.
         11   -1    0    0    0    0 -0.00000000000E+00 -0.00000000000E+00 -0.45593999997E+02  0.45594000000E+02  0.51100000000E-03 0. -1.
         23    2    1    2    0    0  0.35527136788E-14  0.00000000000E+00 -0.71054273576E-14  0.91188000000E+02  0.91188000000E+02 0.  0.
    9900012    2    3    3    0    0 -0.19394524503E+02 -0.67273669965E+01  0.30567545650E+02  0.54367083465E+02  0.39999998375E+02 0.  0.
         12    1    3    3    0    0  0.19394524503E+02  0.67273669965E+01 -0.30567545650E+02  0.36820916535E+02  0.00000000000E+00 0. -1.
         11    1    4    4    0    0  0.97167053004E+00 -0.14527059120E+01 -0.76437485631E+01  0.78410069789E+01  0.51100000000E-03 0. -1.
        -11    1    4    4    0    0 -0.31114683997E+01  0.26461147508E+01  0.19304370031E+02  0.19731747552E+02  0.51100000000E-03 0.  1.
        -12    1    4    4    0    0 -0.17254726634E+02 -0.79207758353E+01  0.18906924182E+02  0.26794328934E+02  0.00000000000E+00 0.  1.
</event>
<event>
 8    1  0.1240174E-006  0.9118800E+02  0.7816164E-02  0.1184000E+00
        -11   -1    0    0    0    0  0.00000000000E+00  0.00000000000E+00  0.45593999997E+02  0.45594000000E+02  0.51100000000E-03 0.  1.
         11   -1    0    0    0    0 -0.00000000000E+00 -0.00000000000E+00 -0.45593999997E+02  0.45594000000E+02  0.51100000000E-03 0. -1.
         23    2    1    2    0    0  0.88817841970E-15 -0.35527136788E-14  0.35527136788E-14  0.91188000000E+02  0.91188000000E+02 0.  0.
    9900012    2    3    3    0    0  0.54534697187E+01 -0.25724109061E+02 -0.25774185483E+02  0.54367098921E+02  0.40000033609E+02 0.  0.
        -12    1    3    3    0    0 -0.54534697187E+01  0.25724109061E+02  0.25774185483E+02  0.36820901079E+02  0.00000000000E+00 0.  1.
         11    1    4    4    0    0 -0.58912910169E+00 -0.26994414552E+00 -0.11965087875E+01  0.13607264529E+01  0.51100000000E-03 0. -1.
        -11    1    4    4    0    0  0.15645328846E+02  0.10321556429E+01 -0.91972373891E-01  0.15679608386E+02  0.51100000000E-03 0.  1.
         12    1    4    4    0    0 -0.96027300252E+01 -0.26486320559E+02 -0.24485704322E+02  0.37326764082E+02  0.00000000000E+00 0. -1.
</event>
<event>
 8    1  0.1240174E-006  0.9118800E+02  0.7816164E-02  0.1184000E+00
        -11   -1    0    0    0    0  0.00000000000E+00  0.00000000000E+00  0.45593999997E+02  0.45594000000E+02  0.51100000000E-03 0. -1.
         11   -1    0    0    0    0 -0.00000000000E+00 -0.00000000000E+00 -0.45593999997E+02  0.45594000000E+02  0.51100000000E-03 0.  1.
         23    2    1    2    0    0 -0.71054273576E-14  0.17763568394E-14  0.88817841970E-15  0.91188000000E+02  0.91188000000E+02 0.  0.
    9900012    2    3    3    0    0 -0.35225027919E+02  0.99046609240E+01 -0.41079388650E+01  0.54367081195E+02  0.39999993201E+02 0.  0.
        -12    1    3    3    0    0  0.35225027919E+02 -0.99046609240E+01  0.41079388650E+01  0.36820918805E+02  0.00000000000E+00 0.  1.
         11    1    4    4    0    0 -0.28206712396E+02 -0.16408990261E+01 -0.16605724360E+02  0.32772873777E+02  0.51100000000E-03 0. -1.
        -11    1    4    4    0    0 -0.47250705629E+01  0.27114250009E+01  0.11094726378E+02  0.12360059508E+02  0.51100000000E-03 0.  1.
        -12    1    4    4    0    0 -0.22932449597E+01  0.88341349492E+01  0.14030591170E+01  0.92341479104E+01  0.00000000000E+00 0.  1.
</event>
<event>
 8    1  0.1240174E-006  0.9118800E+02  0.7816164E-02  0.1184000E+00
        -11   -1    0    0    0    0  0.00000000000E+00  0.00000000000E+00  0.45593999997E+02  0.45594000000E+02  0.51100000000E-03 0. -1.
         11   -1    0    0    0    0 -0.00000000000E+00 -0.00000000000E+00 -0.45593999997E+02  0.45594000000E+02  0.51100000000E-03 0.  1.
         23    2    1    2    0    0 -0.35527136788E-14  0.00000000000E+00 -0.35527136788E-14  0.91188000000E+02  0.91188000000E+02 0.  0.
    9900012    2    3    3    0    0 -0.28479181047E+02  0.16567999776E+02  0.16438241780E+02  0.54367106984E+02  0.40000051991E+02 0.  0.
        -12    1    3    3    0    0  0.28479181047E+02 -0.16567999776E+02 -0.16438241780E+02  0.36820893016E+02  0.00000000000E+00 0.  1.
         11    1    4    4    0    0 -0.97672292406E+01 -0.24654704077E+01 -0.47863448322E+01  0.11152865483E+02  0.51100000000E-03 0. -1.
        -11    1    4    4    0    0 -0.13707650237E+02  0.60245403094E-01 -0.78200438686E+00  0.13730070490E+02  0.51100000000E-03 0.  1.
         12    1    4    4    0    0 -0.50043015690E+01  0.18973224781E+02  0.22006590999E+02  0.29484171011E+02  0.00000000000E+00 0. -1.
</event>
<event>
 8    1  0.1240174E-006  0.9118800E+02  0.7816164E-02  0.1184000E+00
        -11   -1    0    0    0    0  0.00000000000E+00  0.00000000000E+00  0.45593999997E+02  0.45594000000E+02  0.51100000000E-03 0.  1.
         11   -1    0    0    0    0 -0.00000000000E+00 -0.00000000000E+00 -0.45593999997E+02  0.45594000000E+02  0.51100000000E-03 0. -1.
         23    2    1    2    0    0  0.00000000000E+00  0.00000000000E+00 -0.17763568394E-14  0.91188000000E+02  0.91188000000E+02 0.  0.
    9900012    2    3    3    0    0  0.24275668019E+02 -0.27443770675E+02  0.36484608495E+01  0.54367083754E+02  0.39999999034E+02 0.  0.
        -12    1    3    3    0    0 -0.24275668019E+02  0.27443770675E+02 -0.36484608495E+01  0.36820916246E+02  0.00000000000E+00 0.  1.
         11    1    4    4    0    0  0.21045847249E+02 -0.22716590989E+02  0.76778023690E+01  0.31904856089E+02  0.51100000000E-03 0. -1.
        -11    1    4    4    0    0  0.10521755624E+01 -0.12747281193E+02  0.86109852596E+00  0.12819584320E+02  0.51100000000E-03 0.  1.
         12    1    4    4    0    0  0.21776452075E+01  0.80201015069E+01 -0.48904400455E+01  0.96426433445E+01  0.00000000000E+00 0. -1.
</event>
<event>
 8    1  0.1240174E-006  0.9118800E+02  0.7816164E-02  0.1184000E+00
        -11   -1    0    0    0    0  0.00000000000E+00  0.00000000000E+00  0.45593999997E+02  0.45594000000E+02  0.51100000000E-03 0. -1.
         11   -1    0    0    0    0 -0.00000000000E+00 -0.00000000000E+00 -0.45593999997E+02  0.45594000000E+02  0.51100000000E-03 0.  1.
         23    2    1    2    0    0 -0.35527136788E-14 -0.35527136788E-14  0.00000000000E+00  0.91188000000E+02  0.91188000000E+02 0.  0.
    9900012    2    3    3    0    0 -0.18719275652E+02 -0.28105152425E+02 -0.14678895132E+02  0.54367070679E+02  0.39999969227E+02 0.  0.
         12    1    3    3    0    0  0.18719275652E+02  0.28105152425E+02  0.14678895132E+02  0.36820929321E+02  0.00000000000E+00 0. -1.
         11    1    4    4    0    0 -0.13197180508E+02  0.41199279170E+00 -0.81986786918E+01  0.15541996138E+02  0.51100000000E-03 0. -1.
        -11    1    4    4    0    0  0.14001982627E+01 -0.19329009058E+01 -0.10761272965E+02  0.11022779013E+02  0.51100000000E-03 0.  1.
         12    1    4    4    0    0 -0.69222934067E+01 -0.26584244311E+02  0.42810565251E+01  0.27802295527E+02  0.00000000000E+00 0. -1.
</event>
<event>
 8    1  0.1240174E-006  0.9118800E+02  0.7816164E-02  0.1184000E+00
        -11   -1    0    0    0    0  0.00000000000E+00  0.00000000000E+00  0.45593999997E+02  0.45594000000E+02  0.51100000000E-03 0.  1.
         11   -1    0    0    0    0 -0.00000000000E+00 -0.00000000000E+00 -0.45593999997E+02  0.45594000000E+02  0.51100000000E-03 0. -1.
         23    2    1    2    0    0  0.00000000000E+00  0.00000000000E+00  0.35527136788E-14  0.91188000000E+02  0.91188000000E+02 0.  0.
    9900012    2    3    3    0    0 -0.20169775793E+02  0.18528755327E+02  0.24609876448E+02  0.54367073229E+02  0.39999975040E+02 0.  0.
         12    1    3    3    0    0  0.20169775793E+02 -0.18528755327E+02 -0.24609876448E+02  0.36820926771E+02  0.00000000000E+00 0. -1.
         11    1    4    4    0    0  0.65125023833E+01 -0.35562135893E+01  0.47147560847E+01  0.87913746129E+01  0.51100000000E-03 0.  1.
        -11    1    4    4    0    0 -0.23352687119E+02  0.55777629650E+01  0.97327715322E+01  0.25907263023E+02  0.51100000000E-03 0. -1.
        -12    1    4    4    0    0 -0.33295910569E+01  0.16507205951E+02  0.10162348831E+02  0.19668435593E+02  0.00000000000E+00 0.  1.
</event>
<event>
 8    1  0.1240174E-006  0.9118800E+02  0.7816164E-02  0.1184000E+00
        -11   -1    0    0    0    0  0.00000000000E+00  0.00000000000E+00  0.45593999997E+02  0.45594000000E+02  0.51100000000E-03 0.  1.
         11   -1    0    0    0    0 -0.00000000000E+00 -0.00000000000E+00 -0.45593999997E+02  0.45594000000E+02  0.51100000000E-03 0. -1.
         23    2    1    2    0    0  0.00000000000E+00 -0.44408920985E-15 -0.88817841970E-15  0.91188000000E+02  0.91188000000E+02 0.  0.
    9900012    2    3    3    0    0  0.36254550883E+02 -0.25566421015E+01  0.59035100564E+01  0.54367077829E+02  0.39999985526E+02 0.  0.
         12    1    3    3    0    0 -0.36254550883E+02  0.25566421015E+01 -0.59035100564E+01  0.36820922171E+02  0.00000000000E+00 0. -1.
         11    1    4    4    0    0 -0.10514304398E+01  0.40765467340E+01 -0.14975795895E+01  0.44683871958E+01  0.51100000000E-03 0. -1.
        -11    1    4    4    0    0  0.10345486623E+02  0.62864017774E+01  0.14780424948E+02  0.19105206166E+02  0.51100000000E-03 0.  1.
         12    1    4    4    0    0  0.26960494700E+02 -0.12919590613E+02 -0.73793353017E+01  0.30793484466E+02  0.00000000000E+00 0. -1.
</event>
<event>
 8    1  0.1240174E-006  0.9118800E+02  0.7816164E-02  0.1184000E+00
        -11   -1    0    0    0    0  0.00000000000E+00  0.00000000000E+00  0.45593999997E+02  0.45594000000E+02  0.51100000000E-03 0.  1.
         11   -1    0    0    0    0 -0.00000000000E+00 -0.00000000000E+00 -0.45593999997E+02  0.45594000000E+02  0.51100000000E-03 0. -1.
         23    2    1    2    0    0  0.00000000000E+00  0.00000000000E+00  0.00000000000E+00  0.91188000000E+02  0.91188000000E+02 0.  0.
    9900012    2    3    3    0    0  0.16370502811E+02 -0.25321233555E+02 -0.21133425191E+02  0.54367083508E+02  0.39999998473E+02 0.  0.
        -12    1    3    3    0    0 -0.16370502811E+02  0.25321233555E+02  0.21133425191E+02  0.36820916492E+02  0.00000000000E+00 0.  1.
         11    1    4    4    0    0  0.45354665342E+01 -0.19027886448E+02  0.74904313697E+01  0.20946061246E+02  0.51100000000E-03 0. -1.
        -11    1    4    4    0    0  0.58734914582E+01 -0.61897665020E+01 -0.25064066618E+02  0.26476754842E+02  0.51100000000E-03 0.  1.
        -12    1    4    4    0    0  0.59615448186E+01 -0.10358060457E+00 -0.35597899424E+01  0.69442674199E+01  0.00000000000E+00 0.  1.
</event>
<event>
 8    1  0.1240174E-006  0.9118800E+02  0.7816164E-02  0.1184000E+00
        -11   -1    0    0    0    0  0.00000000000E+00  0.00000000000E+00  0.45593999997E+02  0.45594000000E+02  0.51100000000E-03 0. -1.
         11   -1    0    0    0    0 -0.00000000000E+00 -0.00000000000E+00 -0.45593999997E+02  0.45594000000E+02  0.51100000000E-03 0.  1.
         23    2    1    2    0    0  0.88817841970E-15  0.00000000000E+00  0.00000000000E+00  0.91188000000E+02  0.91188000000E+02 0.  0.
    9900012    2    3    3    0    0 -0.49813647811E+01 -0.12579849114E+02  0.34244886041E+02  0.54367098072E+02  0.40000031676E+02 0.  0.
        -12    1    3    3    0    0  0.49813647811E+01  0.12579849114E+02 -0.34244886041E+02  0.36820901928E+02  0.00000000000E+00 0.  1.
         11    1    4    4    0    0 -0.71042114972E+00  0.46312217545E+01  0.65149557215E+01  0.80248091232E+01  0.51100000000E-03 0. -1.
        -11    1    4    4    0    0 -0.24747362802E+01 -0.70953685005E+01 -0.69113604409E+01  0.10209577720E+02  0.51100000000E-03 0.  1.
        -12    1    4    4    0    0 -0.17962073512E+01 -0.10115702368E+02  0.34641290760E+02  0.36132711229E+02  0.00000000000E+00 0.  1.
</event>
<event>
 8    1  0.1240174E-006  0.9118800E+02  0.7816164E-02  0.1184000E+00
        -11   -1    0    0    0    0  0.00000000000E+00  0.00000000000E+00  0.45593999997E+02  0.45594000000E+02  0.51100000000E-03 0. -1.
         11   -1    0    0    0    0 -0.00000000000E+00 -0.00000000000E+00 -0.45593999997E+02  0.45594000000E+02  0.51100000000E-03 0.  1.
         23    2    1    2    0    0 -0.35527136788E-14 -0.88817841970E-15  0.00000000000E+00  0.91188000000E+02  0.91188000000E+02 0.  0.
    9900012    2    3    3    0    0 -0.31920527463E+02 -0.77705276129E+01  0.16627623618E+02  0.54367095067E+02  0.40000024824E+02 0.  0.
        -12    1    3    3    0    0  0.31920527463E+02  0.77705276129E+01 -0.16627623618E+02  0.36820904933E+02  0.00000000000E+00 0.  1.
         11    1    4    4    0    0 -0.69400354498E+01 -0.21830699813E+01  0.84970412848E+01  0.11186134160E+02  0.51100000000E-03 0. -1.
        -11    1    4    4    0    0  0.66430345216E+01 -0.78874437151E+01  0.45533816041E+01  0.11272753005E+02  0.51100000000E-03 0.  1.
         12    1    4    4    0    0 -0.31623526535E+02  0.22999860835E+01  0.35772007292E+01  0.31908207902E+02  0.00000000000E+00 0. -1.
</event>
<event>
 8    1  0.1240174E-006  0.9118800E+02  0.7816164E-02  0.1184000E+00
        -11   -1    0    0    0    0  0.00000000000E+00  0.00000000000E+00  0.45593999997E+02  0.45594000000E+02  0.51100000000E-03 0. -1.
         11   -1    0    0    0    0 -0.00000000000E+00 -0.00000000000E+00 -0.45593999997E+02  0.45594000000E+02  0.51100000000E-03 0.  1.
         23    2    1    2    0    0  0.00000000000E+00  0.00000000000E+00  0.00000000000E+00  0.91188000000E+02  0.91188000000E+02 0.  0.
    9900012    2    3    3    0    0 -0.22266930709E+02  0.17397289470E+02 -0.23606781972E+02  0.54367325927E+02  0.40000551113E+02 0.  0.
         12    1    3    3    0    0  0.22266930709E+02 -0.17397289470E+02  0.23606781972E+02  0.36820674073E+02  0.00000000000E+00 0. -1.
         11    1    4    4    0    0 -0.27051241812E+02  0.17846572997E+02 -0.10328957886E+02  0.34014073890E+02  0.51100000000E-03 0. -1.
        -11    1    4    4    0    0  0.52305434614E+00  0.38391661731E+01 -0.13753615838E+02  0.14288972379E+02  0.51100000000E-03 0.  1.
         12    1    4    4    0    0  0.42612567570E+01 -0.42884497005E+01  0.47579175280E+00  0.60642796583E+01  0.00000000000E+00 0. -1.
</event>
<event>
 8    1  0.1240174E-006  0.9118800E+02  0.7816164E-02  0.1184000E+00
        -11   -1    0    0    0    0  0.00000000000E+00  0.00000000000E+00  0.45593999997E+02  0.45594000000E+02  0.51100000000E-03 0.  1.
         11   -1    0    0    0    0 -0.00000000000E+00 -0.00000000000E+00 -0.45593999997E+02  0.45594000000E+02  0.51100000000E-03 0. -1.
         23    2    1    2    0    0 -0.17763568394E-14  0.17763568394E-14  0.71054273576E-14  0.91188000000E+02  0.91188000000E+02 0.  0.
    9900012    2    3    3    0    0  0.14948990924E+02 -0.15021508938E+02 -0.30110846097E+02  0.54367066917E+02  0.39999960651E+02 0.  0.
        -12    1    3    3    0    0 -0.14948990924E+02  0.15021508938E+02  0.30110846097E+02  0.36820933083E+02  0.00000000000E+00 0.  1.
         11    1    4    4    0    0  0.80342065327E+01  0.10618650528E+00 -0.44134457106E+01  0.91672380511E+01  0.51100000000E-03 0.  1.
        -11    1    4    4    0    0 -0.78199233878E+01  0.65912058929E+01 -0.34485534798E+01  0.10792947618E+02  0.51100000000E-03 0. -1.
         12    1    4    4    0    0  0.14734707779E+02 -0.21718901336E+02 -0.22248846906E+02  0.34406881248E+02  0.00000000000E+00 0. -1.
</event>
<event>
 8    1  0.1240174E-006  0.9118800E+02  0.7816164E-02  0.1184000E+00
        -11   -1    0    0    0    0  0.00000000000E+00  0.00000000000E+00  0.45593999997E+02  0.45594000000E+02  0.51100000000E-03 0. -1.
         11   -1    0    0    0    0 -0.00000000000E+00 -0.00000000000E+00 -0.45593999997E+02  0.45594000000E+02  0.51100000000E-03 0.  1.
         23    2    1    2    0    0 -0.17763568394E-14  0.00000000000E+00  0.00000000000E+00  0.91188000000E+02  0.91188000000E+02 0.  0.
    9900012    2    3    3    0    0 -0.90256079704E+01  0.13585148408E+02  0.33011554759E+02  0.54367073829E+02  0.39999976408E+02 0.  0.
        -12    1    3    3    0    0  0.90256079704E+01 -0.13585148408E+02 -0.33011554759E+02  0.36820926171E+02  0.00000000000E+00 0.  1.
         11    1    4    4    0    0 -0.11872162051E+02  0.60122843061E+01  0.22619703673E+02  0.26243985765E+02  0.51100000000E-03 0. -1.
        -11    1    4    4    0    0 -0.22994524289E-01  0.10643700856E+02  0.17138345222E+02  0.20174532805E+02  0.51100000000E-03 0.  1.
        -12    1    4    4    0    0  0.28695486048E+01 -0.30708367544E+01 -0.67464941365E+01  0.79485552588E+01  0.00000000000E+00 0.  1.
</event>
<event>
 8    1  0.1240174E-006  0.9118800E+02  0.7816164E-02  0.1184000E+00
        -11   -1    0    0    0    0  0.00000000000E+00  0.00000000000E+00  0.45593999997E+02  0.45594000000E+02  0.51100000000E-03 0. -1.
         11   -1    0    0    0    0 -0.00000000000E+00 -0.00000000000E+00 -0.45593999997E+02  0.45594000000E+02  0.51100000000E-03 0.  1.
         23    2    1    2    0    0  0.35527136788E-14 -0.22204460493E-15 -0.71054273576E-14  0.91188000000E+02  0.91188000000E+02 0.  0.
    9900012    2    3    3    0    0  0.17046073442E+02  0.18375203448E+01 -0.32585787098E+02  0.54367100750E+02  0.40000037779E+02 0.  0.
         12    1    3    3    0    0 -0.17046073442E+02 -0.18375203448E+01  0.32585787098E+02  0.36820899250E+02  0.00000000000E+00 0. -1.
         11    1    4    4    0    0  0.52836425154E+01  0.19230578973E+00 -0.11429938478E+02  0.12593544125E+02  0.51100000000E-03 0. -1.
        -11    1    4    4    0    0  0.22463074680E+01 -0.55753811500E+01 -0.27568161289E+02  0.28215851738E+02  0.51100000000E-03 0.  1.
         12    1    4    4    0    0  0.95161234590E+01  0.72205957051E+01  0.64123126694E+01  0.13557704887E+02  0.00000000000E+00 0. -1.
</event>
<event>
 8    1  0.1240174E-006  0.9118800E+02  0.7816164E-02  0.1184000E+00
        -11   -1    0    0    0    0  0.00000000000E+00  0.00000000000E+00  0.45593999997E+02  0.45594000000E+02  0.51100000000E-03 0. -1.
         11   -1    0    0    0    0 -0.00000000000E+00 -0.00000000000E+00 -0.45593999997E+02  0.45594000000E+02  0.51100000000E-03 0.  1.
         23    2    1    2    0    0 -0.35527136788E-14  0.00000000000E+00  0.00000000000E+00  0.91188000000E+02  0.91188000000E+02 0.  0.
    9900012    2    3    3    0    0  0.18663391327E+02 -0.20027658987E+02 -0.24624176010E+02  0.54367090933E+02  0.40000015401E+02 0.  0.
         12    1    3    3    0    0 -0.18663391327E+02  0.20027658987E+02  0.24624176010E+02  0.36820909067E+02  0.00000000000E+00 0. -1.
         11    1    4    4    0    0 -0.20016771341E+01 -0.79229290266E+00  0.47706243975E+01  0.52338606015E+01  0.51100000000E-03 0. -1.
        -11    1    4    4    0    0 -0.27895597460E+01 -0.15327918908E+02 -0.11027149198E+02  0.19087293190E+02  0.51100000000E-03 0.  1.
        -12    1    4    4    0    0  0.23454628208E+02 -0.39074471762E+01 -0.18367651210E+02  0.30045937142E+02  0.00000000000E+00 0.  1.
</event>
<event>
 8    1  0.1240174E-006  0.9118800E+02  0.7816164E-02  0.1184000E+00
        -11   -1    0    0    0    0  0.00000000000E+00  0.00000000000E+00  0.45593999997E+02  0.45594000000E+02  0.51100000000E-03 0.  1.
         11   -1    0    0    0    0 -0.00000000000E+00 -0.00000000000E+00 -0.45593999997E+02  0.45594000000E+02  0.51100000000E-03 0. -1.
         23    2    1    2    0    0  0.17763568394E-14  0.00000000000E+00  0.00000000000E+00  0.91188000000E+02  0.91188000000E+02 0.  0.
    9900012    2    3    3    0    0 -0.53229897220E+01 -0.35282984095E+02  0.90860466058E+01  0.54367089784E+02  0.40000012780E+02 0.  0.
         12    1    3    3    0    0  0.53229897220E+01  0.35282984095E+02 -0.90860466058E+01  0.36820910216E+02  0.00000000000E+00 0. -1.
         11    1    4    4    0    0  0.53529169833E+01 -0.59989983944E+00  0.52985567060E+01  0.75556802126E+01  0.51100000000E-03 0. -1.
        -11    1    4    4    0    0  0.78362040744E+01 -0.23876836738E+02  0.35139086983E+01  0.25374337065E+02  0.51100000000E-03 0.  1.
        -12    1    4    4    0    0 -0.18512110780E+02 -0.10806247518E+02  0.27358120148E+00  0.21437072506E+02  0.00000000000E+00 0.  1.
</event>
<event>
 8    1  0.1240174E-006  0.9118800E+02  0.7816164E-02  0.1184000E+00
        -11   -1    0    0    0    0  0.00000000000E+00  0.00000000000E+00  0.45593999997E+02  0.45594000000E+02  0.51100000000E-03 0.  1.
         11   -1    0    0    0    0 -0.00000000000E+00 -0.00000000000E+00 -0.45593999997E+02  0.45594000000E+02  0.51100000000E-03 0. -1.
         23    2    1    2    0    0 -0.35527136788E-14 -0.88817841970E-15  0.00000000000E+00  0.91188000000E+02  0.91188000000E+02 0.  0.
    9900012    2    3    3    0    0 -0.18735673468E+02  0.64720780900E+01  0.31029867977E+02  0.54367272660E+02  0.40000429681E+02 0.  0.
         12    1    3    3    0    0  0.18735673468E+02 -0.64720780900E+01 -0.31029867977E+02  0.36820727340E+02  0.00000000000E+00 0. -1.
         11    1    4    4    0    0  0.37787732508E+01 -0.21547860669E+01  0.30298436238E+01  0.53011492076E+01  0.51100000000E-03 0. -1.
        -11    1    4    4    0    0  0.36581408015E+01  0.62191457717E+01  0.20501772978E+02  0.21734361361E+02  0.51100000000E-03 0.  1.
         12    1    4    4    0    0 -0.26172587521E+02  0.24077183853E+01  0.74982513754E+01  0.27331762092E+02  0.00000000000E+00 0. -1.
</event>
<event>
 8    1  0.1240174E-006  0.9118800E+02  0.7816164E-02  0.1184000E+00
        -11   -1    0    0    0    0  0.00000000000E+00  0.00000000000E+00  0.45593999997E+02  0.45594000000E+02  0.51100000000E-03 0. -1.
         11   -1    0    0    0    0 -0.00000000000E+00 -0.00000000000E+00 -0.45593999997E+02  0.45594000000E+02  0.51100000000E-03 0.  1.
         23    2    1    2    0    0 -0.21094237468E-14  0.00000000000E+00  0.00000000000E+00  0.91188000000E+02  0.91188000000E+02 0.  0.
    9900012    2    3    3    0    0  0.85879210376E+00  0.58441805645E+01  0.36344001858E+02  0.54367103197E+02  0.40000043358E+02 0.  0.
        -12    1    3    3    0    0 -0.85879210376E+00 -0.58441805645E+01 -0.36344001858E+02  0.36820896803E+02  0.00000000000E+00 0.  1.
         11    1    4    4    0    0  0.95819523038E+01 -0.66276060497E+01  0.12940735698E+02  0.17412685393E+02  0.51100000000E-03 0. -1.
        -11    1    4    4    0    0 -0.15928381293E+02  0.14022952273E+02  0.17733483672E+02  0.27655613616E+02  0.51100000000E-03 0.  1.
        -12    1    4    4    0    0  0.72052210926E+01 -0.15511656585E+01  0.56697824868E+01  0.92988041887E+01  0.00000000000E+00 0.  1.
</event>
<event>
 8    1  0.1240174E-006  0.9118800E+02  0.7816164E-02  0.1184000E+00
        -11   -1    0    0    0    0  0.00000000000E+00  0.00000000000E+00  0.45593999997E+02  0.45594000000E+02  0.51100000000E-03 0.  1.
         11   -1    0    0    0    0 -0.00000000000E+00 -0.00000000000E+00 -0.45593999997E+02  0.45594000000E+02  0.51100000000E-03 0. -1.
         23    2    1    2    0    0  0.00000000000E+00  0.17763568394E-14 -0.17763568394E-14  0.91188000000E+02  0.91188000000E+02 0.  0.
    9900012    2    3    3    0    0 -0.32433085331E+02 -0.10671891174E+02  0.13783541793E+02  0.54367077826E+02  0.39999985521E+02 0.  0.
         12    1    3    3    0    0  0.32433085331E+02  0.10671891174E+02 -0.13783541793E+02  0.36820922174E+02  0.00000000000E+00 0. -1.
         11    1    4    4    0    0 -0.82157942485E+01  0.84095019208E+01 -0.71296984743E+01  0.13749603568E+02  0.51100000000E-03 0. -1.
        -11    1    4    4    0    0 -0.13988652529E+02 -0.12242508745E+02  0.21345840912E+02  0.28305588573E+02  0.51100000000E-03 0.  1.
        -12    1    4    4    0    0 -0.10228638554E+02 -0.68388843498E+01 -0.43260064444E+00  0.12311885685E+02  0.00000000000E+00 0.  1.
</event>
<event>
 8    1  0.1240174E-006  0.9118800E+02  0.7816164E-02  0.1184000E+00
        -11   -1    0    0    0    0  0.00000000000E+00  0.00000000000E+00  0.45593999997E+02  0.45594000000E+02  0.51100000000E-03 0.  1.
         11   -1    0    0    0    0 -0.00000000000E+00 -0.00000000000E+00 -0.45593999997E+02  0.45594000000E+02  0.51100000000E-03 0. -1.
         23    2    1    2    0    0  0.00000000000E+00  0.17763568394E-14  0.88817841970E-15  0.91188000000E+02  0.91188000000E+02 0.  0.
    9900012    2    3    3    0    0 -0.35986327542E+02  0.45891466854E+01  0.63017162886E+01  0.54366977942E+02  0.39999757813E+02 0.  0.
        -12    1    3    3    0    0  0.35986327542E+02 -0.45891466854E+01 -0.63017162886E+01  0.36821022058E+02  0.00000000000E+00 0.  1.
         11    1    4    4    0    0 -0.21067742773E+02 -0.36142897621E+01 -0.34954511542E+01  0.21659433397E+02  0.51100000000E-03 0. -1.
        -11    1    4    4    0    0 -0.56687869663E+01 -0.70605957335E+01 -0.42425581387E+01  0.99993228572E+01  0.51100000000E-03 0.  1.
         12    1    4    4    0    0 -0.92497978026E+01  0.15264032181E+02  0.14039725582E+02  0.22708221688E+02  0.00000000000E+00 0. -1.
</event>
<event>
 8    1  0.1240174E-006  0.9118800E+02  0.7816164E-02  0.1184000E+00
        -11   -1    0    0    0    0  0.00000000000E+00  0.00000000000E+00  0.45593999997E+02  0.45594000000E+02  0.51100000000E-03 0. -1.
         11   -1    0    0    0    0 -0.00000000000E+00 -0.00000000000E+00 -0.45593999997E+02  0.45594000000E+02  0.51100000000E-03 0.  1.
         23    2    1    2    0    0  0.00000000000E+00  0.35527136788E-14  0.00000000000E+00  0.91188000000E+02  0.91188000000E+02 0.  0.
    9900012    2    3    3    0    0 -0.12341441927E+02 -0.16719833091E+02 -0.30396208936E+02  0.54366898372E+02  0.39999576417E+02 0.  0.
         12    1    3    3    0    0  0.12341441927E+02  0.16719833091E+02  0.30396208936E+02  0.36821101628E+02  0.00000000000E+00 0. -1.
         11    1    4    4    0    0 -0.92848292293E+01  0.18306097551E+01  0.52727627358E+01  0.10833338037E+02  0.51100000000E-03 0. -1.
        -11    1    4    4    0    0 -0.20051233363E+01  0.19533574870E+01 -0.54874682495E+00  0.28525862660E+01  0.51100000000E-03 0.  1.
         12    1    4    4    0    0 -0.10514893614E+01 -0.20503800333E+02 -0.35120224846E+02  0.40680974069E+02  0.00000000000E+00 0. -1.
</event>
<event>
 8    1  0.1240174E-006  0.9118800E+02  0.7816164E-02  0.1184000E+00
        -11   -1    0    0    0    0  0.00000000000E+00  0.00000000000E+00  0.45593999997E+02  0.45594000000E+02  0.51100000000E-03 0.  1.
         11   -1    0    0    0    0 -0.00000000000E+00 -0.00000000000E+00 -0.45593999997E+02  0.45594000000E+02  0.51100000000E-03 0. -1.
         23    2    1    2    0    0  0.17763568394E-14  0.00000000000E+00  0.00000000000E+00  0.91188000000E+02  0.91188000000E+02 0.  0.
    9900012    2    3    3    0    0 -0.11822781322E+02 -0.26194403898E+02  0.23018582210E+02  0.54367080936E+02  0.39999992611E+02 0.  0.
         12    1    3    3    0    0  0.11822781322E+02  0.26194403898E+02 -0.23018582210E+02  0.36820919064E+02  0.00000000000E+00 0. -1.
         11    1    4    4    0    0  0.70469292069E+01  0.76007039668E+00  0.84856926241E+01  0.11056396241E+02  0.51100000000E-03 0. -1.
        -11    1    4    4    0    0 -0.73058571497E+01  0.32851713047E+01  0.50326677142E+00  0.80262803899E+01  0.51100000000E-03 0.  1.
         12    1    4    4    0    0 -0.11563853379E+02 -0.30239645599E+02  0.14029622815E+02  0.35284404306E+02  0.00000000000E+00 0. -1.
</event>
<event>
 8    1  0.1240174E-006  0.9118800E+02  0.7816164E-02  0.1184000E+00
        -11   -1    0    0    0    0  0.00000000000E+00  0.00000000000E+00  0.45593999997E+02  0.45594000000E+02  0.51100000000E-03 0.  1.
         11   -1    0    0    0    0 -0.00000000000E+00 -0.00000000000E+00 -0.45593999997E+02  0.45594000000E+02  0.51100000000E-03 0. -1.
         23    2    1    2    0    0 -0.35527136788E-14 -0.12767564783E-14  0.00000000000E+00  0.91188000000E+02  0.91188000000E+02 0.  0.
    9900012    2    3    3    0    0 -0.27085402171E+02  0.44922801517E+00  0.24939268889E+02  0.54366974087E+02  0.39999749025E+02 0.  0.
         12    1    3    3    0    0  0.27085402171E+02 -0.44922801517E+00 -0.24939268889E+02  0.36821025913E+02  0.00000000000E+00 0. -1.
         11    1    4    4    0    0 -0.18294470604E+02 -0.20560646294E+01  0.54247236060E+01  0.19192255806E+02  0.51100000000E-03 0. -1.
        -11    1    4    4    0    0 -0.12491967312E+02  0.88824253059E+01  0.11333389910E+01  0.15369814058E+02  0.51100000000E-03 0.  1.
        -12    1    4    4    0    0  0.37010357451E+01 -0.63771326614E+01  0.18381206292E+02  0.19804904224E+02  0.00000000000E+00 0.  1.
</event>
<event>
 8    1  0.1240174E-006  0.9118800E+02  0.7816164E-02  0.1184000E+00
        -11   -1    0    0    0    0  0.00000000000E+00  0.00000000000E+00  0.45593999997E+02  0.45594000000E+02  0.51100000000E-03 0.  1.
         11   -1    0    0    0    0 -0.00000000000E+00 -0.00000000000E+00 -0.45593999997E+02  0.45594000000E+02  0.51100000000E-03 0. -1.
         23    2    1    2    0    0 -0.71054273576E-14  0.00000000000E+00  0.00000000000E+00  0.91188000000E+02  0.91188000000E+02 0.  0.
    9900012    2    3    3    0    0 -0.33764595202E+02  0.80984248419E+01 -0.12253475628E+02  0.54367081502E+02  0.39999993900E+02 0.  0.
        -12    1    3    3    0    0  0.33764595202E+02 -0.80984248419E+01  0.12253475628E+02  0.36820918498E+02  0.00000000000E+00 0.  1.
         11    1    4    4    0    0 -0.21192862721E+02  0.45080644776E+01  0.68905001960E+01  0.22736294088E+02  0.51100000000E-03 0. -1.
        -11    1    4    4    0    0 -0.11270678544E+02  0.12119648840E+02 -0.12427847833E+02  0.20696992170E+02  0.51100000000E-03 0.  1.
        -12    1    4    4    0    0 -0.13010539373E+01 -0.85292884758E+01 -0.67161279911E+01  0.10933795244E+02  0.00000000000E+00 0.  1.
</event>
<event>
 8    1  0.1240174E-006  0.9118800E+02  0.7816164E-02  0.1184000E+00
        -11   -1    0    0    0    0  0.00000000000E+00  0.00000000000E+00  0.45593999997E+02  0.45594000000E+02  0.51100000000E-03 0.  1.
         11   -1    0    0    0    0 -0.00000000000E+00 -0.00000000000E+00 -0.45593999997E+02  0.45594000000E+02  0.51100000000E-03 0. -1.
         23    2    1    2    0    0 -0.17763568394E-14  0.35527136788E-14  0.17763568394E-14  0.91188000000E+02  0.91188000000E+02 0.  0.
    9900012    2    3    3    0    0 -0.15115837655E+02  0.31578074615E+02  0.11406888355E+02  0.54367075970E+02  0.39999981290E+02 0.  0.
         12    1    3    3    0    0  0.15115837655E+02 -0.31578074615E+02 -0.11406888355E+02  0.36820924030E+02  0.00000000000E+00 0. -1.
         11    1    4    4    0    0  0.98426041077E+01  0.83403505375E+01  0.10870630061E+02  0.16870355684E+02  0.51100000000E-03 0. -1.
        -11    1    4    4    0    0 -0.65121337586E+00  0.70239656241E+01  0.39411331246E+01  0.80803899978E+01  0.51100000000E-03 0.  1.
        -12    1    4    4    0    0 -0.24307228387E+02  0.16213758454E+02 -0.34048748303E+01  0.29416330289E+02  0.00000000000E+00 0.  1.
</event>
<event>
 8    1  0.1240174E-006  0.9118800E+02  0.7816164E-02  0.1184000E+00
        -11   -1    0    0    0    0  0.00000000000E+00  0.00000000000E+00  0.45593999997E+02  0.45594000000E+02  0.51100000000E-03 0.  1.
         11   -1    0    0    0    0 -0.00000000000E+00 -0.00000000000E+00 -0.45593999997E+02  0.45594000000E+02  0.51100000000E-03 0. -1.
         23    2    1    2    0    0  0.00000000000E+00  0.00000000000E+00  0.71054273576E-14  0.91188000000E+02  0.91188000000E+02 0.  0.
    9900012    2    3    3    0    0 -0.92089677952E+01 -0.38774938574E+01 -0.35439183129E+02  0.54367139780E+02  0.40000126757E+02 0.  0.
        -12    1    3    3    0    0  0.92089677952E+01  0.38774938574E+01  0.35439183129E+02  0.36820860220E+02  0.00000000000E+00 0.  1.
         11    1    4    4    0    0 -0.12746798714E+02 -0.10975670605E+01 -0.30382367941E+02  0.32966252636E+02  0.51100000000E-03 0. -1.
        -11    1    4    4    0    0 -0.48285476723E+01  0.65795721810E+01 -0.10804292473E+01  0.82324340464E+01  0.51100000000E-03 0.  1.
        -12    1    4    4    0    0  0.83663785908E+01 -0.93594989779E+01 -0.39763859409E+01  0.13168453098E+02  0.00000000000E+00 0.  1.
</event>
<event>
 8    1  0.1240174E-006  0.9118800E+02  0.7816164E-02  0.1184000E+00
        -11   -1    0    0    0    0  0.00000000000E+00  0.00000000000E+00  0.45593999997E+02  0.45594000000E+02  0.51100000000E-03 0. -1.
         11   -1    0    0    0    0 -0.00000000000E+00 -0.00000000000E+00 -0.45593999997E+02  0.45594000000E+02  0.51100000000E-03 0.  1.
         23    2    1    2    0    0  0.35527136788E-14 -0.17763568394E-14  0.00000000000E+00  0.91188000000E+02  0.91188000000E+02 0.  0.
    9900012    2    3    3    0    0  0.28889299970E+02 -0.11331895069E+02 -0.19818555240E+02  0.54367100631E+02  0.40000037508E+02 0.  0.
         12    1    3    3    0    0 -0.28889299970E+02  0.11331895069E+02  0.19818555240E+02  0.36820899369E+02  0.00000000000E+00 0. -1.
         11    1    4    4    0    0  0.61682353924E+00 -0.55341813064E+01  0.14167138405E+01  0.57458430519E+01  0.51100000000E-03 0. -1.
        -11    1    4    4    0    0  0.16946135242E+02 -0.18751088899E+02 -0.18208956756E+02  0.31150296001E+02  0.51100000000E-03 0.  1.
         12    1    4    4    0    0  0.11326341188E+02  0.12953375137E+02 -0.30263123239E+01  0.17470961578E+02  0.00000000000E+00 0. -1.
</event>
<event>
 8    1  0.1240174E-006  0.9118800E+02  0.7816164E-02  0.1184000E+00
        -11   -1    0    0    0    0  0.00000000000E+00  0.00000000000E+00  0.45593999997E+02  0.45594000000E+02  0.51100000000E-03 0.  1.
         11   -1    0    0    0    0 -0.00000000000E+00 -0.00000000000E+00 -0.45593999997E+02  0.45594000000E+02  0.51100000000E-03 0. -1.
         23    2    1    2    0    0  0.00000000000E+00  0.00000000000E+00 -0.17763568394E-14  0.91188000000E+02  0.91188000000E+02 0.  0.
    9900012    2    3    3    0    0  0.27743919325E+02 -0.21764108419E+02 -0.10600828351E+02  0.54367095116E+02  0.40000024935E+02 0.  0.
        -12    1    3    3    0    0 -0.27743919325E+02  0.21764108419E+02  0.10600828351E+02  0.36820904884E+02  0.00000000000E+00 0.  1.
         11    1    4    4    0    0  0.20581179526E+02 -0.35035191215E+01 -0.15855756072E+02  0.26215731876E+02  0.51100000000E-03 0. -1.
        -11    1    4    4    0    0  0.38359745856E+01  0.32553335646E+01  0.38487384132E+01  0.63344048870E+01  0.51100000000E-03 0.  1.
         12    1    4    4    0    0  0.33267652134E+01 -0.21515922862E+02  0.14061893074E+01  0.21816958353E+02  0.00000000000E+00 0. -1.
</event>
<event>
 8    1  0.1240174E-006  0.9118800E+02  0.7816164E-02  0.1184000E+00
        -11   -1    0    0    0    0  0.00000000000E+00  0.00000000000E+00  0.45593999997E+02  0.45594000000E+02  0.51100000000E-03 0.  1.
         11   -1    0    0    0    0 -0.00000000000E+00 -0.00000000000E+00 -0.45593999997E+02  0.45594000000E+02  0.51100000000E-03 0. -1.
         23    2    1    2    0    0  0.00000000000E+00 -0.35527136788E-14  0.88817841970E-15  0.91188000000E+02  0.91188000000E+02 0.  0.
    9900012    2    3    3    0    0  0.29569675901E+02 -0.21254850913E+02 -0.54447276228E+01  0.54367089105E+02  0.40000011233E+02 0.  0.
         12    1    3    3    0    0 -0.29569675901E+02  0.21254850913E+02  0.54447276228E+01  0.36820910895E+02  0.00000000000E+00 0. -1.
         11    1    4    4    0    0  0.35363372168E-02 -0.33972895635E+00 -0.69895888609E+00  0.77715639033E+00  0.51100000000E-03 0. -1.
        -11    1    4    4    0    0  0.32236047043E+01 -0.24765789134E+02  0.45606342222E+01  0.25387700240E+02  0.51100000000E-03 0.  1.
        -12    1    4    4    0    0  0.26342534860E+02  0.38506671772E+01 -0.93064029589E+01  0.28202232475E+02  0.00000000000E+00 0.  1.
</event>
<event>
 8    1  0.1240174E-006  0.9118800E+02  0.7816164E-02  0.1184000E+00
        -11   -1    0    0    0    0  0.00000000000E+00  0.00000000000E+00  0.45593999997E+02  0.45594000000E+02  0.51100000000E-03 0.  1.
         11   -1    0    0    0    0 -0.00000000000E+00 -0.00000000000E+00 -0.45593999997E+02  0.45594000000E+02  0.51100000000E-03 0. -1.
         23    2    1    2    0    0  0.00000000000E+00  0.00000000000E+00  0.00000000000E+00  0.91188000000E+02  0.91188000000E+02 0.  0.
    9900012    2    3    3    0    0 -0.78497191985E+01  0.86223064779E+01  0.34925864569E+02  0.54367105437E+02  0.40000048465E+02 0.  0.
         12    1    3    3    0    0  0.78497191985E+01 -0.86223064779E+01 -0.34925864569E+02  0.36820894563E+02  0.00000000000E+00 0. -1.
         11    1    4    4    0    0 -0.28996905622E+01 -0.39729971321E+01  0.25781142249E+02  0.26246146526E+02  0.51100000000E-03 0. -1.
        -11    1    4    4    0    0  0.65641344822E+01  0.35654970372E+01  0.11077943622E+02  0.13361192528E+02  0.51100000000E-03 0.  1.
         12    1    4    4    0    0 -0.11514163118E+02  0.90298065728E+01 -0.19332213016E+01  0.14759766382E+02  0.00000000000E+00 0. -1.
</event>
<event>
 8    1  0.1240174E-006  0.9118800E+02  0.7816164E-02  0.1184000E+00
        -11   -1    0    0    0    0  0.00000000000E+00  0.00000000000E+00  0.45593999997E+02  0.45594000000E+02  0.51100000000E-03 0. -1.
         11   -1    0    0    0    0 -0.00000000000E+00 -0.00000000000E+00 -0.45593999997E+02  0.45594000000E+02  0.51100000000E-03 0.  1.
         23    2    1    2    0    0  0.00000000000E+00  0.00000000000E+00  0.35527136788E-14  0.91188000000E+02  0.91188000000E+02 0.  0.
    9900012    2    3    3    0    0  0.29309831075E+02 -0.78649329752E+01 -0.20853228974E+02  0.54367074876E+02  0.39999978794E+02 0.  0.
         12    1    3    3    0    0 -0.29309831075E+02  0.78649329752E+01  0.20853228974E+02  0.36820925124E+02  0.00000000000E+00 0. -1.
         11    1    4    4    0    0 -0.47214127771E+01 -0.19263171034E+01  0.59049944309E+00  0.51333347882E+01  0.51100000000E-03 0. -1.
        -11    1    4    4    0    0  0.19223166496E+02 -0.12154339392E+02 -0.23894670641E+02  0.32988079385E+02  0.51100000000E-03 0.  1.
         12    1    4    4    0    0  0.14808077356E+02  0.62157235203E+01  0.24509422244E+01  0.16245660702E+02  0.00000000000E+00 0. -1.
</event>
<event>
 8    1  0.1240174E-006  0.9118800E+02  0.7816164E-02  0.1184000E+00
        -11   -1    0    0    0    0  0.00000000000E+00  0.00000000000E+00  0.45593999997E+02  0.45594000000E+02  0.51100000000E-03 0.  1.
         11   -1    0    0    0    0 -0.00000000000E+00 -0.00000000000E+00 -0.45593999997E+02  0.45594000000E+02  0.51100000000E-03 0. -1.
         23    2    1    2    0    0 -0.44408920985E-15  0.35527136788E-14  0.71054273576E-14  0.91188000000E+02  0.91188000000E+02 0.  0.
    9900012    2    3    3    0    0  0.36601093895E+01  0.64261434427E+01  0.36070593715E+02  0.54367089484E+02  0.40000012096E+02 0.  0.
         12    1    3    3    0    0 -0.36601093895E+01 -0.64261434427E+01 -0.36070593715E+02  0.36820910516E+02  0.00000000000E+00 0. -1.
         11    1    4    4    0    0  0.69805822740E+01 -0.47275189656E+01  0.77918218892E+01  0.11480002311E+02  0.51100000000E-03 0. -1.
        -11    1    4    4    0    0  0.93145421254E+01 -0.56954298949E+01  0.71241605959E+01  0.13036574748E+02  0.51100000000E-03 0.  1.
         12    1    4    4    0    0 -0.12635015010E+02  0.16849092303E+02  0.21154611230E+02  0.29850512425E+02  0.00000000000E+00 0. -1.
</event>
<event>
 8    1  0.1240174E-006  0.9118800E+02  0.7816164E-02  0.1184000E+00
        -11   -1    0    0    0    0  0.00000000000E+00  0.00000000000E+00  0.45593999997E+02  0.45594000000E+02  0.51100000000E-03 0. -1.
         11   -1    0    0    0    0 -0.00000000000E+00 -0.00000000000E+00 -0.45593999997E+02  0.45594000000E+02  0.51100000000E-03 0.  1.
         23    2    1    2    0    0  0.71054273576E-14 -0.88817841970E-15 -0.17763568394E-14  0.91188000000E+02  0.91188000000E+02 0.  0.
    9900012    2    3    3    0    0  0.33225340101E+02 -0.64800342049E+01 -0.14486741595E+02  0.54367085425E+02  0.40000002843E+02 0.  0.
         12    1    3    3    0    0 -0.33225340101E+02  0.64800342049E+01  0.14486741595E+02  0.36820914575E+02  0.00000000000E+00 0. -1.
         11    1    4    4    0    0  0.22416909448E+01 -0.57087323628E+01 -0.16526192112E+01  0.63518465032E+01  0.51100000000E-03 0. -1.
        -11    1    4    4    0    0 -0.78077104381E+00  0.23352838731E+01 -0.15773185857E+02  0.15964227088E+02  0.51100000000E-03 0.  1.
         12    1    4    4    0    0  0.31764420200E+02 -0.31065857153E+01  0.29390634730E+01  0.32051011834E+02  0.00000000000E+00 0. -1.
</event>
<event>
 8    1  0.1240174E-006  0.9118800E+02  0.7816164E-02  0.1184000E+00
        -11   -1    0    0    0    0  0.00000000000E+00  0.00000000000E+00  0.45593999997E+02  0.45594000000E+02  0.51100000000E-03 0. -1.
         11   -1    0    0    0    0 -0.00000000000E+00 -0.00000000000E+00 -0.45593999997E+02  0.45594000000E+02  0.51100000000E-03 0.  1.
         23    2    1    2    0    0 -0.35527136788E-14 -0.71054273576E-14  0.44408920985E-15  0.91188000000E+02  0.91188000000E+02 0.  0.
    9900012    2    3    3    0    0 -0.14325011284E+02 -0.33825124369E+02 -0.25365832382E+01  0.54367092333E+02  0.40000018593E+02 0.  0.
        -12    1    3    3    0    0  0.14325011284E+02  0.33825124369E+02  0.25365832382E+01  0.36820907667E+02  0.00000000000E+00 0.  1.
         11    1    4    4    0    0 -0.15054253101E+02 -0.12648174104E+02 -0.15850817872E+02  0.25255796801E+02  0.51100000000E-03 0.  1.
        -11    1    4    4    0    0  0.11623000793E+01 -0.16024323872E+01  0.87978879118E+01  0.90178469159E+01  0.51100000000E-03 0. -1.
        -12    1    4    4    0    0 -0.43305826250E+00 -0.19574517877E+02  0.45163467215E+01  0.20093448616E+02  0.00000000000E+00 0.  1.
</event>
<event>
 8    1  0.1240174E-006  0.9118800E+02  0.7816164E-02  0.1184000E+00
        -11   -1    0    0    0    0  0.00000000000E+00  0.00000000000E+00  0.45593999997E+02  0.45594000000E+02  0.51100000000E-03 0.  1.
         11   -1    0    0    0    0 -0.00000000000E+00 -0.00000000000E+00 -0.45593999997E+02  0.45594000000E+02  0.51100000000E-03 0. -1.
         23    2    1    2    0    0  0.35527136788E-14  0.00000000000E+00  0.00000000000E+00  0.91188000000E+02  0.91188000000E+02 0.  0.
    9900012    2    3    3    0    0  0.19237285162E+02  0.24823997574E+02  0.19221748081E+02  0.54367087528E+02  0.40000007638E+02 0.  0.
         12    1    3    3    0    0 -0.19237285162E+02 -0.24823997574E+02 -0.19221748081E+02  0.36820912472E+02  0.00000000000E+00 0. -1.
         11    1    4    4    0    0  0.19738936035E+01  0.12275211754E+02  0.71811916270E+01  0.14357805996E+02  0.51100000000E-03 0. -1.
        -11    1    4    4    0    0  0.23175449983E+02  0.17734100087E+02  0.53162262325E+01  0.29662468701E+02  0.51100000000E-03 0.  1.
        -12    1    4    4    0    0 -0.59120584238E+01 -0.51853142672E+01  0.67243302210E+01  0.10346812832E+02  0.00000000000E+00 0.  1.
</event>
<event>
 8    1  0.1240174E-006  0.9118800E+02  0.7816164E-02  0.1184000E+00
        -11   -1    0    0    0    0  0.00000000000E+00  0.00000000000E+00  0.45593999997E+02  0.45594000000E+02  0.51100000000E-03 0.  1.
         11   -1    0    0    0    0 -0.00000000000E+00 -0.00000000000E+00 -0.45593999997E+02  0.45594000000E+02  0.51100000000E-03 0. -1.
         23    2    1    2    0    0  0.00000000000E+00  0.00000000000E+00  0.17763568394E-14  0.91188000000E+02  0.91188000000E+02 0.  0.
    9900012    2    3    3    0    0  0.25012131534E+02 -0.23824871428E+02  0.12749624526E+02  0.54367025706E+02  0.39999866701E+02 0.  0.
        -12    1    3    3    0    0 -0.25012131534E+02  0.23824871428E+02 -0.12749624526E+02  0.36820974294E+02  0.00000000000E+00 0.  1.
         11    1    4    4    0    0  0.61323076038E+01 -0.71229977554E+01 -0.12648768309E+02  0.15758605064E+02  0.51100000000E-03 0. -1.
        -11    1    4    4    0    0  0.43543305233E+01 -0.12721758476E+02  0.82076352494E+01  0.15753368201E+02  0.51100000000E-03 0.  1.
        -12    1    4    4    0    0  0.14525493407E+02 -0.39801151971E+01  0.17190757586E+02  0.22855052441E+02  0.00000000000E+00 0.  1.
</event>
<event>
 8    1  0.1240174E-006  0.9118800E+02  0.7816164E-02  0.1184000E+00
        -11   -1    0    0    0    0  0.00000000000E+00  0.00000000000E+00  0.45593999997E+02  0.45594000000E+02  0.51100000000E-03 0.  1.
         11   -1    0    0    0    0 -0.00000000000E+00 -0.00000000000E+00 -0.45593999997E+02  0.45594000000E+02  0.51100000000E-03 0. -1.
         23    2    1    2    0    0  0.17763568394E-14 -0.66613381478E-15  0.00000000000E+00  0.91188000000E+02  0.91188000000E+02 0.  0.
    9900012    2    3    3    0    0  0.53094489977E+01  0.18866219931E+01 -0.36387194318E+02  0.54367115959E+02  0.40000072451E+02 0.  0.
        -12    1    3    3    0    0 -0.53094489977E+01 -0.18866219931E+01  0.36387194318E+02  0.36820884041E+02  0.00000000000E+00 0.  1.
         11    1    4    4    0    0  0.50614502308E+01 -0.15040929322E+02 -0.15905427328E+02  0.22468432346E+02  0.51100000000E-03 0. -1.
        -11    1    4    4    0    0  0.63075521997E+00 -0.25179622120E+01  0.11237307746E+01  0.28285609351E+01  0.51100000000E-03 0.  1.
        -12    1    4    4    0    0 -0.38275645311E+00  0.19445513527E+02 -0.21605497765E+02  0.29070122678E+02  0.00000000000E+00 0.  1.
</event>
<event>
 8    1  0.1240174E-006  0.9118800E+02  0.7816164E-02  0.1184000E+00
        -11   -1    0    0    0    0  0.00000000000E+00  0.00000000000E+00  0.45593999997E+02  0.45594000000E+02  0.51100000000E-03 0. -1.
         11   -1    0    0    0    0 -0.00000000000E+00 -0.00000000000E+00 -0.45593999997E+02  0.45594000000E+02  0.51100000000E-03 0.  1.
         23    2    1    2    0    0  0.44408920985E-15 -0.88817841970E-15  0.71054273576E-14  0.91188000000E+02  0.91188000000E+02 0.  0.
    9900012    2    3    3    0    0 -0.31204694672E+01  0.75125977645E+01  0.35911036833E+02  0.54367095322E+02  0.40000025406E+02 0.  0.
        -12    1    3    3    0    0  0.31204694672E+01 -0.75125977645E+01 -0.35911036833E+02  0.36820904678E+02  0.00000000000E+00 0.  1.
         11    1    4    4    0    0 -0.10011076134E+02  0.76568577238E+00  0.15828642379E+02  0.18744434904E+02  0.51100000000E-03 0. -1.
        -11    1    4    4    0    0 -0.15545509063E+01  0.79428883608E+01 -0.47374375509E+01  0.93781351474E+01  0.51100000000E-03 0.  1.
         12    1    4    4    0    0  0.84451575729E+01 -0.11959763687E+01  0.24819832005E+02  0.26244525270E+02  0.00000000000E+00 0. -1.
</event>
<event>
 8    1  0.1240174E-006  0.9118800E+02  0.7816164E-02  0.1184000E+00
        -11   -1    0    0    0    0  0.00000000000E+00  0.00000000000E+00  0.45593999997E+02  0.45594000000E+02  0.51100000000E-03 0.  1.
         11   -1    0    0    0    0 -0.00000000000E+00 -0.00000000000E+00 -0.45593999997E+02  0.45594000000E+02  0.51100000000E-03 0. -1.
         23    2    1    2    0    0  0.00000000000E+00  0.13322676296E-14  0.00000000000E+00  0.91188000000E+02  0.91188000000E+02 0.  0.
    9900012    2    3    3    0    0 -0.22417463274E+02 -0.33602858706E+01  0.29016311422E+02  0.54367075116E+02  0.39999979342E+02 0.  0.
         12    1    3    3    0    0  0.22417463274E+02  0.33602858706E+01 -0.29016311422E+02  0.36820924884E+02  0.00000000000E+00 0. -1.
         11    1    4    4    0    0  0.22604411160E+01 -0.55285043456E+01  0.88748800871E+01  0.10697544165E+02  0.51100000000E-03 0. -1.
        -11    1    4    4    0    0 -0.86489109290E+01  0.13316719562E+02  0.18038558127E+02  0.24031817653E+02  0.51100000000E-03 0.  1.
         12    1    4    4    0    0 -0.16028993461E+02 -0.11148501087E+02  0.21028732076E+01  0.19637713298E+02  0.00000000000E+00 0. -1.
</event>
<event>
 8    1  0.1240174E-006  0.9118800E+02  0.7816164E-02  0.1184000E+00
        -11   -1    0    0    0    0  0.00000000000E+00  0.00000000000E+00  0.45593999997E+02  0.45594000000E+02  0.51100000000E-03 0.  1.
         11   -1    0    0    0    0 -0.00000000000E+00 -0.00000000000E+00 -0.45593999997E+02  0.45594000000E+02  0.51100000000E-03 0. -1.
         23    2    1    2    0    0  0.35527136788E-14 -0.88817841970E-15  0.35527136788E-14  0.91188000000E+02  0.91188000000E+02 0.  0.
    9900012    2    3    3    0    0  0.28747361517E+02 -0.62879871422E+01 -0.22132133033E+02  0.54367069958E+02  0.39999967584E+02 0.  0.
        -12    1    3    3    0    0 -0.28747361517E+02  0.62879871422E+01  0.22132133033E+02  0.36820930042E+02  0.00000000000E+00 0.  1.
         11    1    4    4    0    0  0.14475059123E+01 -0.82328327706E+01 -0.61532662293E+01  0.10379667352E+02  0.51100000000E-03 0. -1.
        -11    1    4    4    0    0 -0.22632488449E+01  0.97305177722E+01 -0.12988872241E+01  0.10074342645E+02  0.51100000000E-03 0.  1.
         12    1    4    4    0    0  0.29563104450E+02 -0.77856721438E+01 -0.14679979580E+02  0.33913059961E+02  0.00000000000E+00 0. -1.
</event>
<event>
 8    1  0.1240174E-006  0.9118800E+02  0.7816164E-02  0.1184000E+00
        -11   -1    0    0    0    0  0.00000000000E+00  0.00000000000E+00  0.45593999997E+02  0.45594000000E+02  0.51100000000E-03 0.  1.
         11   -1    0    0    0    0 -0.00000000000E+00 -0.00000000000E+00 -0.45593999997E+02  0.45594000000E+02  0.51100000000E-03 0. -1.
         23    2    1    2    0    0  0.35527136788E-14  0.35527136788E-14  0.00000000000E+00  0.91188000000E+02  0.91188000000E+02 0.  0.
    9900012    2    3    3    0    0  0.23644159533E+02  0.23629685376E+02 -0.15439261512E+02  0.54367094158E+02  0.40000022751E+02 0.  0.
        -12    1    3    3    0    0 -0.23644159533E+02 -0.23629685376E+02  0.15439261512E+02  0.36820905842E+02  0.00000000000E+00 0.  1.
         11    1    4    4    0    0  0.20938082396E+02  0.17980858915E+02 -0.21157720789E+02  0.34775907335E+02  0.51100000000E-03 0. -1.
        -11    1    4    4    0    0 -0.69337871391E+01  0.57429549397E+01  0.37441451602E+01  0.97507722141E+01  0.51100000000E-03 0.  1.
        -12    1    4    4    0    0  0.96398642765E+01 -0.94128478990E-01  0.19743141161E+01  0.98404146086E+01  0.00000000000E+00 0.  1.
</event>
<event>
 8    1  0.1240174E-006  0.9118800E+02  0.7816164E-02  0.1184000E+00
        -11   -1    0    0    0    0  0.00000000000E+00  0.00000000000E+00  0.45593999997E+02  0.45594000000E+02  0.51100000000E-03 0. -1.
         11   -1    0    0    0    0 -0.00000000000E+00 -0.00000000000E+00 -0.45593999997E+02  0.45594000000E+02  0.51100000000E-03 0.  1.
         23    2    1    2    0    0  0.00000000000E+00  0.00000000000E+00 -0.71054273576E-14  0.91188000000E+02  0.91188000000E+02 0.  0.
    9900012    2    3    3    0    0  0.29713913650E+02 -0.95256114639E+01  0.19548027782E+02  0.54367091153E+02  0.40000015902E+02 0.  0.
        -12    1    3    3    0    0 -0.29713913650E+02  0.95256114639E+01 -0.19548027782E+02  0.36820908847E+02  0.00000000000E+00 0.  1.
         11    1    4    4    0    0  0.23206050499E+02 -0.91153788652E+01  0.19953089795E+02  0.31933316524E+02  0.51100000000E-03 0. -1.
        -11    1    4    4    0    0 -0.43603403760E+01  0.19612305289E+01  0.74244605019E+01  0.88307195283E+01  0.51100000000E-03 0.  1.
        -12    1    4    4    0    0  0.10868203526E+02 -0.23714631276E+01 -0.78295225148E+01  0.13603055101E+02  0.00000000000E+00 0.  1.
</event>
<event>
 8    1  0.1240174E-006  0.9118800E+02  0.7816164E-02  0.1184000E+00
        -11   -1    0    0    0    0  0.00000000000E+00  0.00000000000E+00  0.45593999997E+02  0.45594000000E+02  0.51100000000E-03 0. -1.
         11   -1    0    0    0    0 -0.00000000000E+00 -0.00000000000E+00 -0.45593999997E+02  0.45594000000E+02  0.51100000000E-03 0.  1.
         23    2    1    2    0    0  0.35527136788E-14  0.00000000000E+00  0.00000000000E+00  0.91188000000E+02  0.91188000000E+02 0.  0.
    9900012    2    3    3    0    0  0.22759129778E+02  0.22637440360E+02  0.18037382836E+02  0.54367097324E+02  0.40000029969E+02 0.  0.
        -12    1    3    3    0    0 -0.22759129778E+02 -0.22637440360E+02 -0.18037382836E+02  0.36820902676E+02  0.00000000000E+00 0.  1.
         11    1    4    4    0    0  0.11931649408E+02  0.50099235333E+01  0.22198960946E+02  0.25695475453E+02  0.51100000000E-03 0. -1.
        -11    1    4    4    0    0  0.12261680723E+02  0.11064114765E+02 -0.10388715652E+02  0.19511249649E+02  0.51100000000E-03 0.  1.
        -12    1    4    4    0    0 -0.14342003538E+01  0.65634020620E+01  0.62271375418E+01  0.91603722221E+01  0.00000000000E+00 0.  1.
</event>
<event>
 8    1  0.1240174E-006  0.9118800E+02  0.7816164E-02  0.1184000E+00
        -11   -1    0    0    0    0  0.00000000000E+00  0.00000000000E+00  0.45593999997E+02  0.45594000000E+02  0.51100000000E-03 0. -1.
         11   -1    0    0    0    0 -0.00000000000E+00 -0.00000000000E+00 -0.45593999997E+02  0.45594000000E+02  0.51100000000E-03 0.  1.
         23    2    1    2    0    0 -0.35527136788E-14  0.00000000000E+00  0.00000000000E+00  0.91188000000E+02  0.91188000000E+02 0.  0.
    9900012    2    3    3    0    0  0.25414499805E+02 -0.24400306529E+02  0.10700780130E+02  0.54367103020E+02  0.40000042954E+02 0.  0.
        -12    1    3    3    0    0 -0.25414499805E+02  0.24400306529E+02 -0.10700780130E+02  0.36820896980E+02  0.00000000000E+00 0.  1.
         11    1    4    4    0    0  0.16658483216E+02 -0.56566498701E+01  0.13617654875E+02  0.22247320633E+02  0.51100000000E-03 0. -1.
        -11    1    4    4    0    0  0.16218818163E+01 -0.95203223882E+01  0.10552312182E+02  0.14304486417E+02  0.51100000000E-03 0.  1.
        -12    1    4    4    0    0  0.71341347723E+01 -0.92233342707E+01 -0.13469186927E+02  0.17815295970E+02  0.00000000000E+00 0.  1.
</event>
<event>
 8    1  0.1240174E-006  0.9118800E+02  0.7816164E-02  0.1184000E+00
        -11   -1    0    0    0    0  0.00000000000E+00  0.00000000000E+00  0.45593999997E+02  0.45594000000E+02  0.51100000000E-03 0.  1.
         11   -1    0    0    0    0 -0.00000000000E+00 -0.00000000000E+00 -0.45593999997E+02  0.45594000000E+02  0.51100000000E-03 0. -1.
         23    2    1    2    0    0  0.00000000000E+00  0.00000000000E+00 -0.17763568394E-14  0.91188000000E+02  0.91188000000E+02 0.  0.
    9900012    2    3    3    0    0  0.34298450995E+02  0.13030787886E+02  0.30973391462E+01  0.54367099911E+02  0.40000035868E+02 0.  0.
         12    1    3    3    0    0 -0.34298450995E+02 -0.13030787886E+02 -0.30973391462E+01  0.36820900089E+02  0.00000000000E+00 0. -1.
         11    1    4    4    0    0  0.18153799489E+02  0.33224758880E+01  0.17851560827E+02  0.25676399789E+02  0.51100000000E-03 0. -1.
        -11    1    4    4    0    0  0.33111693707E+01  0.17177218482E+01  0.34130591978E+01  0.50560245547E+01  0.51100000000E-03 0.  1.
         12    1    4    4    0    0  0.12833482134E+02  0.79905901499E+01 -0.18167280879E+02  0.23634675567E+02  0.00000000000E+00 0. -1.
</event>
<event>
 8    1  0.1240174E-006  0.9118800E+02  0.7816164E-02  0.1184000E+00
        -11   -1    0    0    0    0  0.00000000000E+00  0.00000000000E+00  0.45593999997E+02  0.45594000000E+02  0.51100000000E-03 0.  1.
         11   -1    0    0    0    0 -0.00000000000E+00 -0.00000000000E+00 -0.45593999997E+02  0.45594000000E+02  0.51100000000E-03 0. -1.
         23    2    1    2    0    0  0.22898349883E-15  0.00000000000E+00  0.00000000000E+00  0.91188000000E+02  0.91188000000E+02 0.  0.
    9900012    2    3    3    0    0 -0.59594164280E-01  0.35882433248E+02  0.82600682012E+01  0.54367064461E+02  0.39999955053E+02 0.  0.
        -12    1    3    3    0    0  0.59594164280E-01 -0.35882433248E+02 -0.82600682012E+01  0.36820935539E+02  0.00000000000E+00 0.  1.
         11    1    4    4    0    0  0.14079353524E+02  0.98934193559E+01 -0.47606981334E+01  0.17854192482E+02  0.51100000000E-03 0. -1.
        -11    1    4    4    0    0 -0.70935559815E+01  0.13541182927E+02  0.15753066925E+02  0.21950883566E+02  0.51100000000E-03 0.  1.
        -12    1    4    4    0    0 -0.70453917072E+01  0.12447830965E+02 -0.27323005901E+01  0.14561988413E+02  0.00000000000E+00 0.  1.
</event>
<event>
 8    1  0.1240174E-006  0.9118800E+02  0.7816164E-02  0.1184000E+00
        -11   -1    0    0    0    0  0.00000000000E+00  0.00000000000E+00  0.45593999997E+02  0.45594000000E+02  0.51100000000E-03 0.  1.
         11   -1    0    0    0    0 -0.00000000000E+00 -0.00000000000E+00 -0.45593999997E+02  0.45594000000E+02  0.51100000000E-03 0. -1.
         23    2    1    2    0    0 -0.35527136788E-14  0.00000000000E+00  0.00000000000E+00  0.91188000000E+02  0.91188000000E+02 0.  0.
    9900012    2    3    3    0    0 -0.13946844160E+02  0.27980581124E+02  0.19451236172E+02  0.54367109589E+02  0.40000057929E+02 0.  0.
         12    1    3    3    0    0  0.13946844160E+02 -0.27980581124E+02 -0.19451236172E+02  0.36820890411E+02  0.00000000000E+00 0. -1.
         11    1    4    4    0    0  0.68251085355E+01 -0.65072317980E+00 -0.25214462837E+01  0.73050146339E+01  0.51100000000E-03 0. -1.
        -11    1    4    4    0    0 -0.24081902850E+02  0.18713021856E+02  0.19861796308E+02  0.36395139575E+02  0.51100000000E-03 0.  1.
        -12    1    4    4    0    0  0.33099501540E+01  0.99182824485E+01  0.21108861472E+01  0.10666955380E+02  0.00000000000E+00 0.  1.
</event>
<event>
 8    1  0.1240174E-006  0.9118800E+02  0.7816164E-02  0.1184000E+00
        -11   -1    0    0    0    0  0.00000000000E+00  0.00000000000E+00  0.45593999997E+02  0.45594000000E+02  0.51100000000E-03 0.  1.
         11   -1    0    0    0    0 -0.00000000000E+00 -0.00000000000E+00 -0.45593999997E+02  0.45594000000E+02  0.51100000000E-03 0. -1.
         23    2    1    2    0    0  0.00000000000E+00  0.44408920985E-15  0.00000000000E+00  0.91188000000E+02  0.91188000000E+02 0.  0.
    9900012    2    3    3    0    0 -0.84597635779E+01 -0.26659033327E+01  0.35736630883E+02  0.54367062651E+02  0.39999950926E+02 0.  0.
         12    1    3    3    0    0  0.84597635779E+01  0.26659033327E+01 -0.35736630883E+02  0.36820937349E+02  0.00000000000E+00 0. -1.
         11    1    4    4    0    0  0.44758612662E+01 -0.44530363265E+01 -0.31491195637E+01  0.70554816198E+01  0.51100000000E-03 0. -1.
        -11    1    4    4    0    0 -0.65615044507E+01  0.12664001778E+02  0.18818462179E+02  0.23612810098E+02  0.51100000000E-03 0.  1.
         12    1    4    4    0    0 -0.63741203934E+01 -0.10876868784E+02  0.20067288268E+02  0.23698770933E+02  0.00000000000E+00 0. -1.
</event>
<event>
 8    1  0.1240174E-006  0.9118800E+02  0.7816164E-02  0.1184000E+00
        -11   -1    0    0    0    0  0.00000000000E+00  0.00000000000E+00  0.45593999997E+02  0.45594000000E+02  0.51100000000E-03 0. -1.
         11   -1    0    0    0    0 -0.00000000000E+00 -0.00000000000E+00 -0.45593999997E+02  0.45594000000E+02  0.51100000000E-03 0.  1.
         23    2    1    2    0    0  0.00000000000E+00  0.00000000000E+00  0.00000000000E+00  0.91188000000E+02  0.91188000000E+02 0.  0.
    9900012    2    3    3    0    0  0.82678268715E+01 -0.14555631784E+02 -0.32795679359E+02  0.54367082542E+02  0.39999996272E+02 0.  0.
         12    1    3    3    0    0 -0.82678268715E+01  0.14555631784E+02  0.32795679359E+02  0.36820917458E+02  0.00000000000E+00 0. -1.
         11    1    4    4    0    0  0.83586064918E+01 -0.19485418384E+02 -0.83846100098E+01  0.22800208713E+02  0.51100000000E-03 0. -1.
        -11    1    4    4    0    0  0.47056922401E+01 -0.62570875979E+01 -0.10120539555E+02  0.12795311869E+02  0.51100000000E-03 0.  1.
         12    1    4    4    0    0 -0.47964718603E+01  0.11186874198E+02 -0.14290529794E+02  0.18771561960E+02  0.00000000000E+00 0. -1.
</event>
<event>
 8    1  0.1240174E-006  0.9118800E+02  0.7816164E-02  0.1184000E+00
        -11   -1    0    0    0    0  0.00000000000E+00  0.00000000000E+00  0.45593999997E+02  0.45594000000E+02  0.51100000000E-03 0.  1.
         11   -1    0    0    0    0 -0.00000000000E+00 -0.00000000000E+00 -0.45593999997E+02  0.45594000000E+02  0.51100000000E-03 0. -1.
         23    2    1    2    0    0  0.00000000000E+00  0.00000000000E+00  0.00000000000E+00  0.91188000000E+02  0.91188000000E+02 0.  0.
    9900012    2    3    3    0    0  0.32599443343E+02  0.14682770098E+02  0.88017555715E+01  0.54367104503E+02  0.40000046336E+02 0.  0.
         12    1    3    3    0    0 -0.32599443343E+02 -0.14682770098E+02 -0.88017555715E+01  0.36820895497E+02  0.00000000000E+00 0. -1.
         11    1    4    4    0    0 -0.13233317478E+01 -0.18683181172E+00 -0.80383648120E+01  0.81487067779E+01  0.51100000000E-03 0. -1.
        -11    1    4    4    0    0  0.26011218207E+02  0.19488025607E+02  0.79653151973E+01  0.33463605023E+02  0.51100000000E-03 0.  1.
        -12    1    4    4    0    0  0.79115568837E+01 -0.46184236973E+01  0.88748051861E+01  0.12754792702E+02  0.00000000000E+00 0.  1.
</event>
<event>
 8    1  0.1240174E-006  0.9118800E+02  0.7816164E-02  0.1184000E+00
        -11   -1    0    0    0    0  0.00000000000E+00  0.00000000000E+00  0.45593999997E+02  0.45594000000E+02  0.51100000000E-03 0. -1.
         11   -1    0    0    0    0 -0.00000000000E+00 -0.00000000000E+00 -0.45593999997E+02  0.45594000000E+02  0.51100000000E-03 0.  1.
         23    2    1    2    0    0  0.17763568394E-14  0.00000000000E+00 -0.88817841970E-15  0.91188000000E+02  0.91188000000E+02 0.  0.
    9900012    2    3    3    0    0  0.10825732239E+02  0.34895163628E+02  0.45728737068E+01  0.54367080714E+02  0.39999992103E+02 0.  0.
         12    1    3    3    0    0 -0.10825732239E+02 -0.34895163628E+02 -0.45728737068E+01  0.36820919286E+02  0.00000000000E+00 0. -1.
         11    1    4    4    0    0 -0.11916911254E+02  0.86246226277E+01  0.36740860903E+01  0.15162315066E+02  0.51100000000E-03 0. -1.
        -11    1    4    4    0    0 -0.22929842434E+01  0.55184517834E+01  0.28650694314E+01  0.66271947258E+01  0.51100000000E-03 0.  1.
        -12    1    4    4    0    0  0.25035627736E+02  0.20752089217E+02 -0.19662818149E+01  0.32577570922E+02  0.00000000000E+00 0.  1.
</event>
<event>
 8    1  0.1240174E-006  0.9118800E+02  0.7816164E-02  0.1184000E+00
        -11   -1    0    0    0    0  0.00000000000E+00  0.00000000000E+00  0.45593999997E+02  0.45594000000E+02  0.51100000000E-03 0.  1.
         11   -1    0    0    0    0 -0.00000000000E+00 -0.00000000000E+00 -0.45593999997E+02  0.45594000000E+02  0.51100000000E-03 0. -1.
         23    2    1    2    0    0  0.00000000000E+00 -0.35527136788E-14  0.00000000000E+00  0.91188000000E+02  0.91188000000E+02 0.  0.
    9900012    2    3    3    0    0 -0.21511131098E+02 -0.17168128391E+02  0.24460371721E+02  0.54367038874E+02  0.39999896720E+02 0.  0.
         12    1    3    3    0    0  0.21511131098E+02  0.17168128391E+02 -0.24460371721E+02  0.36820961126E+02  0.00000000000E+00 0. -1.
         11    1    4    4    0    0  0.70547308805E+01  0.19924739802E+01  0.82201947499E+01  0.11014117411E+02  0.51100000000E-03 0. -1.
        -11    1    4    4    0    0 -0.29158919217E+02 -0.16762118050E+02  0.19793114329E+02  0.39025357737E+02  0.51100000000E-03 0.  1.
        -12    1    4    4    0    0  0.59305723785E+00 -0.23984843207E+01 -0.35529373584E+01  0.43275637253E+01  0.00000000000E+00 0.  1.
</event>
<event>
 8    1  0.1240174E-006  0.9118800E+02  0.7816164E-02  0.1184000E+00
        -11   -1    0    0    0    0  0.00000000000E+00  0.00000000000E+00  0.45593999997E+02  0.45594000000E+02  0.51100000000E-03 0. -1.
         11   -1    0    0    0    0 -0.00000000000E+00 -0.00000000000E+00 -0.45593999997E+02  0.45594000000E+02  0.51100000000E-03 0.  1.
         23    2    1    2    0    0  0.00000000000E+00  0.00000000000E+00 -0.17763568394E-14  0.91188000000E+02  0.91188000000E+02 0.  0.
    9900012    2    3    3    0    0 -0.35838623504E+02  0.25578745589E+01 -0.80520218220E+01  0.54367018042E+02  0.39999849230E+02 0.  0.
         12    1    3    3    0    0  0.35838623504E+02 -0.25578745589E+01  0.80520218220E+01  0.36820981958E+02  0.00000000000E+00 0. -1.
         11    1    4    4    0    0 -0.20837815787E+02  0.56397979756E+01  0.13173537174E+02  0.25289602012E+02  0.51100000000E-03 0. -1.
        -11    1    4    4    0    0 -0.11393898071E+02 -0.30795645527E+01 -0.56420818416E+01  0.13081961583E+02  0.51100000000E-03 0.  1.
         12    1    4    4    0    0 -0.36069096454E+01 -0.23588640401E-02 -0.15583477154E+02  0.15995454447E+02  0.00000000000E+00 0. -1.
</event>
<event>
 8    1  0.1240174E-006  0.9118800E+02  0.7816164E-02  0.1184000E+00
        -11   -1    0    0    0    0  0.00000000000E+00  0.00000000000E+00  0.45593999997E+02  0.45594000000E+02  0.51100000000E-03 0.  1.
         11   -1    0    0    0    0 -0.00000000000E+00 -0.00000000000E+00 -0.45593999997E+02  0.45594000000E+02  0.51100000000E-03 0. -1.
         23    2    1    2    0    0 -0.88817841970E-15  0.35527136788E-14  0.00000000000E+00  0.91188000000E+02  0.91188000000E+02 0.  0.
    9900012    2    3    3    0    0  0.76610839311E+01 -0.22108344356E+02  0.28430767597E+02  0.54367086876E+02  0.40000006151E+02 0.  0.
         12    1    3    3    0    0 -0.76610839311E+01  0.22108344356E+02 -0.28430767597E+02  0.36820913124E+02  0.00000000000E+00 0. -1.
         11    1    4    4    0    0  0.38700106957E+01  0.36423740776E+00 -0.33036378343E+01  0.51013404979E+01  0.51100000000E-03 0. -1.
        -11    1    4    4    0    0  0.14750711556E+01  0.69372912218E+01  0.11433776518E+02  0.13454853776E+02  0.51100000000E-03 0.  1.
        -12    1    4    4    0    0  0.23160020797E+01 -0.29409872986E+02  0.20300628913E+02  0.35810892602E+02  0.00000000000E+00 0.  1.
</event>
<event>
 8    1  0.1240174E-006  0.9118800E+02  0.7816164E-02  0.1184000E+00
        -11   -1    0    0    0    0  0.00000000000E+00  0.00000000000E+00  0.45593999997E+02  0.45594000000E+02  0.51100000000E-03 0.  1.
         11   -1    0    0    0    0 -0.00000000000E+00 -0.00000000000E+00 -0.45593999997E+02  0.45594000000E+02  0.51100000000E-03 0. -1.
         23    2    1    2    0    0 -0.35527136788E-14  0.17763568394E-14  0.35527136788E-14  0.91188000000E+02  0.91188000000E+02 0.  0.
    9900012    2    3    3    0    0 -0.28976302606E+02  0.14188075931E+02  0.17744039769E+02  0.54367101604E+02  0.40000039727E+02 0.  0.
         12    1    3    3    0    0  0.28976302606E+02 -0.14188075931E+02 -0.17744039769E+02  0.36820898396E+02  0.00000000000E+00 0. -1.
         11    1    4    4    0    0 -0.10747328627E+01  0.11602387081E+02  0.21568856220E+02  0.24515015717E+02  0.51100000000E-03 0. -1.
        -11    1    4    4    0    0 -0.17152993931E+02  0.57820190616E+01 -0.43832091832E+01  0.18624432024E+02  0.51100000000E-03 0.  1.
         12    1    4    4    0    0 -0.10748575813E+02 -0.31963302121E+01  0.55839273200E+00  0.11227653863E+02  0.00000000000E+00 0. -1.
</event>
<event>
 8    1  0.1240174E-006  0.9118800E+02  0.7816164E-02  0.1184000E+00
        -11   -1    0    0    0    0  0.00000000000E+00  0.00000000000E+00  0.45593999997E+02  0.45594000000E+02  0.51100000000E-03 0.  1.
         11   -1    0    0    0    0 -0.00000000000E+00 -0.00000000000E+00 -0.45593999997E+02  0.45594000000E+02  0.51100000000E-03 0. -1.
         23    2    1    2    0    0  0.17763568394E-14  0.44408920985E-15  0.71054273576E-14  0.91188000000E+02  0.91188000000E+02 0.  0.
    9900012    2    3    3    0    0  0.15616045545E+02  0.96524854210E+00  0.33331457298E+02  0.54367100651E+02  0.40000037555E+02 0.  0.
         12    1    3    3    0    0 -0.15616045545E+02 -0.96524854210E+00 -0.33331457298E+02  0.36820899349E+02  0.00000000000E+00 0. -1.
         11    1    4    4    0    0  0.15199513916E+02  0.59138991693E+01  0.22888354624E+02  0.28104736333E+02  0.51100000000E-03 0. -1.
        -11    1    4    4    0    0 -0.19420427386E+01 -0.76500113240E+01  0.17025786217E+02  0.18766235632E+02  0.51100000000E-03 0.  1.
         12    1    4    4    0    0  0.23585743678E+01  0.27013606968E+01 -0.65826835425E+01  0.74961286864E+01  0.00000000000E+00 0. -1.
</event>
<event>
 8    1  0.1240174E-006  0.9118800E+02  0.7816164E-02  0.1184000E+00
        -11   -1    0    0    0    0  0.00000000000E+00  0.00000000000E+00  0.45593999997E+02  0.45594000000E+02  0.51100000000E-03 0.  1.
         11   -1    0    0    0    0 -0.00000000000E+00 -0.00000000000E+00 -0.45593999997E+02  0.45594000000E+02  0.51100000000E-03 0. -1.
         23    2    1    2    0    0 -0.35527136788E-14  0.00000000000E+00  0.00000000000E+00  0.91188000000E+02  0.91188000000E+02 0.  0.
    9900012    2    3    3    0    0 -0.31274044546E+02 -0.17843221342E+02  0.77028993747E+01  0.54367067517E+02  0.39999962019E+02 0.  0.
         12    1    3    3    0    0  0.31274044546E+02  0.17843221342E+02 -0.77028993747E+01  0.36820932483E+02  0.00000000000E+00 0. -1.
         11    1    4    4    0    0 -0.21461041380E+02 -0.24047627853E+01 -0.31807667191E+01  0.21828340715E+02  0.51100000000E-03 0. -1.
        -11    1    4    4    0    0 -0.27914318565E+01  0.61175070529E+00  0.14391173724E+02  0.14672157720E+02  0.51100000000E-03 0.  1.
        -12    1    4    4    0    0 -0.70215713092E+01 -0.16050209262E+02 -0.35075076303E+01  0.17866569083E+02  0.00000000000E+00 0.  1.
</event>
<event>
 8    1  0.1240174E-006  0.9118800E+02  0.7816164E-02  0.1184000E+00
        -11   -1    0    0    0    0  0.00000000000E+00  0.00000000000E+00  0.45593999997E+02  0.45594000000E+02  0.51100000000E-03 0. -1.
         11   -1    0    0    0    0 -0.00000000000E+00 -0.00000000000E+00 -0.45593999997E+02  0.45594000000E+02  0.51100000000E-03 0.  1.
         23    2    1    2    0    0  0.22204460493E-15  0.35527136788E-14 -0.35527136788E-14  0.91188000000E+02  0.91188000000E+02 0.  0.
    9900012    2    3    3    0    0 -0.44751105574E+00  0.27343455600E+02 -0.24655955965E+02  0.54367068523E+02  0.39999964313E+02 0.  0.
        -12    1    3    3    0    0  0.44751105574E+00 -0.27343455600E+02  0.24655955965E+02  0.36820931477E+02  0.00000000000E+00 0.  1.
         11    1    4    4    0    0 -0.15920443314E+02  0.23897812660E+02 -0.16652355513E+02  0.33194380693E+02  0.51100000000E-03 0. -1.
        -11    1    4    4    0    0 -0.71050825039E+00  0.11910861814E+01 -0.41626087749E+01  0.43875756791E+01  0.51100000000E-03 0.  1.
        -12    1    4    4    0    0  0.16183440508E+02  0.22545567586E+01 -0.38409916774E+01  0.16785112151E+02  0.00000000000E+00 0.  1.
</event>
<event>
 8    1  0.1240174E-006  0.9118800E+02  0.7816164E-02  0.1184000E+00
        -11   -1    0    0    0    0  0.00000000000E+00  0.00000000000E+00  0.45593999997E+02  0.45594000000E+02  0.51100000000E-03 0. -1.
         11   -1    0    0    0    0 -0.00000000000E+00 -0.00000000000E+00 -0.45593999997E+02  0.45594000000E+02  0.51100000000E-03 0.  1.
         23    2    1    2    0    0 -0.35527136788E-14  0.00000000000E+00  0.17763568394E-14  0.91188000000E+02  0.91188000000E+02 0.  0.
    9900012    2    3    3    0    0  0.20765440658E+02  0.30390122230E+02 -0.10090805069E+01  0.54367064402E+02  0.39999954916E+02 0.  0.
        -12    1    3    3    0    0 -0.20765440658E+02 -0.30390122230E+02  0.10090805069E+01  0.36820935598E+02  0.00000000000E+00 0.  1.
         11    1    4    4    0    0  0.15092429494E+02  0.29117811134E+02 -0.10042125407E+02  0.34299746883E+02  0.51100000000E-03 0.  1.
        -11    1    4    4    0    0 -0.34912597783E+01  0.43365301761E+01  0.87857790068E+01  0.10401168291E+02  0.51100000000E-03 0. -1.
        -12    1    4    4    0    0  0.91642709416E+01 -0.30642190798E+01  0.24726589372E+00  0.96661492272E+01  0.00000000000E+00 0.  1.
</event>
<event>
 8    1  0.1240174E-006  0.9118800E+02  0.7816164E-02  0.1184000E+00
        -11   -1    0    0    0    0  0.00000000000E+00  0.00000000000E+00  0.45593999997E+02  0.45594000000E+02  0.51100000000E-03 0. -1.
         11   -1    0    0    0    0 -0.00000000000E+00 -0.00000000000E+00 -0.45593999997E+02  0.45594000000E+02  0.51100000000E-03 0.  1.
         23    2    1    2    0    0  0.00000000000E+00  0.35527136788E-14  0.00000000000E+00  0.91188000000E+02  0.91188000000E+02 0.  0.
    9900012    2    3    3    0    0 -0.25451831592E+02 -0.20762751540E+02 -0.16640034398E+02  0.54367104742E+02  0.40000046879E+02 0.  0.
         12    1    3    3    0    0  0.25451831592E+02  0.20762751540E+02  0.16640034398E+02  0.36820895258E+02  0.00000000000E+00 0. -1.
         11    1    4    4    0    0 -0.84607856091E+01 -0.25681353618E+01  0.48889403392E+01  0.10103561266E+02  0.51100000000E-03 0. -1.
        -11    1    4    4    0    0 -0.15903442433E+02 -0.21970725335E+01 -0.23123089802E+02  0.28150024711E+02  0.51100000000E-03 0.  1.
        -12    1    4    4    0    0 -0.10876035493E+01 -0.15997543645E+02  0.15941150653E+01  0.16113518765E+02  0.00000000000E+00 0.  1.
</event>
<event>
 8    1  0.1240174E-006  0.9118800E+02  0.7816164E-02  0.1184000E+00
        -11   -1    0    0    0    0  0.00000000000E+00  0.00000000000E+00  0.45593999997E+02  0.45594000000E+02  0.51100000000E-03 0. -1.
         11   -1    0    0    0    0 -0.00000000000E+00 -0.00000000000E+00 -0.45593999997E+02  0.45594000000E+02  0.51100000000E-03 0.  1.
         23    2    1    2    0    0  0.35527136788E-14  0.88817841970E-15 -0.35527136788E-14  0.91188000000E+02  0.91188000000E+02 0.  0.
    9900012    2    3    3    0    0  0.31928941865E+02 -0.43980817722E+01 -0.17803834059E+02  0.54367123326E+02  0.40000089245E+02 0.  0.
        -12    1    3    3    0    0 -0.31928941865E+02  0.43980817722E+01  0.17803834059E+02  0.36820876674E+02  0.00000000000E+00 0.  1.
         11    1    4    4    0    0 -0.81714154466E+00  0.36707903126E+01  0.29469890283E+01  0.47777783976E+01  0.51100000000E-03 0. -1.
        -11    1    4    4    0    0 -0.26380340909E+01 -0.79151943548E+00 -0.12145431583E+02  0.12453804057E+02  0.51100000000E-03 0.  1.
         12    1    4    4    0    0  0.35384117500E+02 -0.72773526493E+01 -0.86053915041E+01  0.37135540871E+02  0.00000000000E+00 0. -1.
</event>
<event>
 8    1  0.1240174E-006  0.9118800E+02  0.7816164E-02  0.1184000E+00
        -11   -1    0    0    0    0  0.00000000000E+00  0.00000000000E+00  0.45593999997E+02  0.45594000000E+02  0.51100000000E-03 0. -1.
         11   -1    0    0    0    0 -0.00000000000E+00 -0.00000000000E+00 -0.45593999997E+02  0.45594000000E+02  0.51100000000E-03 0.  1.
         23    2    1    2    0    0  0.35527136788E-14  0.00000000000E+00  0.00000000000E+00  0.91188000000E+02  0.91188000000E+02 0.  0.
    9900012    2    3    3    0    0 -0.23830766288E+02  0.18595431038E+02  0.21025815020E+02  0.54367076945E+02  0.39999983512E+02 0.  0.
        -12    1    3    3    0    0  0.23830766288E+02 -0.18595431038E+02 -0.21025815020E+02  0.36820923055E+02  0.00000000000E+00 0.  1.
         11    1    4    4    0    0  0.94130406229E+00 -0.79540521955E+01  0.54558094616E+01  0.96911741708E+01  0.51100000000E-03 0. -1.
        -11    1    4    4    0    0 -0.55580805587E+01  0.94334359623E+01 -0.47038268170E+01  0.11916709300E+02  0.51100000000E-03 0.  1.
         12    1    4    4    0    0 -0.19213989792E+02  0.17116047271E+02  0.20273832375E+02  0.32759193474E+02  0.00000000000E+00 0. -1.
</event>
<event>
 8    1  0.1240174E-006  0.9118800E+02  0.7816164E-02  0.1184000E+00
        -11   -1    0    0    0    0  0.00000000000E+00  0.00000000000E+00  0.45593999997E+02  0.45594000000E+02  0.51100000000E-03 0.  1.
         11   -1    0    0    0    0 -0.00000000000E+00 -0.00000000000E+00 -0.45593999997E+02  0.45594000000E+02  0.51100000000E-03 0. -1.
         23    2    1    2    0    0 -0.17763568394E-14  0.00000000000E+00 -0.35527136788E-14  0.91188000000E+02  0.91188000000E+02 0.  0.
    9900012    2    3    3    0    0 -0.15434632594E+02  0.25093426198E+02  0.22087806852E+02  0.54367093803E+02  0.40000021942E+02 0.  0.
         12    1    3    3    0    0  0.15434632594E+02 -0.25093426198E+02 -0.22087806852E+02  0.36820906197E+02  0.00000000000E+00 0. -1.
         11    1    4    4    0    0 -0.21882328917E+02  0.63809625311E+01  0.95105992832E+01  0.24698269183E+02  0.51100000000E-03 0. -1.
        -11    1    4    4    0    0  0.26035364970E+01 -0.32846442209E+01  0.33992357914E+00  0.42050966992E+01  0.51100000000E-03 0.  1.
         12    1    4    4    0    0  0.38441598256E+01  0.21997107887E+02  0.12237283990E+02  0.25463727921E+02  0.00000000000E+00 0. -1.
</event>
<event>
 8    1  0.1240174E-006  0.9118800E+02  0.7816164E-02  0.1184000E+00
        -11   -1    0    0    0    0  0.00000000000E+00  0.00000000000E+00  0.45593999997E+02  0.45594000000E+02  0.51100000000E-03 0. -1.
         11   -1    0    0    0    0 -0.00000000000E+00 -0.00000000000E+00 -0.45593999997E+02  0.45594000000E+02  0.51100000000E-03 0.  1.
         23    2    1    2    0    0 -0.88817841970E-15  0.55511151231E-15  0.00000000000E+00  0.91188000000E+02  0.91188000000E+02 0.  0.
    9900012    2    3    3    0    0 -0.59261422916E+01  0.92658681372E+00  0.36329079415E+02  0.54367085608E+02  0.40000003259E+02 0.  0.
        -12    1    3    3    0    0  0.59261422916E+01 -0.92658681372E+00 -0.36329079415E+02  0.36820914392E+02  0.00000000000E+00 0.  1.
         11    1    4    4    0    0 -0.12394847526E+02 -0.27147101368E+00 -0.10173390160E+01  0.12439490369E+02  0.51100000000E-03 0. -1.
        -11    1    4    4    0    0  0.10730786616E+01 -0.69137282487E+01  0.63937958580E+01  0.94779619035E+01  0.51100000000E-03 0.  1.
         12    1    4    4    0    0  0.53956265728E+01  0.81117860761E+01  0.30952622573E+02  0.32449633335E+02  0.00000000000E+00 0. -1.
</event>
<event>
 8    1  0.1240174E-006  0.9118800E+02  0.7816164E-02  0.1184000E+00
        -11   -1    0    0    0    0  0.00000000000E+00  0.00000000000E+00  0.45593999997E+02  0.45594000000E+02  0.51100000000E-03 0.  1.
         11   -1    0    0    0    0 -0.00000000000E+00 -0.00000000000E+00 -0.45593999997E+02  0.45594000000E+02  0.51100000000E-03 0. -1.
         23    2    1    2    0    0 -0.11102230246E-15  0.00000000000E+00  0.00000000000E+00  0.91188000000E+02  0.91188000000E+02 0.  0.
    9900012    2    3    3    0    0  0.72757161974E+00 -0.10397713033E+02 -0.35314849364E+02  0.54367076840E+02  0.39999983271E+02 0.  0.
        -12    1    3    3    0    0 -0.72757161974E+00  0.10397713033E+02  0.35314849364E+02  0.36820923160E+02  0.00000000000E+00 0.  1.
         11    1    4    4    0    0 -0.20053599484E+01 -0.97013956795E+01 -0.32075081214E+02  0.33570066753E+02  0.51100000000E-03 0. -1.
        -11    1    4    4    0    0 -0.51746482308E+01 -0.53519737388E+01  0.45801692858E+01  0.87406268746E+01  0.51100000000E-03 0.  1.
         12    1    4    4    0    0  0.79075797989E+01  0.46556563854E+01 -0.78199374364E+01  0.12056383212E+02  0.00000000000E+00 0. -1.
</event>
<event>
 8    1  0.1240174E-006  0.9118800E+02  0.7816164E-02  0.1184000E+00
        -11   -1    0    0    0    0  0.00000000000E+00  0.00000000000E+00  0.45593999997E+02  0.45594000000E+02  0.51100000000E-03 0.  1.
         11   -1    0    0    0    0 -0.00000000000E+00 -0.00000000000E+00 -0.45593999997E+02  0.45594000000E+02  0.51100000000E-03 0. -1.
         23    2    1    2    0    0  0.35527136788E-14 -0.71054273576E-14  0.00000000000E+00  0.91188000000E+02  0.91188000000E+02 0.  0.
    9900012    2    3    3    0    0 -0.16012606745E+02 -0.25178968317E+02  0.21573039064E+02  0.54367081561E+02  0.39999994034E+02 0.  0.
         12    1    3    3    0    0  0.16012606745E+02  0.25178968317E+02 -0.21573039064E+02  0.36820918439E+02  0.00000000000E+00 0. -1.
         11    1    4    4    0    0  0.53431571188E+01 -0.54897204227E+01  0.22775861488E+02  0.24029694652E+02  0.51100000000E-03 0.  1.
        -11    1    4    4    0    0 -0.30843301158E+00 -0.19057412568E+01 -0.19889515660E+01  0.27718061356E+01  0.51100000000E-03 0. -1.
        -12    1    4    4    0    0 -0.21047330852E+02 -0.17783506637E+02  0.78612914229E+00  0.27565580773E+02  0.00000000000E+00 0.  1.
</event>
<event>
 8    1  0.1240174E-006  0.9118800E+02  0.7816164E-02  0.1184000E+00
        -11   -1    0    0    0    0  0.00000000000E+00  0.00000000000E+00  0.45593999997E+02  0.45594000000E+02  0.51100000000E-03 0. -1.
         11   -1    0    0    0    0 -0.00000000000E+00 -0.00000000000E+00 -0.45593999997E+02  0.45594000000E+02  0.51100000000E-03 0.  1.
         23    2    1    2    0    0  0.00000000000E+00  0.00000000000E+00  0.35527136788E-14  0.91188000000E+02  0.91188000000E+02 0.  0.
    9900012    2    3    3    0    0  0.26428107396E+02  0.24995263751E+02 -0.57068737170E+01  0.54367129856E+02  0.40000104133E+02 0.  0.
         12    1    3    3    0    0 -0.26428107396E+02 -0.24995263751E+02  0.57068737170E+01  0.36820870144E+02  0.00000000000E+00 0. -1.
         11    1    4    4    0    0 -0.45282833318E+01  0.29761359445E+00 -0.16791213956E+01  0.48387366850E+01  0.51100000000E-03 0. -1.
        -11    1    4    4    0    0  0.16346213609E+02  0.80406245514E+01  0.12321720658E+02  0.21992615642E+02  0.51100000000E-03 0.  1.
        -12    1    4    4    0    0  0.14610177119E+02  0.16657025605E+02 -0.16349472980E+02  0.27535777530E+02  0.00000000000E+00 0.  1.
</event>
<event>
 8    1  0.1240174E-006  0.9118800E+02  0.7816164E-02  0.1184000E+00
        -11   -1    0    0    0    0  0.00000000000E+00  0.00000000000E+00  0.45593999997E+02  0.45594000000E+02  0.51100000000E-03 0.  1.
         11   -1    0    0    0    0 -0.00000000000E+00 -0.00000000000E+00 -0.45593999997E+02  0.45594000000E+02  0.51100000000E-03 0. -1.
         23    2    1    2    0    0  0.44408920985E-15  0.35527136788E-14  0.00000000000E+00  0.91188000000E+02  0.91188000000E+02 0.  0.
    9900012    2    3    3    0    0 -0.31592640038E+01  0.26067389612E+02 -0.25812580227E+02  0.54367094956E+02  0.40000024572E+02 0.  0.
        -12    1    3    3    0    0  0.31592640038E+01 -0.26067389612E+02  0.25812580227E+02  0.36820905044E+02  0.00000000000E+00 0.  1.
         11    1    4    4    0    0  0.13232170009E+02  0.18346667562E+01 -0.34327058816E+01  0.13792744295E+02  0.51100000000E-03 0. -1.
        -11    1    4    4    0    0 -0.42548747765E+01  0.18391142554E+02 -0.70067893019E+01  0.20135371374E+02  0.51100000000E-03 0.  1.
        -12    1    4    4    0    0 -0.12136559237E+02  0.58415803026E+01 -0.15373085044E+02  0.20438979287E+02  0.00000000000E+00 0.  1.
</event>
<event>
 8    1  0.1240174E-006  0.9118800E+02  0.7816164E-02  0.1184000E+00
        -11   -1    0    0    0    0  0.00000000000E+00  0.00000000000E+00  0.45593999997E+02  0.45594000000E+02  0.51100000000E-03 0. -1.
         11   -1    0    0    0    0 -0.00000000000E+00 -0.00000000000E+00 -0.45593999997E+02  0.45594000000E+02  0.51100000000E-03 0.  1.
         23    2    1    2    0    0  0.35527136788E-14 -0.66613381478E-15  0.35527136788E-14  0.91188000000E+02  0.91188000000E+02 0.  0.
    9900012    2    3    3    0    0 -0.27461914542E+02  0.61358135727E+00  0.24520384267E+02  0.54367048397E+02  0.39999918430E+02 0.  0.
        -12    1    3    3    0    0  0.27461914542E+02 -0.61358135727E+00 -0.24520384267E+02  0.36820951603E+02  0.00000000000E+00 0.  1.
         11    1    4    4    0    0 -0.21266090424E+02  0.51975253650E+01  0.67032093511E+01  0.22895280904E+02  0.51100000000E-03 0. -1.
        -11    1    4    4    0    0 -0.13670230827E+02 -0.98056605327E+01  0.11391829080E+02  0.20317479159E+02  0.51100000000E-03 0.  1.
        -12    1    4    4    0    0  0.74744067083E+01  0.52217165249E+01  0.64253458356E+01  0.11154288333E+02  0.00000000000E+00 0.  1.
</event>
<event>
 8    1  0.1240174E-006  0.9118800E+02  0.7816164E-02  0.1184000E+00
        -11   -1    0    0    0    0  0.00000000000E+00  0.00000000000E+00  0.45593999997E+02  0.45594000000E+02  0.51100000000E-03 0. -1.
         11   -1    0    0    0    0 -0.00000000000E+00 -0.00000000000E+00 -0.45593999997E+02  0.45594000000E+02  0.51100000000E-03 0.  1.
         23    2    1    2    0    0  0.35527136788E-14  0.00000000000E+00  0.00000000000E+00  0.91188000000E+02  0.91188000000E+02 0.  0.
    9900012    2    3    3    0    0 -0.24032692318E+02  0.59590260977E+01  0.27252533000E+02  0.54367070531E+02  0.39999968889E+02 0.  0.
        -12    1    3    3    0    0  0.24032692318E+02 -0.59590260977E+01 -0.27252533000E+02  0.36820929469E+02  0.00000000000E+00 0.  1.
         11    1    4    4    0    0 -0.30283990760E+02  0.61531488445E+00  0.32265953681E+02  0.44255965428E+02  0.51100000000E-03 0. -1.
        -11    1    4    4    0    0  0.19254772381E+01  0.35507901035E+01 -0.29065378576E+01  0.49762973717E+01  0.51100000000E-03 0.  1.
         12    1    4    4    0    0  0.43258212044E+01  0.17929211098E+01 -0.21068828236E+01  0.51348077307E+01  0.00000000000E+00 0. -1.
</event>
<event>
 8    1  0.1240174E-006  0.9118800E+02  0.7816164E-02  0.1184000E+00
        -11   -1    0    0    0    0  0.00000000000E+00  0.00000000000E+00  0.45593999997E+02  0.45594000000E+02  0.51100000000E-03 0. -1.
         11   -1    0    0    0    0 -0.00000000000E+00 -0.00000000000E+00 -0.45593999997E+02  0.45594000000E+02  0.51100000000E-03 0.  1.
         23    2    1    2    0    0  0.35527136788E-14 -0.17763568394E-14 -0.35527136788E-14  0.91188000000E+02  0.91188000000E+02 0.  0.
    9900012    2    3    3    0    0  0.28297596863E+02 -0.12099455654E+02  0.20214567027E+02  0.54367088341E+02  0.40000009491E+02 0.  0.
        -12    1    3    3    0    0 -0.28297596863E+02  0.12099455654E+02 -0.20214567027E+02  0.36820911659E+02  0.00000000000E+00 0.  1.
         11    1    4    4    0    0  0.25163601839E+02 -0.93589037706E+01  0.10050510930E+02  0.28667206134E+02  0.51100000000E-03 0. -1.
        -11    1    4    4    0    0  0.24012868041E+01  0.86582556810E+01 -0.17947487196E+01  0.91625702170E+01  0.51100000000E-03 0.  1.
         12    1    4    4    0    0  0.73270821940E+00 -0.11398807564E+02  0.11958804817E+02  0.16537311990E+02  0.00000000000E+00 0. -1.
</event>
<event>
 8    1  0.1240174E-006  0.9118800E+02  0.7816164E-02  0.1184000E+00
        -11   -1    0    0    0    0  0.00000000000E+00  0.00000000000E+00  0.45593999997E+02  0.45594000000E+02  0.51100000000E-03 0. -1.
         11   -1    0    0    0    0 -0.00000000000E+00 -0.00000000000E+00 -0.45593999997E+02  0.45594000000E+02  0.51100000000E-03 0.  1.
         23    2    1    2    0    0  0.00000000000E+00  0.00000000000E+00  0.00000000000E+00  0.91188000000E+02  0.91188000000E+02 0.  0.
    9900012    2    3    3    0    0  0.33208340213E+02  0.32570392158E+01  0.15568424121E+02  0.54367109275E+02  0.40000057214E+02 0.  0.
        -12    1    3    3    0    0 -0.33208340213E+02 -0.32570392158E+01 -0.15568424121E+02  0.36820890725E+02  0.00000000000E+00 0.  1.
         11    1    4    4    0    0  0.29315235558E+02  0.71950156360E+01  0.13262146229E+02  0.32970226094E+02  0.51100000000E-03 0. -1.
        -11    1    4    4    0    0  0.18835053757E+01  0.31475773034E+01  0.10056945311E+02  0.10704998114E+02  0.51100000000E-03 0.  1.
        -12    1    4    4    0    0  0.20095992793E+01 -0.70855537237E+01 -0.77506674190E+01  0.10691885066E+02  0.00000000000E+00 0.  1.
</event>
<event>
 8    1  0.1240174E-006  0.9118800E+02  0.7816164E-02  0.1184000E+00
        -11   -1    0    0    0    0  0.00000000000E+00  0.00000000000E+00  0.45593999997E+02  0.45594000000E+02  0.51100000000E-03 0.  1.
         11   -1    0    0    0    0 -0.00000000000E+00 -0.00000000000E+00 -0.45593999997E+02  0.45594000000E+02  0.51100000000E-03 0. -1.
         23    2    1    2    0    0  0.88817841970E-15 -0.71054273576E-14  0.17763568394E-14  0.91188000000E+02  0.91188000000E+02 0.  0.
    9900012    2    3    3    0    0  0.16204772624E+01  0.35785771669E+02 -0.85166556957E+01  0.54367070833E+02  0.39999969578E+02 0.  0.
        -12    1    3    3    0    0 -0.16204772624E+01 -0.35785771669E+02  0.85166556957E+01  0.36820929167E+02  0.00000000000E+00 0.  1.
         11    1    4    4    0    0  0.13481921460E+02  0.26799361505E+02 -0.13629646042E+01  0.30030412187E+02  0.51100000000E-03 0. -1.
        -11    1    4    4    0    0  0.11073404380E+01  0.45020750279E+01  0.44048547308E+01  0.63951253203E+01  0.51100000000E-03 0.  1.
        -12    1    4    4    0    0 -0.12968784636E+02  0.44843351355E+01 -0.11558545822E+02  0.17941533325E+02  0.00000000000E+00 0.  1.
</event>
<event>
 8    1  0.1240174E-006  0.9118800E+02  0.7816164E-02  0.1184000E+00
        -11   -1    0    0    0    0  0.00000000000E+00  0.00000000000E+00  0.45593999997E+02  0.45594000000E+02  0.51100000000E-03 0.  1.
         11   -1    0    0    0    0 -0.00000000000E+00 -0.00000000000E+00 -0.45593999997E+02  0.45594000000E+02  0.51100000000E-03 0. -1.
         23    2    1    2    0    0  0.00000000000E+00  0.88817841970E-15  0.00000000000E+00  0.91188000000E+02  0.91188000000E+02 0.  0.
    9900012    2    3    3    0    0 -0.34496890198E+02  0.42318279216E+01 -0.12158815949E+02  0.54367073801E+02  0.39999976344E+02 0.  0.
        -12    1    3    3    0    0  0.34496890198E+02 -0.42318279216E+01  0.12158815949E+02  0.36820926199E+02  0.00000000000E+00 0.  1.
         11    1    4    4    0    0 -0.30608018434E+02  0.14248996736E+02  0.14426411142E+01  0.33792986167E+02  0.51100000000E-03 0. -1.
        -11    1    4    4    0    0 -0.31068463241E+01 -0.16544613756E+01 -0.11342950432E+02  0.11876542480E+02  0.51100000000E-03 0.  1.
         12    1    4    4    0    0 -0.78202544022E+00 -0.83627074387E+01 -0.22585066314E+01  0.86975451536E+01  0.00000000000E+00 0. -1.
</event>
<event>
 8    1  0.1240174E-006  0.9118800E+02  0.7816164E-02  0.1184000E+00
        -11   -1    0    0    0    0  0.00000000000E+00  0.00000000000E+00  0.45593999997E+02  0.45594000000E+02  0.51100000000E-03 0.  1.
         11   -1    0    0    0    0 -0.00000000000E+00 -0.00000000000E+00 -0.45593999997E+02  0.45594000000E+02  0.51100000000E-03 0. -1.
         23    2    1    2    0    0  0.00000000000E+00  0.00000000000E+00 -0.17763568394E-14  0.91188000000E+02  0.91188000000E+02 0.  0.
    9900012    2    3    3    0    0 -0.34606559183E+02  0.93157986766E+01 -0.84487965419E+01  0.54367079228E+02  0.39999988717E+02 0.  0.
        -12    1    3    3    0    0  0.34606559183E+02 -0.93157986766E+01  0.84487965419E+01  0.36820920772E+02  0.00000000000E+00 0.  1.
         11    1    4    4    0    0 -0.27561836045E+01  0.17159501017E+02  0.21831437504E+01  0.17516025237E+02  0.51100000000E-03 0. -1.
        -11    1    4    4    0    0 -0.15512537172E+02 -0.37766176808E+01  0.15923040486E+01  0.16044845997E+02  0.51100000000E-03 0.  1.
         12    1    4    4    0    0 -0.16337838406E+02 -0.40670846592E+01 -0.12224244341E+02  0.20806207994E+02  0.00000000000E+00 0. -1.
</event>
<event>
 8    1  0.1240174E-006  0.9118800E+02  0.7816164E-02  0.1184000E+00
        -11   -1    0    0    0    0  0.00000000000E+00  0.00000000000E+00  0.45593999997E+02  0.45594000000E+02  0.51100000000E-03 0.  1.
         11   -1    0    0    0    0 -0.00000000000E+00 -0.00000000000E+00 -0.45593999997E+02  0.45594000000E+02  0.51100000000E-03 0. -1.
         23    2    1    2    0    0  0.00000000000E+00  0.00000000000E+00  0.00000000000E+00  0.91188000000E+02  0.91188000000E+02 0.  0.
    9900012    2    3    3    0    0 -0.32527082516E+02  0.52461668996E+01 -0.16438808150E+02  0.54367248004E+02  0.40000373473E+02 0.  0.
         12    1    3    3    0    0  0.32527082516E+02 -0.52461668996E+01  0.16438808150E+02  0.36820751996E+02  0.00000000000E+00 0. -1.
         11    1    4    4    0    0  0.63498248341E+00 -0.76184752073E+01 -0.15612670704E+02  0.17383896399E+02  0.51100000000E-03 0. -1.
        -11    1    4    4    0    0 -0.76520195322E+01  0.72202915656E+01  0.19821641029E+01  0.10705838968E+02  0.51100000000E-03 0.  1.
         12    1    4    4    0    0 -0.25510045467E+02  0.56443505413E+01 -0.28083015488E+01  0.26277512637E+02  0.00000000000E+00 0. -1.
</event>
<event>
 8    1  0.1240174E-006  0.9118800E+02  0.7816164E-02  0.1184000E+00
        -11   -1    0    0    0    0  0.00000000000E+00  0.00000000000E+00  0.45593999997E+02  0.45594000000E+02  0.51100000000E-03 0. -1.
         11   -1    0    0    0    0 -0.00000000000E+00 -0.00000000000E+00 -0.45593999997E+02  0.45594000000E+02  0.51100000000E-03 0.  1.
         23    2    1    2    0    0  0.71054273576E-14  0.35527136788E-14  0.35527136788E-14  0.91188000000E+02  0.91188000000E+02 0.  0.
    9900012    2    3    3    0    0  0.22363781729E+02  0.22835535597E+02  0.18280503443E+02  0.54367119710E+02  0.40000081002E+02 0.  0.
        -12    1    3    3    0    0 -0.22363781729E+02 -0.22835535597E+02 -0.18280503443E+02  0.36820880290E+02  0.00000000000E+00 0.  1.
         11    1    4    4    0    0  0.13362739070E+02  0.24244906353E+00  0.15377860036E+02  0.20374006885E+02  0.51100000000E-03 0. -1.
        -11    1    4    4    0    0 -0.15042115115E+01 -0.39739239337E+01  0.33659456253E+01  0.54207300169E+01  0.51100000000E-03 0.  1.
        -12    1    4    4    0    0  0.10505254170E+02  0.26567010468E+02 -0.46330221893E+00  0.28572382808E+02  0.00000000000E+00 0.  1.
</event>
<event>
 8    1  0.1240174E-006  0.9118800E+02  0.7816164E-02  0.1184000E+00
        -11   -1    0    0    0    0  0.00000000000E+00  0.00000000000E+00  0.45593999997E+02  0.45594000000E+02  0.51100000000E-03 0. -1.
         11   -1    0    0    0    0 -0.00000000000E+00 -0.00000000000E+00 -0.45593999997E+02  0.45594000000E+02  0.51100000000E-03 0.  1.
         23    2    1    2    0    0  0.00000000000E+00 -0.35527136788E-14 -0.35527136788E-14  0.91188000000E+02  0.91188000000E+02 0.  0.
    9900012    2    3    3    0    0  0.15831764811E+01  0.29521166788E+02  0.21949345944E+02  0.54367088500E+02  0.40000009854E+02 0.  0.
         12    1    3    3    0    0 -0.15831764811E+01 -0.29521166788E+02 -0.21949345944E+02  0.36820911500E+02  0.00000000000E+00 0. -1.
         11    1    4    4    0    0 -0.50212621602E+01  0.11450808031E+02  0.27526366439E+01  0.12802776535E+02  0.51100000000E-03 0. -1.
        -11    1    4    4    0    0  0.65505454473E+01  0.24149866765E+02  0.23331040396E+02  0.34212032338E+02  0.51100000000E-03 0.  1.
         12    1    4    4    0    0  0.53893193997E-01 -0.60795080084E+01 -0.41343310967E+01  0.73522796273E+01  0.00000000000E+00 0. -1.
</event>
<event>
 8    1  0.1240174E-006  0.9118800E+02  0.7816164E-02  0.1184000E+00
        -11   -1    0    0    0    0  0.00000000000E+00  0.00000000000E+00  0.45593999997E+02  0.45594000000E+02  0.51100000000E-03 0.  1.
         11   -1    0    0    0    0 -0.00000000000E+00 -0.00000000000E+00 -0.45593999997E+02  0.45594000000E+02  0.51100000000E-03 0. -1.
         23    2    1    2    0    0  0.00000000000E+00 -0.35527136788E-14  0.35527136788E-14  0.91188000000E+02  0.91188000000E+02 0.  0.
    9900012    2    3    3    0    0  0.24927552047E+02 -0.20428509135E+02  0.17806556357E+02  0.54367078151E+02  0.39999986261E+02 0.  0.
         12    1    3    3    0    0 -0.24927552047E+02  0.20428509135E+02 -0.17806556357E+02  0.36820921849E+02  0.00000000000E+00 0. -1.
         11    1    4    4    0    0  0.24601637137E+01  0.97676239929E+01  0.90348693492E+01  0.13530992143E+02  0.51100000000E-03 0. -1.
        -11    1    4    4    0    0  0.11113535711E+02 -0.17654134034E+02  0.11308885808E+02  0.23729096548E+02  0.51100000000E-03 0.  1.
        -12    1    4    4    0    0  0.11353852622E+02 -0.12541999094E+02 -0.25371988001E+01  0.17106989460E+02  0.00000000000E+00 0.  1.
</event>
<event>
 8    1  0.1240174E-006  0.9118800E+02  0.7816164E-02  0.1184000E+00
        -11   -1    0    0    0    0  0.00000000000E+00  0.00000000000E+00  0.45593999997E+02  0.45594000000E+02  0.51100000000E-03 0.  1.
         11   -1    0    0    0    0 -0.00000000000E+00 -0.00000000000E+00 -0.45593999997E+02  0.45594000000E+02  0.51100000000E-03 0. -1.
         23    2    1    2    0    0  0.00000000000E+00  0.35527136788E-14  0.17763568394E-14  0.91188000000E+02  0.91188000000E+02 0.  0.
    9900012    2    3    3    0    0  0.23654630619E+02 -0.26998817469E+02 -0.82037371232E+01  0.54367095649E+02  0.40000026151E+02 0.  0.
        -12    1    3    3    0    0 -0.23654630619E+02  0.26998817469E+02  0.82037371232E+01  0.36820904351E+02  0.00000000000E+00 0.  1.
         11    1    4    4    0    0 -0.51899201549E+00 -0.97900848046E+01 -0.89396226285E+01  0.13267703878E+02  0.51100000000E-03 0. -1.
        -11    1    4    4    0    0  0.20096710148E+02 -0.25043289247E+02  0.20264282610E+01  0.32173754938E+02  0.51100000000E-03 0.  1.
        -12    1    4    4    0    0  0.40769124870E+01  0.78345565825E+01 -0.12905427557E+01  0.89256368330E+01  0.00000000000E+00 0.  1.
</event>
<event>
 8    1  0.1240174E-006  0.9118800E+02  0.7816164E-02  0.1184000E+00
        -11   -1    0    0    0    0  0.00000000000E+00  0.00000000000E+00  0.45593999997E+02  0.45594000000E+02  0.51100000000E-03 0. -1.
         11   -1    0    0    0    0 -0.00000000000E+00 -0.00000000000E+00 -0.45593999997E+02  0.45594000000E+02  0.51100000000E-03 0.  1.
         23    2    1    2    0    0  0.00000000000E+00  0.00000000000E+00 -0.17763568394E-14  0.91188000000E+02  0.91188000000E+02 0.  0.
    9900012    2    3    3    0    0 -0.27908385551E+02  0.18410756409E+02 -0.15425507392E+02  0.54367079128E+02  0.39999988487E+02 0.  0.
        -12    1    3    3    0    0  0.27908385551E+02 -0.18410756409E+02  0.15425507392E+02  0.36820920872E+02  0.00000000000E+00 0.  1.
         11    1    4    4    0    0 -0.75540699670E+01  0.25384727934E+01 -0.49219544845E+00  0.79843643335E+01  0.51100000000E-03 0. -1.
        -11    1    4    4    0    0 -0.11140737982E+02 -0.10370994326E+02 -0.94644905530E+00  0.15250224004E+02  0.51100000000E-03 0.  1.
        -12    1    4    4    0    0 -0.92135776014E+01  0.26243277942E+02 -0.13986862888E+02  0.31132490790E+02  0.00000000000E+00 0.  1.
</event>
<event>
 8    1  0.1240174E-006  0.9118800E+02  0.7816164E-02  0.1184000E+00
        -11   -1    0    0    0    0  0.00000000000E+00  0.00000000000E+00  0.45593999997E+02  0.45594000000E+02  0.51100000000E-03 0.  1.
         11   -1    0    0    0    0 -0.00000000000E+00 -0.00000000000E+00 -0.45593999997E+02  0.45594000000E+02  0.51100000000E-03 0. -1.
         23    2    1    2    0    0  0.35527136788E-14  0.00000000000E+00  0.00000000000E+00  0.91188000000E+02  0.91188000000E+02 0.  0.
    9900012    2    3    3    0    0 -0.26868617804E+02  0.10345813101E+02  0.22952681030E+02  0.54367027201E+02  0.39999870109E+02 0.  0.
         12    1    3    3    0    0  0.26868617804E+02 -0.10345813101E+02 -0.22952681030E+02  0.36820972799E+02  0.00000000000E+00 0. -1.
         11    1    4    4    0    0 -0.24518912597E+02  0.19543472865E+01  0.97954040330E+01  0.26475394023E+02  0.51100000000E-03 0. -1.
        -11    1    4    4    0    0 -0.69719822356E+01 -0.61711604978E+01  0.52215574316E+01  0.10675037258E+02  0.51100000000E-03 0.  1.
        -12    1    4    4    0    0  0.46222770285E+01  0.14562626312E+02  0.79357195657E+01  0.17216595920E+02  0.00000000000E+00 0.  1.
</event>
<event>
 8    1  0.1240174E-006  0.9118800E+02  0.7816164E-02  0.1184000E+00
        -11   -1    0    0    0    0  0.00000000000E+00  0.00000000000E+00  0.45593999997E+02  0.45594000000E+02  0.51100000000E-03 0. -1.
         11   -1    0    0    0    0 -0.00000000000E+00 -0.00000000000E+00 -0.45593999997E+02  0.45594000000E+02  0.51100000000E-03 0.  1.
         23    2    1    2    0    0  0.22204460493E-15  0.00000000000E+00  0.88817841970E-15  0.91188000000E+02  0.91188000000E+02 0.  0.
    9900012    2    3    3    0    0  0.15017672220E+01  0.36592451539E+02  0.38101466626E+01  0.54367081597E+02  0.39999994117E+02 0.  0.
        -12    1    3    3    0    0 -0.15017672220E+01 -0.36592451539E+02 -0.38101466626E+01  0.36820918403E+02  0.00000000000E+00 0.  1.
         11    1    4    4    0    0  0.72299396748E+01  0.34247257182E+02  0.13301497814E+02  0.37444311939E+02  0.51100000000E-03 0. -1.
        -11    1    4    4    0    0 -0.60028126116E+01 -0.41380020428E+01 -0.34863827450E+01  0.80815645182E+01  0.51100000000E-03 0.  1.
         12    1    4    4    0    0  0.27464015880E+00  0.64831963998E+01 -0.60049684062E+01  0.88412051404E+01  0.00000000000E+00 0. -1.
</event>
<event>
 8    1  0.1240174E-006  0.9118800E+02  0.7816164E-02  0.1184000E+00
        -11   -1    0    0    0    0  0.00000000000E+00  0.00000000000E+00  0.45593999997E+02  0.45594000000E+02  0.51100000000E-03 0. -1.
         11   -1    0    0    0    0 -0.00000000000E+00 -0.00000000000E+00 -0.45593999997E+02  0.45594000000E+02  0.51100000000E-03 0.  1.
         23    2    1    2    0    0  0.35527136788E-14  0.00000000000E+00  0.35527136788E-14  0.91188000000E+02  0.91188000000E+02 0.  0.
    9900012    2    3    3    0    0 -0.24571411494E+02  0.18789531611E+02 -0.19974467182E+02  0.54367080672E+02  0.39999992007E+02 0.  0.
         12    1    3    3    0    0  0.24571411494E+02 -0.18789531611E+02  0.19974467182E+02  0.36820919328E+02  0.00000000000E+00 0. -1.
         11    1    4    4    0    0 -0.15483984242E+02  0.70998646905E+01  0.12639082053E+00  0.17034606586E+02  0.51100000000E-03 0. -1.
        -11    1    4    4    0    0  0.64725218177E+01  0.18384613408E+01 -0.17480474058E+02  0.18730735499E+02  0.51100000000E-03 0.  1.
        -12    1    4    4    0    0 -0.15559949069E+02  0.98512055798E+01 -0.26203839442E+01  0.18601738586E+02  0.00000000000E+00 0.  1.
</event>
<event>
 8    1  0.1240174E-006  0.9118800E+02  0.7816164E-02  0.1184000E+00
        -11   -1    0    0    0    0  0.00000000000E+00  0.00000000000E+00  0.45593999997E+02  0.45594000000E+02  0.51100000000E-03 0.  1.
         11   -1    0    0    0    0 -0.00000000000E+00 -0.00000000000E+00 -0.45593999997E+02  0.45594000000E+02  0.51100000000E-03 0. -1.
         23    2    1    2    0    0  0.00000000000E+00  0.00000000000E+00  0.00000000000E+00  0.91188000000E+02  0.91188000000E+02 0.  0.
    9900012    2    3    3    0    0  0.28911764184E+02 -0.21308389343E+02  0.81143020658E+01  0.54367089329E+02  0.40000011743E+02 0.  0.
        -12    1    3    3    0    0 -0.28911764184E+02  0.21308389343E+02 -0.81143020658E+01  0.36820910671E+02  0.00000000000E+00 0.  1.
         11    1    4    4    0    0  0.57938718985E+01 -0.13534642102E+02 -0.10507361956E+02  0.18087568769E+02  0.51100000000E-03 0. -1.
        -11    1    4    4    0    0  0.18942205318E+02 -0.30783485090E+01  0.29771323894E+01  0.19420264915E+02  0.51100000000E-03 0.  1.
        -12    1    4    4    0    0  0.41756869677E+01 -0.46953987320E+01  0.15644531633E+02  0.16859255645E+02  0.00000000000E+00 0.  1.
</event>
<event>
 8    1  0.1240174E-006  0.9118800E+02  0.7816164E-02  0.1184000E+00
        -11   -1    0    0    0    0  0.00000000000E+00  0.00000000000E+00  0.45593999997E+02  0.45594000000E+02  0.51100000000E-03 0. -1.
         11   -1    0    0    0    0 -0.00000000000E+00 -0.00000000000E+00 -0.45593999997E+02  0.45594000000E+02  0.51100000000E-03 0.  1.
         23    2    1    2    0    0 -0.88817841970E-15  0.35527136788E-14  0.00000000000E+00  0.91188000000E+02  0.91188000000E+02 0.  0.
    9900012    2    3    3    0    0 -0.64354047686E+01 -0.17744073879E+02  0.31615062957E+02  0.54367098353E+02  0.40000032315E+02 0.  0.
        -12    1    3    3    0    0  0.64354047686E+01  0.17744073879E+02 -0.31615062957E+02  0.36820901647E+02  0.00000000000E+00 0.  1.
         11    1    4    4    0    0  0.70278325175E+01 -0.86635463202E+01  0.19790253883E+02  0.22717869921E+02  0.51100000000E-03 0. -1.
        -11    1    4    4    0    0  0.25068456286E+01 -0.12723476919E+02  0.56112267458E+01  0.14130003743E+02  0.51100000000E-03 0.  1.
        -12    1    4    4    0    0 -0.15970082915E+02  0.36429493606E+01  0.62135823280E+01  0.17519224689E+02  0.00000000000E+00 0.  1.
</event>
<event>
 8    1  0.1240174E-006  0.9118800E+02  0.7816164E-02  0.1184000E+00
        -11   -1    0    0    0    0  0.00000000000E+00  0.00000000000E+00  0.45593999997E+02  0.45594000000E+02  0.51100000000E-03 0. -1.
         11   -1    0    0    0    0 -0.00000000000E+00 -0.00000000000E+00 -0.45593999997E+02  0.45594000000E+02  0.51100000000E-03 0.  1.
         23    2    1    2    0    0  0.00000000000E+00  0.00000000000E+00  0.00000000000E+00  0.91188000000E+02  0.91188000000E+02 0.  0.
    9900012    2    3    3    0    0 -0.17184319464E+02 -0.30474201567E+02  0.11480490646E+02  0.54367089337E+02  0.40000011761E+02 0.  0.
         12    1    3    3    0    0  0.17184319464E+02  0.30474201567E+02 -0.11480490646E+02  0.36820910663E+02  0.00000000000E+00 0. -1.
         11    1    4    4    0    0 -0.30395764450E+01 -0.30908760103E+01 -0.65800074319E+01  0.78796597351E+01  0.51100000000E-03 0. -1.
        -11    1    4    4    0    0 -0.10845099321E+02 -0.33110139041E+02  0.19199095747E+02  0.39780683306E+02  0.51100000000E-03 0.  1.
        -12    1    4    4    0    0 -0.32996436988E+01  0.57268134840E+01 -0.11385976694E+01  0.67067462955E+01  0.00000000000E+00 0.  1.
</event>
<event>
 8    1  0.1240174E-006  0.9118800E+02  0.7816164E-02  0.1184000E+00
        -11   -1    0    0    0    0  0.00000000000E+00  0.00000000000E+00  0.45593999997E+02  0.45594000000E+02  0.51100000000E-03 0.  1.
         11   -1    0    0    0    0 -0.00000000000E+00 -0.00000000000E+00 -0.45593999997E+02  0.45594000000E+02  0.51100000000E-03 0. -1.
         23    2    1    2    0    0  0.00000000000E+00  0.00000000000E+00  0.00000000000E+00  0.91188000000E+02  0.91188000000E+02 0.  0.
    9900012    2    3    3    0    0 -0.31170811562E+02 -0.18329148336E+02 -0.69427998518E+01  0.54367086894E+02  0.40000006192E+02 0.  0.
        -12    1    3    3    0    0  0.31170811562E+02  0.18329148336E+02  0.69427998518E+01  0.36820913106E+02  0.00000000000E+00 0.  1.
         11    1    4    4    0    0 -0.17011512236E+02  0.12689716677E+01  0.81238369136E+00  0.17078108946E+02  0.51100000000E-03 0. -1.
        -11    1    4    4    0    0 -0.12846668919E+02 -0.26021083134E+02 -0.94469384141E+01  0.30518491369E+02  0.51100000000E-03 0.  1.
         12    1    4    4    0    0 -0.13126304073E+01  0.64229631309E+01  0.16917548709E+01  0.67704865786E+01  0.00000000000E+00 0. -1.
</event>
<event>
 8    1  0.1240174E-006  0.9118800E+02  0.7816164E-02  0.1184000E+00
        -11   -1    0    0    0    0  0.00000000000E+00  0.00000000000E+00  0.45593999997E+02  0.45594000000E+02  0.51100000000E-03 0.  1.
         11   -1    0    0    0    0 -0.00000000000E+00 -0.00000000000E+00 -0.45593999997E+02  0.45594000000E+02  0.51100000000E-03 0. -1.
         23    2    1    2    0    0  0.00000000000E+00  0.00000000000E+00 -0.88817841970E-15  0.91188000000E+02  0.91188000000E+02 0.  0.
    9900012    2    3    3    0    0  0.20299231003E+02  0.30136443302E+02  0.59594702501E+01  0.54367091811E+02  0.40000017402E+02 0.  0.
        -12    1    3    3    0    0 -0.20299231003E+02 -0.30136443302E+02 -0.59594702501E+01  0.36820908189E+02  0.00000000000E+00 0.  1.
         11    1    4    4    0    0  0.13736645449E+02  0.21921220704E+02 -0.13472789498E+02  0.29167643073E+02  0.51100000000E-03 0. -1.
        -11    1    4    4    0    0  0.11473046688E+01 -0.29719574467E+01  0.66337571161E+01  0.73590470038E+01  0.51100000000E-03 0.  1.
         12    1    4    4    0    0  0.54152808854E+01  0.11187180044E+02  0.12798502632E+02  0.17840401734E+02  0.00000000000E+00 0. -1.
</event>
<event>
 8    1  0.1240174E-006  0.9118800E+02  0.7816164E-02  0.1184000E+00
        -11   -1    0    0    0    0  0.00000000000E+00  0.00000000000E+00  0.45593999997E+02  0.45594000000E+02  0.51100000000E-03 0. -1.
         11   -1    0    0    0    0 -0.00000000000E+00 -0.00000000000E+00 -0.45593999997E+02  0.45594000000E+02  0.51100000000E-03 0.  1.
         23    2    1    2    0    0 -0.88817841970E-15  0.00000000000E+00  0.00000000000E+00  0.91188000000E+02  0.91188000000E+02 0.  0.
    9900012    2    3    3    0    0 -0.37634458405E+01  0.67468978250E+00 -0.36621844444E+02  0.54367106184E+02  0.40000050168E+02 0.  0.
         12    1    3    3    0    0  0.37634458405E+01 -0.67468978250E+00  0.36621844444E+02  0.36820893816E+02  0.00000000000E+00 0. -1.
         11    1    4    4    0    0 -0.14026011002E+02  0.42669346964E+01  0.73049641977E+00  0.14678873990E+02  0.51100000000E-03 0. -1.
        -11    1    4    4    0    0 -0.43450886119E+00 -0.22849788661E+01 -0.38789782728E+01  0.45228750890E+01  0.51100000000E-03 0.  1.
         12    1    4    4    0    0  0.10697074023E+02 -0.13072660478E+01 -0.33473362591E+02  0.35165357105E+02  0.00000000000E+00 0. -1.
</event>
<event>
 8    1  0.1240174E-006  0.9118800E+02  0.7816164E-02  0.1184000E+00
        -11   -1    0    0    0    0  0.00000000000E+00  0.00000000000E+00  0.45593999997E+02  0.45594000000E+02  0.51100000000E-03 0.  1.
         11   -1    0    0    0    0 -0.00000000000E+00 -0.00000000000E+00 -0.45593999997E+02  0.45594000000E+02  0.51100000000E-03 0. -1.
         23    2    1    2    0    0 -0.35527136788E-14  0.00000000000E+00  0.00000000000E+00  0.91188000000E+02  0.91188000000E+02 0.  0.
    9900012    2    3    3    0    0  0.26847811684E+02  0.24137023637E+02 -0.72370648542E+01  0.54367136214E+02  0.40000118626E+02 0.  0.
         12    1    3    3    0    0 -0.26847811684E+02 -0.24137023637E+02  0.72370648542E+01  0.36820863786E+02  0.00000000000E+00 0. -1.
         11    1    4    4    0    0 -0.43132366456E+01 -0.97750829730E+00 -0.17758204110E+01  0.47658232474E+01  0.51100000000E-03 0. -1.
        -11    1    4    4    0    0  0.12045233533E+02  0.27376797603E+02 -0.51497863854E+01  0.30349579864E+02  0.51100000000E-03 0.  1.
        -12    1    4    4    0    0  0.19115814797E+02 -0.22622656689E+01 -0.31145805776E+00  0.19251733102E+02  0.00000000000E+00 0.  1.
</event>
<event>
 8    1  0.1240174E-006  0.9118800E+02  0.7816164E-02  0.1184000E+00
        -11   -1    0    0    0    0  0.00000000000E+00  0.00000000000E+00  0.45593999997E+02  0.45594000000E+02  0.51100000000E-03 0. -1.
         11   -1    0    0    0    0 -0.00000000000E+00 -0.00000000000E+00 -0.45593999997E+02  0.45594000000E+02  0.51100000000E-03 0.  1.
         23    2    1    2    0    0  0.44408920985E-15  0.00000000000E+00  0.00000000000E+00  0.91188000000E+02  0.91188000000E+02 0.  0.
    9900012    2    3    3    0    0 -0.37631877203E+01 -0.29303935208E+02  0.21974941648E+02  0.54367078489E+02  0.39999987031E+02 0.  0.
        -12    1    3    3    0    0  0.37631877203E+01  0.29303935208E+02 -0.21974941648E+02  0.36820921511E+02  0.00000000000E+00 0.  1.
         11    1    4    4    0    0  0.60546605246E+01  0.29613009134E+01 -0.62640916508E+00  0.67690919532E+01  0.51100000000E-03 0.  1.
        -11    1    4    4    0    0 -0.10779341774E+02 -0.22432446661E+02  0.27054754241E+02  0.36760965705E+02  0.51100000000E-03 0. -1.
        -12    1    4    4    0    0  0.96149352865E+00 -0.98327894610E+01 -0.44534034280E+01  0.10837020831E+02  0.00000000000E+00 0.  1.
</event>
<event>
 8    1  0.1240174E-006  0.9118800E+02  0.7816164E-02  0.1184000E+00
        -11   -1    0    0    0    0  0.00000000000E+00  0.00000000000E+00  0.45593999997E+02  0.45594000000E+02  0.51100000000E-03 0. -1.
         11   -1    0    0    0    0 -0.00000000000E+00 -0.00000000000E+00 -0.45593999997E+02  0.45594000000E+02  0.51100000000E-03 0.  1.
         23    2    1    2    0    0 -0.17763568394E-14  0.00000000000E+00  0.35527136788E-14  0.91188000000E+02  0.91188000000E+02 0.  0.
    9900012    2    3    3    0    0 -0.15284381186E+02  0.17519850240E+02  0.28552086077E+02  0.54367094525E+02  0.40000023588E+02 0.  0.
        -12    1    3    3    0    0  0.15284381186E+02 -0.17519850240E+02 -0.28552086077E+02  0.36820905475E+02  0.00000000000E+00 0.  1.
         11    1    4    4    0    0 -0.20112567374E+02  0.69460964944E+01 -0.13089675050E+01  0.21318466621E+02  0.51100000000E-03 0. -1.
        -11    1    4    4    0    0  0.42385050384E+01  0.11922244986E+02  0.27410447147E+02  0.30190022583E+02  0.51100000000E-03 0.  1.
         12    1    4    4    0    0  0.58968114945E+00 -0.13484912404E+01  0.24506064342E+01  0.28586053206E+01  0.00000000000E+00 0. -1.
</event>
<event>
 8    1  0.1240174E-006  0.9118800E+02  0.7816164E-02  0.1184000E+00
        -11   -1    0    0    0    0  0.00000000000E+00  0.00000000000E+00  0.45593999997E+02  0.45594000000E+02  0.51100000000E-03 0.  1.
         11   -1    0    0    0    0 -0.00000000000E+00 -0.00000000000E+00 -0.45593999997E+02  0.45594000000E+02  0.51100000000E-03 0. -1.
         23    2    1    2    0    0  0.00000000000E+00 -0.35527136788E-14  0.00000000000E+00  0.91188000000E+02  0.91188000000E+02 0.  0.
    9900012    2    3    3    0    0 -0.26420596082E+02 -0.24371336545E+02  0.79856212870E+01  0.54367080814E+02  0.39999992332E+02 0.  0.
         12    1    3    3    0    0  0.26420596082E+02  0.24371336545E+02 -0.79856212870E+01  0.36820919186E+02  0.00000000000E+00 0. -1.
         11    1    4    4    0    0  0.63677888217E+01 -0.23195383201E+01  0.79806272972E+01  0.10469928596E+02  0.51100000000E-03 0. -1.
        -11    1    4    4    0    0 -0.21847651893E+01 -0.51629196877E+01  0.62426795943E+01  0.83904700353E+01  0.51100000000E-03 0.  1.
         12    1    4    4    0    0 -0.30603619715E+02 -0.16888878537E+02 -0.62376856045E+01  0.35506682182E+02  0.00000000000E+00 0. -1.
</event>
<event>
 8    1  0.1240174E-006  0.9118800E+02  0.7816164E-02  0.1184000E+00
        -11   -1    0    0    0    0  0.00000000000E+00  0.00000000000E+00  0.45593999997E+02  0.45594000000E+02  0.51100000000E-03 0.  1.
         11   -1    0    0    0    0 -0.00000000000E+00 -0.00000000000E+00 -0.45593999997E+02  0.45594000000E+02  0.51100000000E-03 0. -1.
         23    2    1    2    0    0  0.00000000000E+00  0.00000000000E+00  0.00000000000E+00  0.91188000000E+02  0.91188000000E+02 0.  0.
    9900012    2    3    3    0    0  0.14682971553E+02 -0.28188606913E+02 -0.18590141692E+02  0.54367074136E+02  0.39999977108E+02 0.  0.
        -12    1    3    3    0    0 -0.14682971553E+02  0.28188606913E+02  0.18590141692E+02  0.36820925864E+02  0.00000000000E+00 0.  1.
         11    1    4    4    0    0  0.60156593523E+01 -0.29277245427E+02 -0.24495056875E+02  0.38643926674E+02  0.51100000000E-03 0. -1.
        -11    1    4    4    0    0 -0.13602063996E+01  0.33320971987E+01 -0.47190808407E+00  0.36298389348E+01  0.51100000000E-03 0.  1.
         12    1    4    4    0    0  0.10027518600E+02 -0.22434586856E+01  0.63768232670E+01  0.12093308527E+02  0.00000000000E+00 0. -1.
</event>
<event>
 8    1  0.1240174E-006  0.9118800E+02  0.7816164E-02  0.1184000E+00
        -11   -1    0    0    0    0  0.00000000000E+00  0.00000000000E+00  0.45593999997E+02  0.45594000000E+02  0.51100000000E-03 0. -1.
         11   -1    0    0    0    0 -0.00000000000E+00 -0.00000000000E+00 -0.45593999997E+02  0.45594000000E+02  0.51100000000E-03 0.  1.
         23    2    1    2    0    0  0.88817841970E-15  0.71054273576E-14  0.35527136788E-14  0.91188000000E+02  0.91188000000E+02 0.  0.
    9900012    2    3    3    0    0 -0.78318014642E+01 -0.32073112457E+02 -0.16302040061E+02  0.54367106923E+02  0.40000051852E+02 0.  0.
         12    1    3    3    0    0  0.78318014642E+01  0.32073112457E+02  0.16302040061E+02  0.36820893077E+02  0.00000000000E+00 0. -1.
         11    1    4    4    0    0 -0.15562889249E+02 -0.19434484476E+02  0.26321096167E+01  0.25036587426E+02  0.51100000000E-03 0. -1.
        -11    1    4    4    0    0  0.11284355742E+01  0.27242054176E+01  0.11777784687E+01  0.31751888739E+01  0.51100000000E-03 0.  1.
        -12    1    4    4    0    0  0.66026522103E+01 -0.15362833398E+02 -0.20111928147E+02  0.26155330623E+02  0.00000000000E+00 0.  1.
</event>
<event>
 8    1  0.1240174E-006  0.9118800E+02  0.7816164E-02  0.1184000E+00
        -11   -1    0    0    0    0  0.00000000000E+00  0.00000000000E+00  0.45593999997E+02  0.45594000000E+02  0.51100000000E-03 0.  1.
         11   -1    0    0    0    0 -0.00000000000E+00 -0.00000000000E+00 -0.45593999997E+02  0.45594000000E+02  0.51100000000E-03 0. -1.
         23    2    1    2    0    0  0.00000000000E+00 -0.17763568394E-14  0.00000000000E+00  0.91188000000E+02  0.91188000000E+02 0.  0.
    9900012    2    3    3    0    0  0.24917446690E+02 -0.12672745763E+02  0.23964550853E+02  0.54367118257E+02  0.40000077690E+02 0.  0.
         12    1    3    3    0    0 -0.24917446690E+02  0.12672745763E+02 -0.23964550853E+02  0.36820881743E+02  0.00000000000E+00 0. -1.
         11    1    4    4    0    0  0.87734991465E+01  0.91388333319E+01  0.24420857059E+00  0.12670919463E+02  0.51100000000E-03 0. -1.
        -11    1    4    4    0    0  0.51506761218E+00 -0.13495543891E+02  0.19646553973E+01  0.13647522510E+02  0.51100000000E-03 0.  1.
        -12    1    4    4    0    0  0.15628879932E+02 -0.83160352033E+01  0.21755686886E+02  0.28048676284E+02  0.00000000000E+00 0.  1.
</event>
<event>
 8    1  0.1240174E-006  0.9118800E+02  0.7816164E-02  0.1184000E+00
        -11   -1    0    0    0    0  0.00000000000E+00  0.00000000000E+00  0.45593999997E+02  0.45594000000E+02  0.51100000000E-03 0.  1.
         11   -1    0    0    0    0 -0.00000000000E+00 -0.00000000000E+00 -0.45593999997E+02  0.45594000000E+02  0.51100000000E-03 0. -1.
         23    2    1    2    0    0 -0.71054273576E-14  0.00000000000E+00  0.00000000000E+00  0.91188000000E+02  0.91188000000E+02 0.  0.
    9900012    2    3    3    0    0  0.27965417019E+02  0.24257879141E+01 -0.23829239145E+02  0.54367059840E+02  0.39999944516E+02 0.  0.
        -12    1    3    3    0    0 -0.27965417019E+02 -0.24257879141E+01  0.23829239145E+02  0.36820940160E+02  0.00000000000E+00 0.  1.
         11    1    4    4    0    0  0.19234932216E+02  0.32597127950E+00 -0.22746129674E+02  0.29790523494E+02  0.51100000000E-03 0. -1.
        -11    1    4    4    0    0 -0.73046725330E+01  0.16327547649E+01 -0.36551088293E+01  0.83297028609E+01  0.51100000000E-03 0.  1.
        -12    1    4    4    0    0  0.16035157336E+02  0.46706186966E+00  0.25719993583E+01  0.16246833485E+02  0.00000000000E+00 0.  1.
</event>
<event>
 8    1  0.1240174E-006  0.9118800E+02  0.7816164E-02  0.1184000E+00
        -11   -1    0    0    0    0  0.00000000000E+00  0.00000000000E+00  0.45593999997E+02  0.45594000000E+02  0.51100000000E-03 0.  1.
         11   -1    0    0    0    0 -0.00000000000E+00 -0.00000000000E+00 -0.45593999997E+02  0.45594000000E+02  0.51100000000E-03 0. -1.
         23    2    1    2    0    0  0.00000000000E+00 -0.35527136788E-14  0.00000000000E+00  0.91188000000E+02  0.91188000000E+02 0.  0.
    9900012    2    3    3    0    0  0.18490212981E+02  0.22165854427E+02  0.22859672035E+02  0.54367113480E+02  0.40000066801E+02 0.  0.
         12    1    3    3    0    0 -0.18490212981E+02 -0.22165854427E+02 -0.22859672035E+02  0.36820886520E+02  0.00000000000E+00 0. -1.
         11    1    4    4    0    0  0.22358359745E+02  0.89529918275E+01  0.17411444210E+01  0.24147130208E+02  0.51100000000E-03 0. -1.
        -11    1    4    4    0    0  0.57017416022E+01  0.15653002481E+01  0.29373784664E+01  0.66021371298E+01  0.51100000000E-03 0.  1.
        -12    1    4    4    0    0 -0.95698883660E+01  0.11647562351E+02  0.18181149148E+02  0.23617846142E+02  0.00000000000E+00 0.  1.
</event>
<event>
 8    1  0.1240174E-006  0.9118800E+02  0.7816164E-02  0.1184000E+00
        -11   -1    0    0    0    0  0.00000000000E+00  0.00000000000E+00  0.45593999997E+02  0.45594000000E+02  0.51100000000E-03 0.  1.
         11   -1    0    0    0    0 -0.00000000000E+00 -0.00000000000E+00 -0.45593999997E+02  0.45594000000E+02  0.51100000000E-03 0. -1.
         23    2    1    2    0    0  0.00000000000E+00 -0.71054273576E-14  0.22204460493E-15  0.91188000000E+02  0.91188000000E+02 0.  0.
    9900012    2    3    3    0    0 -0.46357059332E+01 -0.36526376397E+02  0.33702330742E+00  0.54367088456E+02  0.40000009754E+02 0.  0.
         12    1    3    3    0    0  0.46357059332E+01  0.36526376397E+02 -0.33702330742E+00  0.36820911544E+02  0.00000000000E+00 0. -1.
         11    1    4    4    0    0 -0.28450157366E+01  0.78874255633E+01  0.57076984644E+00  0.84042474402E+01  0.51100000000E-03 0. -1.
        -11    1    4    4    0    0 -0.42957645586E+01 -0.16478869191E+02  0.42693936272E+01  0.17556606880E+02  0.51100000000E-03 0.  1.
        -12    1    4    4    0    0  0.25050743620E+01 -0.27934932770E+02 -0.45031401662E+01  0.28406234136E+02  0.00000000000E+00 0.  1.
</event>
<event>
 8    1  0.1240174E-006  0.9118800E+02  0.7816164E-02  0.1184000E+00
        -11   -1    0    0    0    0  0.00000000000E+00  0.00000000000E+00  0.45593999997E+02  0.45594000000E+02  0.51100000000E-03 0. -1.
         11   -1    0    0    0    0 -0.00000000000E+00 -0.00000000000E+00 -0.45593999997E+02  0.45594000000E+02  0.51100000000E-03 0.  1.
         23    2    1    2    0    0  0.00000000000E+00  0.00000000000E+00  0.00000000000E+00  0.91188000000E+02  0.91188000000E+02 0.  0.
    9900012    2    3    3    0    0 -0.14420258896E+02  0.26894684855E+02 -0.20603703983E+02  0.54367074456E+02  0.39999977837E+02 0.  0.
         12    1    3    3    0    0  0.14420258896E+02 -0.26894684855E+02  0.20603703983E+02  0.36820925544E+02  0.00000000000E+00 0. -1.
         11    1    4    4    0    0  0.18798164720E+01  0.30207331762E+02 -0.75657914269E+01  0.31197080029E+02  0.51100000000E-03 0. -1.
        -11    1    4    4    0    0 -0.80828413616E+01 -0.16750975376E-01 -0.88085303846E+00  0.81307138314E+01  0.51100000000E-03 0.  1.
        -12    1    4    4    0    0 -0.82172340069E+01 -0.32958959314E+01 -0.12157059518E+02  0.15039280596E+02  0.00000000000E+00 0.  1.
</event>
<event>
 8    1  0.1240174E-006  0.9118800E+02  0.7816164E-02  0.1184000E+00
        -11   -1    0    0    0    0  0.00000000000E+00  0.00000000000E+00  0.45593999997E+02  0.45594000000E+02  0.51100000000E-03 0.  1.
         11   -1    0    0    0    0 -0.00000000000E+00 -0.00000000000E+00 -0.45593999997E+02  0.45594000000E+02  0.51100000000E-03 0. -1.
         23    2    1    2    0    0 -0.26645352591E-14  0.00000000000E+00  0.00000000000E+00  0.91188000000E+02  0.91188000000E+02 0.  0.
    9900012    2    3    3    0    0  0.64093100760E+01  0.14235112638E+02  0.33347595977E+02  0.54367084138E+02  0.39999999909E+02 0.  0.
         12    1    3    3    0    0 -0.64093100760E+01 -0.14235112638E+02 -0.33347595977E+02  0.36820915862E+02  0.00000000000E+00 0. -1.
         11    1    4    4    0    0  0.17714935718E+02  0.10054301165E+02  0.30253124910E+01  0.20592727730E+02  0.51100000000E-03 0. -1.
        -11    1    4    4    0    0 -0.62641855232E+01  0.55344869573E+01  0.24820767106E+02  0.26190476249E+02  0.51100000000E-03 0.  1.
         12    1    4    4    0    0 -0.50414401190E+01 -0.13536754841E+01  0.55015163797E+01  0.75838801590E+01  0.00000000000E+00 0. -1.
</event>
<event>
 8    1  0.1240174E-006  0.9118800E+02  0.7816164E-02  0.1184000E+00
        -11   -1    0    0    0    0  0.00000000000E+00  0.00000000000E+00  0.45593999997E+02  0.45594000000E+02  0.51100000000E-03 0. -1.
         11   -1    0    0    0    0 -0.00000000000E+00 -0.00000000000E+00 -0.45593999997E+02  0.45594000000E+02  0.51100000000E-03 0.  1.
         23    2    1    2    0    0  0.00000000000E+00  0.00000000000E+00  0.71054273576E-14  0.91188000000E+02  0.91188000000E+02 0.  0.
    9900012    2    3    3    0    0 -0.47109708912E+01  0.66566052429E+01 -0.35906477588E+02  0.54367098695E+02  0.40000033095E+02 0.  0.
         12    1    3    3    0    0  0.47109708912E+01 -0.66566052429E+01  0.35906477588E+02  0.36820901305E+02  0.00000000000E+00 0. -1.
         11    1    4    4    0    0  0.34623319231E+01  0.75393031141E+01  0.56737333006E+00  0.83156927883E+01  0.51100000000E-03 0. -1.
        -11    1    4    4    0    0 -0.13485759697E+02  0.55592079396E+01 -0.85542041385E+01  0.16909905861E+02  0.51100000000E-03 0.  1.
        -12    1    4    4    0    0  0.53124568826E+01 -0.64419058108E+01 -0.27919646780E+02  0.29141500046E+02  0.00000000000E+00 0.  1.
</event>
<event>
 8    1  0.1240174E-006  0.9118800E+02  0.7816164E-02  0.1184000E+00
        -11   -1    0    0    0    0  0.00000000000E+00  0.00000000000E+00  0.45593999997E+02  0.45594000000E+02  0.51100000000E-03 0. -1.
         11   -1    0    0    0    0 -0.00000000000E+00 -0.00000000000E+00 -0.45593999997E+02  0.45594000000E+02  0.51100000000E-03 0.  1.
         23    2    1    2    0    0  0.00000000000E+00  0.41633363423E-15 -0.17763568394E-14  0.91188000000E+02  0.91188000000E+02 0.  0.
    9900012    2    3    3    0    0 -0.34322374192E+02 -0.47448395935E-01 -0.13332404921E+02  0.54367073307E+02  0.39999975219E+02 0.  0.
         12    1    3    3    0    0  0.34322374192E+02  0.47448395935E-01  0.13332404921E+02  0.36820926693E+02  0.00000000000E+00 0. -1.
         11    1    4    4    0    0 -0.10648985848E+01  0.12701882079E+01 -0.90949288620E+01  0.92447346282E+01  0.51100000000E-03 0. -1.
        -11    1    4    4    0    0 -0.33431319570E+02 -0.82231202008E+01 -0.10295812816E+02  0.35934337281E+02  0.51100000000E-03 0.  1.
         12    1    4    4    0    0  0.17384396294E+00  0.69054835970E+01  0.60583367565E+01  0.91880013979E+01  0.00000000000E+00 0. -1.
</event>
<event>
 8    1  0.1240174E-006  0.9118800E+02  0.7816164E-02  0.1184000E+00
        -11   -1    0    0    0    0  0.00000000000E+00  0.00000000000E+00  0.45593999997E+02  0.45594000000E+02  0.51100000000E-03 0. -1.
         11   -1    0    0    0    0 -0.00000000000E+00 -0.00000000000E+00 -0.45593999997E+02  0.45594000000E+02  0.51100000000E-03 0.  1.
         23    2    1    2    0    0  0.00000000000E+00  0.44408920985E-15  0.88817841970E-15  0.91188000000E+02  0.91188000000E+02 0.  0.
    9900012    2    3    3    0    0 -0.36276981367E+02  0.24503419661E+01  0.58100324226E+01  0.54367081630E+02  0.39999994191E+02 0.  0.
        -12    1    3    3    0    0  0.36276981367E+02 -0.24503419661E+01 -0.58100324226E+01  0.36820918370E+02  0.00000000000E+00 0.  1.
         11    1    4    4    0    0 -0.20715113073E+02  0.12340183744E+02  0.10276173295E+02  0.26210604387E+02  0.51100000000E-03 0. -1.
        -11    1    4    4    0    0 -0.18729003924E+02 -0.14703585064E+01 -0.25461061895E+01  0.18958380709E+02  0.51100000000E-03 0.  1.
         12    1    4    4    0    0  0.31671356298E+01 -0.84194832717E+01 -0.19200346827E+01  0.91980965337E+01  0.00000000000E+00 0. -1.
</event>
<event>
 8    1  0.1240174E-006  0.9118800E+02  0.7816164E-02  0.1184000E+00
        -11   -1    0    0    0    0  0.00000000000E+00  0.00000000000E+00  0.45593999997E+02  0.45594000000E+02  0.51100000000E-03 0.  1.
         11   -1    0    0    0    0 -0.00000000000E+00 -0.00000000000E+00 -0.45593999997E+02  0.45594000000E+02  0.51100000000E-03 0. -1.
         23    2    1    2    0    0  0.00000000000E+00 -0.17763568394E-14  0.00000000000E+00  0.91188000000E+02  0.91188000000E+02 0.  0.
    9900012    2    3    3    0    0  0.19511825030E+02  0.11876816116E+02  0.28879207644E+02  0.54367099533E+02  0.40000035006E+02 0.  0.
         12    1    3    3    0    0 -0.19511825030E+02 -0.11876816116E+02 -0.28879207644E+02  0.36820900467E+02  0.00000000000E+00 0. -1.
         11    1    4    4    0    0 -0.61981318473E+01 -0.79073762068E+01  0.36369090954E+01  0.10685061764E+02  0.51100000000E-03 0. -1.
        -11    1    4    4    0    0  0.30071855479E+01 -0.17531278006E+01  0.62224269324E-02  0.34808994505E+01  0.51100000000E-03 0.  1.
        -12    1    4    4    0    0  0.22702771329E+02  0.21537320123E+02  0.25236076122E+02  0.40201138319E+02  0.00000000000E+00 0.  1.
</event>
<event>
 8    1  0.1240174E-006  0.9118800E+02  0.7816164E-02  0.1184000E+00
        -11   -1    0    0    0    0  0.00000000000E+00  0.00000000000E+00  0.45593999997E+02  0.45594000000E+02  0.51100000000E-03 0.  1.
         11   -1    0    0    0    0 -0.00000000000E+00 -0.00000000000E+00 -0.45593999997E+02  0.45594000000E+02  0.51100000000E-03 0. -1.
         23    2    1    2    0    0  0.71054273576E-14  0.17763568394E-14 -0.71054273576E-14  0.91188000000E+02  0.91188000000E+02 0.  0.
    9900012    2    3    3    0    0  0.18763558946E+02  0.46736273977E+01 -0.31334737428E+02  0.54367086011E+02  0.40000004178E+02 0.  0.
        -12    1    3    3    0    0 -0.18763558946E+02 -0.46736273977E+01  0.31334737428E+02  0.36820913989E+02  0.00000000000E+00 0.  1.
         11    1    4    4    0    0  0.45725113123E+01 -0.53033277088E+01  0.23005004352E+01  0.73705798280E+01  0.51100000000E-03 0. -1.
        -11    1    4    4    0    0 -0.36195495341E+01 -0.68264179795E+01 -0.12267537016E+02  0.14498054557E+02  0.51100000000E-03 0.  1.
         12    1    4    4    0    0  0.17810597168E+02  0.16803373086E+02 -0.21367700847E+02  0.32498451625E+02  0.00000000000E+00 0. -1.
</event>
<event>
 8    1  0.1240174E-006  0.9118800E+02  0.7816164E-02  0.1184000E+00
        -11   -1    0    0    0    0  0.00000000000E+00  0.00000000000E+00  0.45593999997E+02  0.45594000000E+02  0.51100000000E-03 0. -1.
         11   -1    0    0    0    0 -0.00000000000E+00 -0.00000000000E+00 -0.45593999997E+02  0.45594000000E+02  0.51100000000E-03 0.  1.
         23    2    1    2    0    0 -0.36082248300E-15  0.00000000000E+00 -0.35527136788E-14  0.91188000000E+02  0.91188000000E+02 0.  0.
    9900012    2    3    3    0    0 -0.81068541877E-01 -0.32120313609E+02 -0.18001372750E+02  0.54367210501E+02  0.40000287978E+02 0.  0.
         12    1    3    3    0    0  0.81068541877E-01  0.32120313609E+02  0.18001372750E+02  0.36820789499E+02  0.00000000000E+00 0. -1.
         11    1    4    4    0    0 -0.20253930083E+01  0.81763236129E+00  0.54082814741E+01  0.58326879121E+01  0.51100000000E-03 0. -1.
        -11    1    4    4    0    0 -0.11543701672E+02 -0.92846237943E+01 -0.11776512591E+02  0.18924786296E+02  0.51100000000E-03 0.  1.
         12    1    4    4    0    0  0.13488026138E+02 -0.23653322176E+02 -0.11633141633E+02  0.29609736293E+02  0.00000000000E+00 0. -1.
</event>
<event>
 8    1  0.1240174E-006  0.9118800E+02  0.7816164E-02  0.1184000E+00
        -11   -1    0    0    0    0  0.00000000000E+00  0.00000000000E+00  0.45593999997E+02  0.45594000000E+02  0.51100000000E-03 0.  1.
         11   -1    0    0    0    0 -0.00000000000E+00 -0.00000000000E+00 -0.45593999997E+02  0.45594000000E+02  0.51100000000E-03 0. -1.
         23    2    1    2    0    0  0.17763568394E-14  0.35527136788E-14  0.00000000000E+00  0.91188000000E+02  0.91188000000E+02 0.  0.
    9900012    2    3    3    0    0  0.92524695501E+01 -0.27293293834E+02  0.22918267839E+02  0.54367094500E+02  0.40000023532E+02 0.  0.
         12    1    3    3    0    0 -0.92524695501E+01  0.27293293834E+02 -0.22918267839E+02  0.36820905500E+02  0.00000000000E+00 0. -1.
         11    1    4    4    0    0  0.77220829286E+00  0.19072894246E+01  0.51624899632E+00  0.21214551336E+01  0.51100000000E-03 0. -1.
        -11    1    4    4    0    0  0.29165211460E+00 -0.33736364840E+02  0.25602984787E+02  0.42352570216E+02  0.51100000000E-03 0.  1.
        -12    1    4    4    0    0  0.81886091426E+01  0.45357815820E+01 -0.32009659442E+01  0.98930691510E+01  0.00000000000E+00 0.  1.
</event>
<event>
 8    1  0.1240174E-006  0.9118800E+02  0.7816164E-02  0.1184000E+00
        -11   -1    0    0    0    0  0.00000000000E+00  0.00000000000E+00  0.45593999997E+02  0.45594000000E+02  0.51100000000E-03 0.  1.
         11   -1    0    0    0    0 -0.00000000000E+00 -0.00000000000E+00 -0.45593999997E+02  0.45594000000E+02  0.51100000000E-03 0. -1.
         23    2    1    2    0    0  0.35527136788E-14  0.00000000000E+00  0.17763568394E-14  0.91188000000E+02  0.91188000000E+02 0.  0.
    9900012    2    3    3    0    0  0.21764964715E+02 -0.29124041004E+02  0.58186400711E+01  0.54367081683E+02  0.39999994313E+02 0.  0.
        -12    1    3    3    0    0 -0.21764964715E+02  0.29124041004E+02 -0.58186400711E+01  0.36820918317E+02  0.00000000000E+00 0.  1.
         11    1    4    4    0    0  0.19592563881E+02 -0.26869625404E+02 -0.49037932511E+01  0.33613873880E+02  0.51100000000E-03 0. -1.
        -11    1    4    4    0    0  0.38345514659E+01 -0.48430758655E+01  0.14570916547E+02  0.15826268608E+02  0.51100000000E-03 0.  1.
        -12    1    4    4    0    0 -0.16621506313E+01  0.25886602655E+01 -0.38484832248E+01  0.49269391941E+01  0.00000000000E+00 0.  1.
</event>
<event>
 8    1  0.1240174E-006  0.9118800E+02  0.7816164E-02  0.1184000E+00
        -11   -1    0    0    0    0  0.00000000000E+00  0.00000000000E+00  0.45593999997E+02  0.45594000000E+02  0.51100000000E-03 0.  1.
         11   -1    0    0    0    0 -0.00000000000E+00 -0.00000000000E+00 -0.45593999997E+02  0.45594000000E+02  0.51100000000E-03 0. -1.
         23    2    1    2    0    0 -0.35527136788E-14  0.35527136788E-14 -0.88817841970E-15  0.91188000000E+02  0.91188000000E+02 0.  0.
    9900012    2    3    3    0    0  0.19485896053E+02  0.30956918325E+02  0.42129181362E+01  0.54367087241E+02  0.40000006984E+02 0.  0.
        -12    1    3    3    0    0 -0.19485896053E+02 -0.30956918325E+02 -0.42129181362E+01  0.36820912759E+02  0.00000000000E+00 0.  1.
         11    1    4    4    0    0  0.16503980850E+02  0.23952774371E+02  0.29003101134E+01  0.29232320863E+02  0.51100000000E-03 0. -1.
        -11    1    4    4    0    0  0.63470449524E+01 -0.51758558640E+00 -0.95634406008E+01  0.11489659301E+02  0.51100000000E-03 0.  1.
        -12    1    4    4    0    0 -0.33651297498E+01  0.75217295399E+01  0.10876048623E+02  0.13645107078E+02  0.00000000000E+00 0.  1.
</event>
<event>
 8    1  0.1240174E-006  0.9118800E+02  0.7816164E-02  0.1184000E+00
        -11   -1    0    0    0    0  0.00000000000E+00  0.00000000000E+00  0.45593999997E+02  0.45594000000E+02  0.51100000000E-03 0. -1.
         11   -1    0    0    0    0 -0.00000000000E+00 -0.00000000000E+00 -0.45593999997E+02  0.45594000000E+02  0.51100000000E-03 0.  1.
         23    2    1    2    0    0 -0.71054273576E-14 -0.17763568394E-14 -0.88817841970E-15  0.91188000000E+02  0.91188000000E+02 0.  0.
    9900012    2    3    3    0    0  0.35230061783E+02 -0.85867895773E+01  0.63945057497E+01  0.54367083224E+02  0.39999997826E+02 0.  0.
         12    1    3    3    0    0 -0.35230061783E+02  0.85867895773E+01 -0.63945057497E+01  0.36820916776E+02  0.00000000000E+00 0. -1.
         11    1    4    4    0    0  0.16246543049E+01  0.44622054495E+01  0.31551323407E+01  0.57013717149E+01  0.51100000000E-03 0. -1.
        -11    1    4    4    0    0  0.80470458804E+01  0.10871289210E+02  0.16230599838E+01  0.13622562184E+02  0.51100000000E-03 0.  1.
        -12    1    4    4    0    0  0.25558361597E+02 -0.23920284237E+02  0.16163134252E+01  0.35043149325E+02  0.00000000000E+00 0.  1.
</event>
<event>
 8    1  0.1240174E-006  0.9118800E+02  0.7816164E-02  0.1184000E+00
        -11   -1    0    0    0    0  0.00000000000E+00  0.00000000000E+00  0.45593999997E+02  0.45594000000E+02  0.51100000000E-03 0. -1.
         11   -1    0    0    0    0 -0.00000000000E+00 -0.00000000000E+00 -0.45593999997E+02  0.45594000000E+02  0.51100000000E-03 0.  1.
         23    2    1    2    0    0  0.35527136788E-14 -0.88817841970E-15  0.35527136788E-14  0.91188000000E+02  0.91188000000E+02 0.  0.
    9900012    2    3    3    0    0  0.29199737263E+02 -0.76156409602E+01  0.21098736407E+02  0.54367091246E+02  0.40000016114E+02 0.  0.
        -12    1    3    3    0    0 -0.29199737263E+02  0.76156409602E+01 -0.21098736407E+02  0.36820908754E+02  0.00000000000E+00 0.  1.
         11    1    4    4    0    0  0.18979027250E+02  0.48973656987E+01  0.14579742128E+02  0.24428601002E+02  0.51100000000E-03 0. -1.
        -11    1    4    4    0    0  0.86524495447E+01 -0.46832947874E+01 -0.84523352595E+01  0.12970740333E+02  0.51100000000E-03 0.  1.
        -12    1    4    4    0    0  0.15682604684E+01 -0.78297118715E+01  0.14971329538E+02  0.16967749911E+02  0.00000000000E+00 0.  1.
</event>
<event>
 8    1  0.1240174E-006  0.9118800E+02  0.7816164E-02  0.1184000E+00
        -11   -1    0    0    0    0  0.00000000000E+00  0.00000000000E+00  0.45593999997E+02  0.45594000000E+02  0.51100000000E-03 0.  1.
         11   -1    0    0    0    0 -0.00000000000E+00 -0.00000000000E+00 -0.45593999997E+02  0.45594000000E+02  0.51100000000E-03 0. -1.
         23    2    1    2    0    0  0.00000000000E+00  0.00000000000E+00  0.35527136788E-14  0.91188000000E+02  0.91188000000E+02 0.  0.
    9900012    2    3    3    0    0 -0.22982626308E+02 -0.18086505617E+02  0.22370884391E+02  0.54367092001E+02  0.40000017834E+02 0.  0.
         12    1    3    3    0    0  0.22982626308E+02  0.18086505617E+02 -0.22370884391E+02  0.36820907999E+02  0.00000000000E+00 0. -1.
         11    1    4    4    0    0 -0.76469970309E+01  0.24209011512E+01 -0.47403218847E+01  0.93170798969E+01  0.51100000000E-03 0. -1.
        -11    1    4    4    0    0 -0.85329279434E+01  0.34661558142E+01  0.15283633575E+01  0.93360050466E+01  0.51100000000E-03 0.  1.
        -12    1    4    4    0    0 -0.68027013338E+01 -0.23973562582E+02  0.25582842918E+02  0.35714007057E+02  0.00000000000E+00 0.  1.
</event>
<event>
 8    1  0.1240174E-006  0.9118800E+02  0.7816164E-02  0.1184000E+00
        -11   -1    0    0    0    0  0.00000000000E+00  0.00000000000E+00  0.45593999997E+02  0.45594000000E+02  0.51100000000E-03 0. -1.
         11   -1    0    0    0    0 -0.00000000000E+00 -0.00000000000E+00 -0.45593999997E+02  0.45594000000E+02  0.51100000000E-03 0.  1.
         23    2    1    2    0    0  0.71054273576E-14  0.88817841970E-15  0.17763568394E-14  0.91188000000E+02  0.91188000000E+02 0.  0.
    9900012    2    3    3    0    0  0.35244702725E+02 -0.38798729137E+01  0.99267089371E+01  0.54367054407E+02  0.39999932132E+02 0.  0.
         12    1    3    3    0    0 -0.35244702725E+02  0.38798729137E+01 -0.99267089371E+01  0.36820945593E+02  0.00000000000E+00 0. -1.
         11    1    4    4    0    0  0.30855886074E+02 -0.10948040710E+02  0.10879384835E+02  0.34500816156E+02  0.51100000000E-03 0.  1.
        -11    1    4    4    0    0 -0.42439841752E+01  0.64597348711E+01  0.51402423559E+01  0.92823309585E+01  0.51100000000E-03 0. -1.
        -12    1    4    4    0    0  0.86328008270E+01  0.60843292521E+00 -0.60929182535E+01  0.10583907293E+02  0.00000000000E+00 0.  1.
</event>
<event>
 8    1  0.1240174E-006  0.9118800E+02  0.7816164E-02  0.1184000E+00
        -11   -1    0    0    0    0  0.00000000000E+00  0.00000000000E+00  0.45593999997E+02  0.45594000000E+02  0.51100000000E-03 0.  1.
         11   -1    0    0    0    0 -0.00000000000E+00 -0.00000000000E+00 -0.45593999997E+02  0.45594000000E+02  0.51100000000E-03 0. -1.
         23    2    1    2    0    0  0.17763568394E-14  0.71054273576E-14  0.17763568394E-14  0.91188000000E+02  0.91188000000E+02 0.  0.
    9900012    2    3    3    0    0  0.13851478530E+02  0.31630192440E+02  0.12784692286E+02  0.54367069972E+02  0.39999967616E+02 0.  0.
         12    1    3    3    0    0 -0.13851478530E+02 -0.31630192440E+02 -0.12784692286E+02  0.36820930028E+02  0.00000000000E+00 0. -1.
         11    1    4    4    0    0 -0.10884503505E+01  0.25429276153E+01 -0.59137084475E+01  0.65286409677E+01  0.51100000000E-03 0.  1.
        -11    1    4    4    0    0  0.44172016866E+01 -0.52069432067E+01 -0.10199402336E+01  0.69039268999E+01  0.51100000000E-03 0. -1.
        -12    1    4    4    0    0  0.10522727193E+02  0.34294208031E+02  0.19718340967E+02  0.40934502105E+02  0.00000000000E+00 0.  1.
</event>
<event>
 8    1  0.1240174E-006  0.9118800E+02  0.7816164E-02  0.1184000E+00
        -11   -1    0    0    0    0  0.00000000000E+00  0.00000000000E+00  0.45593999997E+02  0.45594000000E+02  0.51100000000E-03 0.  1.
         11   -1    0    0    0    0 -0.00000000000E+00 -0.00000000000E+00 -0.45593999997E+02  0.45594000000E+02  0.51100000000E-03 0. -1.
         23    2    1    2    0    0  0.00000000000E+00 -0.53290705182E-14  0.00000000000E+00  0.91188000000E+02  0.91188000000E+02 0.  0.
    9900012    2    3    3    0    0 -0.32427867323E+02  0.15430194074E+02  0.81315559145E+01  0.54367086515E+02  0.40000005328E+02 0.  0.
         12    1    3    3    0    0  0.32427867323E+02 -0.15430194074E+02 -0.81315559145E+01  0.36820913485E+02  0.00000000000E+00 0. -1.
         11    1    4    4    0    0 -0.44323619319E+01 -0.13209001351E+01  0.50837086669E+01  0.68727507981E+01  0.51100000000E-03 0. -1.
        -11    1    4    4    0    0 -0.24181204105E+02 -0.43516394230E+00  0.12806011922E+02  0.27366292062E+02  0.51100000000E-03 0.  1.
         12    1    4    4    0    0 -0.38143012860E+01  0.17186258151E+02 -0.97581646746E+01  0.20128043655E+02  0.00000000000E+00 0. -1.
</event>
<event>
 8    1  0.1240174E-006  0.9118800E+02  0.7816164E-02  0.1184000E+00
        -11   -1    0    0    0    0  0.00000000000E+00  0.00000000000E+00  0.45593999997E+02  0.45594000000E+02  0.51100000000E-03 0. -1.
         11   -1    0    0    0    0 -0.00000000000E+00 -0.00000000000E+00 -0.45593999997E+02  0.45594000000E+02  0.51100000000E-03 0.  1.
         23    2    1    2    0    0  0.00000000000E+00  0.00000000000E+00  0.00000000000E+00  0.91188000000E+02  0.91188000000E+02 0.  0.
    9900012    2    3    3    0    0  0.55603475421E+01  0.33409127253E+02 -0.14446094344E+02  0.54367124258E+02  0.40000091371E+02 0.  0.
         12    1    3    3    0    0 -0.55603475421E+01 -0.33409127253E+02  0.14446094344E+02  0.36820875742E+02  0.00000000000E+00 0. -1.
         11    1    4    4    0    0  0.99885178723E+01  0.29462276358E+02 -0.90575381587E+01  0.32401160708E+02  0.51100000000E-03 0. -1.
        -11    1    4    4    0    0 -0.89682987543E+01  0.77988473292E+01 -0.90834147837E+01  0.14958637191E+02  0.51100000000E-03 0.  1.
        -12    1    4    4    0    0  0.45401284241E+01 -0.38519964344E+01  0.36948585982E+01  0.70073263588E+01  0.00000000000E+00 0.  1.
</event>
<event>
 8    1  0.1240174E-006  0.9118800E+02  0.7816164E-02  0.1184000E+00
        -11   -1    0    0    0    0  0.00000000000E+00  0.00000000000E+00  0.45593999997E+02  0.45594000000E+02  0.51100000000E-03 0.  1.
         11   -1    0    0    0    0 -0.00000000000E+00 -0.00000000000E+00 -0.45593999997E+02  0.45594000000E+02  0.51100000000E-03 0. -1.
         23    2    1    2    0    0  0.00000000000E+00 -0.11102230246E-15 -0.35527136788E-14  0.91188000000E+02  0.91188000000E+02 0.  0.
    9900012    2    3    3    0    0  0.27707786063E+02  0.55416154049E+00  0.24243558206E+02  0.54367100799E+02  0.40000037890E+02 0.  0.
         12    1    3    3    0    0 -0.27707786063E+02 -0.55416154049E+00 -0.24243558206E+02  0.36820899201E+02  0.00000000000E+00 0. -1.
         11    1    4    4    0    0  0.38094120454E+01 -0.13756092642E+01  0.10622737767E+02  0.11368662142E+02  0.51100000000E-03 0. -1.
        -11    1    4    4    0    0  0.19477032676E+02  0.87315413985E+00  0.24439507171E+02  0.31263504459E+02  0.51100000000E-03 0.  1.
         12    1    4    4    0    0  0.44213413410E+01  0.10566166649E+01 -0.10818686731E+02  0.11734934198E+02  0.00000000000E+00 0. -1.
</event>
<event>
 8    1  0.1240174E-006  0.9118800E+02  0.7816164E-02  0.1184000E+00
        -11   -1    0    0    0    0  0.00000000000E+00  0.00000000000E+00  0.45593999997E+02  0.45594000000E+02  0.51100000000E-03 0. -1.
         11   -1    0    0    0    0 -0.00000000000E+00 -0.00000000000E+00 -0.45593999997E+02  0.45594000000E+02  0.51100000000E-03 0.  1.
         23    2    1    2    0    0 -0.35527136788E-14 -0.13322676296E-14 -0.35527136788E-14  0.91188000000E+02  0.91188000000E+02 0.  0.
    9900012    2    3    3    0    0 -0.20386995338E+02 -0.27946598760E+01 -0.30534242920E+02  0.54367086195E+02  0.40000004600E+02 0.  0.
         12    1    3    3    0    0  0.20386995338E+02  0.27946598760E+01  0.30534242920E+02  0.36820913805E+02  0.00000000000E+00 0. -1.
         11    1    4    4    0    0 -0.86503496459E+01 -0.41654814171E+01  0.19486839620E+01  0.97967930404E+01  0.51100000000E-03 0.  1.
        -11    1    4    4    0    0 -0.11521947025E+01 -0.96111150897E+01 -0.11830388383E+01  0.97519570884E+01  0.51100000000E-03 0. -1.
        -12    1    4    4    0    0 -0.10584450990E+02  0.10981936631E+02 -0.31299888043E+02  0.34818336066E+02  0.00000000000E+00 0.  1.
</event>
<event>
 8    1  0.1240174E-006  0.9118800E+02  0.7816164E-02  0.1184000E+00
        -11   -1    0    0    0    0  0.00000000000E+00  0.00000000000E+00  0.45593999997E+02  0.45594000000E+02  0.51100000000E-03 0.  1.
         11   -1    0    0    0    0 -0.00000000000E+00 -0.00000000000E+00 -0.45593999997E+02  0.45594000000E+02  0.51100000000E-03 0. -1.
         23    2    1    2    0    0  0.11102230246E-15 -0.35527136788E-14 -0.35527136788E-14  0.91188000000E+02  0.91188000000E+02 0.  0.
    9900012    2    3    3    0    0 -0.69618775651E+00 -0.29115300398E+02 -0.22529835833E+02  0.54367097006E+02  0.40000029244E+02 0.  0.
        -12    1    3    3    0    0  0.69618775651E+00  0.29115300398E+02  0.22529835833E+02  0.36820902994E+02  0.00000000000E+00 0.  1.
         11    1    4    4    0    0  0.10625315163E+02 -0.68659085472E+01 -0.88225874881E+01  0.15423231592E+02  0.51100000000E-03 0.  1.
        -11    1    4    4    0    0 -0.59297740702E+01  0.27879294157E+01 -0.11502425505E+02  0.13237845887E+02  0.51100000000E-03 0. -1.
         12    1    4    4    0    0 -0.53917288493E+01 -0.25037321266E+02 -0.22048228395E+01  0.25706019527E+02  0.00000000000E+00 0. -1.
</event>
<event>
 8    1  0.1240174E-006  0.9118800E+02  0.7816164E-02  0.1184000E+00
        -11   -1    0    0    0    0  0.00000000000E+00  0.00000000000E+00  0.45593999997E+02  0.45594000000E+02  0.51100000000E-03 0.  1.
         11   -1    0    0    0    0 -0.00000000000E+00 -0.00000000000E+00 -0.45593999997E+02  0.45594000000E+02  0.51100000000E-03 0. -1.
         23    2    1    2    0    0  0.35527136788E-14  0.00000000000E+00 -0.71054273576E-14  0.91188000000E+02  0.91188000000E+02 0.  0.
    9900012    2    3    3    0    0  0.24736241260E+02  0.12393870939E+02 -0.24295848168E+02  0.54367110457E+02  0.40000059909E+02 0.  0.
        -12    1    3    3    0    0 -0.24736241260E+02 -0.12393870939E+02  0.24295848168E+02  0.36820889543E+02  0.00000000000E+00 0.  1.
         11    1    4    4    0    0  0.73262013464E+01  0.14118184037E+01  0.81265799152E+00  0.75051229601E+01  0.51100000000E-03 0. -1.
        -11    1    4    4    0    0  0.13512647797E+02  0.44221200396E+01  0.55541522292E+01  0.15264186955E+02  0.51100000000E-03 0.  1.
         12    1    4    4    0    0  0.38973921165E+01  0.65599324957E+01 -0.30662658388E+02  0.31597800542E+02  0.00000000000E+00 0. -1.
</event>
<event>
 8    1  0.1240174E-006  0.9118800E+02  0.7816164E-02  0.1184000E+00
        -11   -1    0    0    0    0  0.00000000000E+00  0.00000000000E+00  0.45593999997E+02  0.45594000000E+02  0.51100000000E-03 0.  1.
         11   -1    0    0    0    0 -0.00000000000E+00 -0.00000000000E+00 -0.45593999997E+02  0.45594000000E+02  0.51100000000E-03 0. -1.
         23    2    1    2    0    0 -0.88817841970E-15  0.00000000000E+00  0.00000000000E+00  0.91188000000E+02  0.91188000000E+02 0.  0.
    9900012    2    3    3    0    0 -0.62160505188E+01 -0.21668729441E+02  0.29113702247E+02  0.54367071465E+02  0.39999971019E+02 0.  0.
         12    1    3    3    0    0  0.62160505188E+01  0.21668729441E+02 -0.29113702247E+02  0.36820928535E+02  0.00000000000E+00 0. -1.
         11    1    4    4    0    0  0.62788970524E+00 -0.12176487318E+02  0.81095589316E+00  0.12219604683E+02  0.51100000000E-03 0. -1.
        -11    1    4    4    0    0 -0.14350005200E+02 -0.99381707547E+00  0.27182251790E+02  0.30753619856E+02  0.51100000000E-03 0.  1.
        -12    1    4    4    0    0  0.75060649757E+01 -0.84984250468E+01  0.11204945643E+01  0.11393846926E+02  0.00000000000E+00 0.  1.
</event>
<event>
 8    1  0.1240174E-006  0.9118800E+02  0.7816164E-02  0.1184000E+00
        -11   -1    0    0    0    0  0.00000000000E+00  0.00000000000E+00  0.45593999997E+02  0.45594000000E+02  0.51100000000E-03 0. -1.
         11   -1    0    0    0    0 -0.00000000000E+00 -0.00000000000E+00 -0.45593999997E+02  0.45594000000E+02  0.51100000000E-03 0.  1.
         23    2    1    2    0    0 -0.35527136788E-14  0.17763568394E-14  0.00000000000E+00  0.91188000000E+02  0.91188000000E+02 0.  0.
    9900012    2    3    3    0    0  0.31805356963E+02 -0.32289016815E+01 -0.18269462778E+02  0.54367084642E+02  0.40000001058E+02 0.  0.
         12    1    3    3    0    0 -0.31805356963E+02  0.32289016815E+01  0.18269462778E+02  0.36820915358E+02  0.00000000000E+00 0. -1.
         11    1    4    4    0    0  0.12514956717E+02  0.57344228783E+01  0.85192449702E+00  0.13792516920E+02  0.51100000000E-03 0. -1.
        -11    1    4    4    0    0  0.11403037174E+02  0.83735314124E+01 -0.83702423412E+00  0.14172010970E+02  0.51100000000E-03 0.  1.
        -12    1    4    4    0    0  0.78873630723E+01 -0.17336855972E+02 -0.18284363041E+02  0.26402556752E+02  0.00000000000E+00 0.  1.
</event>
<event>
 8    1  0.1240174E-006  0.9118800E+02  0.7816164E-02  0.1184000E+00
        -11   -1    0    0    0    0  0.00000000000E+00  0.00000000000E+00  0.45593999997E+02  0.45594000000E+02  0.51100000000E-03 0.  1.
         11   -1    0    0    0    0 -0.00000000000E+00 -0.00000000000E+00 -0.45593999997E+02  0.45594000000E+02  0.51100000000E-03 0. -1.
         23    2    1    2    0    0 -0.88817841970E-15  0.00000000000E+00  0.00000000000E+00  0.91188000000E+02  0.91188000000E+02 0.  0.
    9900012    2    3    3    0    0 -0.62407472728E+01  0.58604990515E+01  0.35811839172E+02  0.54367079309E+02  0.39999988900E+02 0.  0.
         12    1    3    3    0    0  0.62407472728E+01 -0.58604990515E+01 -0.35811839172E+02  0.36820920691E+02  0.00000000000E+00 0. -1.
         11    1    4    4    0    0 -0.35312771728E+01  0.58648365262E+01  0.62286989196E+01  0.92554263242E+01  0.51100000000E-03 0. -1.
        -11    1    4    4    0    0  0.86439794214E+01 -0.34841920397E-01  0.32300807800E+02  0.33437430807E+02  0.51100000000E-03 0.  1.
         12    1    4    4    0    0 -0.11353449521E+02  0.30504445733E-01 -0.27176675470E+01  0.11674222178E+02  0.00000000000E+00 0. -1.
</event>
<event>
 8    1  0.1240174E-006  0.9118800E+02  0.7816164E-02  0.1184000E+00
        -11   -1    0    0    0    0  0.00000000000E+00  0.00000000000E+00  0.45593999997E+02  0.45594000000E+02  0.51100000000E-03 0.  1.
         11   -1    0    0    0    0 -0.00000000000E+00 -0.00000000000E+00 -0.45593999997E+02  0.45594000000E+02  0.51100000000E-03 0. -1.
         23    2    1    2    0    0  0.00000000000E+00 -0.71054273576E-14 -0.17763568394E-14  0.91188000000E+02  0.91188000000E+02 0.  0.
    9900012    2    3    3    0    0  0.24016232653E+02  0.26686796594E+02  0.81740899330E+01  0.54367078100E+02  0.39999986145E+02 0.  0.
        -12    1    3    3    0    0 -0.24016232653E+02 -0.26686796594E+02 -0.81740899330E+01  0.36820921900E+02  0.00000000000E+00 0.  1.
         11    1    4    4    0    0  0.23729830968E+00 -0.96782437270E+00 -0.76186323169E+01  0.76835247865E+01  0.51100000000E-03 0. -1.
        -11    1    4    4    0    0  0.25187344356E+02  0.19361197107E+02  0.37438536378E+01  0.31988665328E+02  0.51100000000E-03 0.  1.
        -12    1    4    4    0    0 -0.14084100125E+01  0.82934238599E+01  0.12048868612E+02  0.14694887986E+02  0.00000000000E+00 0.  1.
</event>
<event>
 8    1  0.1240174E-006  0.9118800E+02  0.7816164E-02  0.1184000E+00
        -11   -1    0    0    0    0  0.00000000000E+00  0.00000000000E+00  0.45593999997E+02  0.45594000000E+02  0.51100000000E-03 0. -1.
         11   -1    0    0    0    0 -0.00000000000E+00 -0.00000000000E+00 -0.45593999997E+02  0.45594000000E+02  0.51100000000E-03 0.  1.
         23    2    1    2    0    0  0.00000000000E+00  0.17763568394E-14  0.00000000000E+00  0.91188000000E+02  0.91188000000E+02 0.  0.
    9900012    2    3    3    0    0 -0.72452378518E+01 -0.99220662854E+01  0.34710799104E+02  0.54367075985E+02  0.39999981322E+02 0.  0.
        -12    1    3    3    0    0  0.72452378518E+01  0.99220662854E+01 -0.34710799104E+02  0.36820924015E+02  0.00000000000E+00 0.  1.
         11    1    4    4    0    0 -0.16761144640E+01  0.20599186372E+01  0.26929506212E+02  0.27060135431E+02  0.51100000000E-03 0. -1.
        -11    1    4    4    0    0 -0.14692101979E+01 -0.26717745639E+01  0.14694349917E+02  0.15007360783E+02  0.51100000000E-03 0.  1.
        -12    1    4    4    0    0 -0.40999131899E+01 -0.93102103587E+01 -0.69130570251E+01  0.12299579770E+02  0.00000000000E+00 0.  1.
</event>
<event>
 8    1  0.1240174E-006  0.9118800E+02  0.7816164E-02  0.1184000E+00
        -11   -1    0    0    0    0  0.00000000000E+00  0.00000000000E+00  0.45593999997E+02  0.45594000000E+02  0.51100000000E-03 0. -1.
         11   -1    0    0    0    0 -0.00000000000E+00 -0.00000000000E+00 -0.45593999997E+02  0.45594000000E+02  0.51100000000E-03 0.  1.
         23    2    1    2    0    0  0.00000000000E+00 -0.35527136788E-14  0.00000000000E+00  0.91188000000E+02  0.91188000000E+02 0.  0.
    9900012    2    3    3    0    0  0.23165077545E+02  0.24469951477E+02 -0.14845214646E+02  0.54367085552E+02  0.40000003132E+02 0.  0.
         12    1    3    3    0    0 -0.23165077545E+02 -0.24469951477E+02  0.14845214646E+02  0.36820914448E+02  0.00000000000E+00 0. -1.
         11    1    4    4    0    0 -0.39889207519E+00 -0.24538491163E+01  0.54750359488E+01  0.60130282949E+01  0.51100000000E-03 0. -1.
        -11    1    4    4    0    0  0.16271925849E+02  0.44361018857E+00 -0.93980916888E+01  0.18796182817E+02  0.51100000000E-03 0.  1.
         12    1    4    4    0    0  0.72920437705E+01  0.26480190405E+02 -0.10922158906E+02  0.29557874440E+02  0.00000000000E+00 0. -1.
</event>
<event>
 8    1  0.1240174E-006  0.9118800E+02  0.7816164E-02  0.1184000E+00
        -11   -1    0    0    0    0  0.00000000000E+00  0.00000000000E+00  0.45593999997E+02  0.45594000000E+02  0.51100000000E-03 0.  1.
         11   -1    0    0    0    0 -0.00000000000E+00 -0.00000000000E+00 -0.45593999997E+02  0.45594000000E+02  0.51100000000E-03 0. -1.
         23    2    1    2    0    0  0.00000000000E+00  0.00000000000E+00  0.00000000000E+00  0.91188000000E+02  0.91188000000E+02 0.  0.
    9900012    2    3    3    0    0 -0.16157528572E+02  0.26176371355E+02 -0.20236376093E+02  0.54367094739E+02  0.40000024076E+02 0.  0.
        -12    1    3    3    0    0  0.16157528572E+02 -0.26176371355E+02  0.20236376093E+02  0.36820905261E+02  0.00000000000E+00 0.  1.
         11    1    4    4    0    0 -0.25035713946E+01 -0.51224986814E+01  0.34413792240E+01  0.66596511691E+01  0.51100000000E-03 0. -1.
        -11    1    4    4    0    0 -0.26162067554E+01  0.36109540636E+01  0.47519023554E+01  0.65164486718E+01  0.51100000000E-03 0.  1.
         12    1    4    4    0    0 -0.11037750422E+02  0.27687915973E+02 -0.28429657673E+02  0.41190994898E+02  0.00000000000E+00 0. -1.
</event>
<event>
 8    1  0.1240174E-006  0.9118800E+02  0.7816164E-02  0.1184000E+00
        -11   -1    0    0    0    0  0.00000000000E+00  0.00000000000E+00  0.45593999997E+02  0.45594000000E+02  0.51100000000E-03 0.  1.
         11   -1    0    0    0    0 -0.00000000000E+00 -0.00000000000E+00 -0.45593999997E+02  0.45594000000E+02  0.51100000000E-03 0. -1.
         23    2    1    2    0    0 -0.35527136788E-14  0.00000000000E+00  0.00000000000E+00  0.91188000000E+02  0.91188000000E+02 0.  0.
    9900012    2    3    3    0    0 -0.27317682382E+02  0.45389702414E+01  0.24267713279E+02  0.54367082991E+02  0.39999997295E+02 0.  0.
         12    1    3    3    0    0  0.27317682382E+02 -0.45389702414E+01 -0.24267713279E+02  0.36820917009E+02  0.00000000000E+00 0. -1.
         11    1    4    4    0    0  0.83339090753E+00 -0.56219723977E+01  0.22859126342E+02  0.23555058298E+02  0.51100000000E-03 0. -1.
        -11    1    4    4    0    0 -0.14509228708E+02  0.15645799274E+01 -0.30708094418E+00  0.14596572441E+02  0.51100000000E-03 0.  1.
         12    1    4    4    0    0 -0.13641844581E+02  0.85963627117E+01  0.17156678810E+01  0.16215452252E+02  0.00000000000E+00 0. -1.
</event>
<event>
 8    1  0.1240174E-006  0.9118800E+02  0.7816164E-02  0.1184000E+00
        -11   -1    0    0    0    0  0.00000000000E+00  0.00000000000E+00  0.45593999997E+02  0.45594000000E+02  0.51100000000E-03 0. -1.
         11   -1    0    0    0    0 -0.00000000000E+00 -0.00000000000E+00 -0.45593999997E+02  0.45594000000E+02  0.51100000000E-03 0.  1.
         23    2    1    2    0    0  0.00000000000E+00  0.71054273576E-14 -0.35527136788E-14  0.91188000000E+02  0.91188000000E+02 0.  0.
    9900012    2    3    3    0    0 -0.18841209360E+02  0.20211005096E+02 -0.24337282989E+02  0.54367092346E+02  0.40000018622E+02 0.  0.
         12    1    3    3    0    0  0.18841209360E+02 -0.20211005096E+02  0.24337282989E+02  0.36820907654E+02  0.00000000000E+00 0. -1.
         11    1    4    4    0    0 -0.63727139401E+01 -0.81906227767E+01  0.31592708533E+01  0.10847984929E+02  0.51100000000E-03 0. -1.
        -11    1    4    4    0    0 -0.14089135200E+02  0.16404967761E+02 -0.17414817586E+02  0.27765132265E+02  0.51100000000E-03 0.  1.
         12    1    4    4    0    0  0.16206397796E+01  0.11996660112E+02 -0.10081736257E+02  0.15753975152E+02  0.00000000000E+00 0. -1.
</event>
<event>
 8    1  0.1240174E-006  0.9118800E+02  0.7816164E-02  0.1184000E+00
        -11   -1    0    0    0    0  0.00000000000E+00  0.00000000000E+00  0.45593999997E+02  0.45594000000E+02  0.51100000000E-03 0. -1.
         11   -1    0    0    0    0 -0.00000000000E+00 -0.00000000000E+00 -0.45593999997E+02  0.45594000000E+02  0.51100000000E-03 0.  1.
         23    2    1    2    0    0  0.00000000000E+00 -0.88817841970E-15  0.00000000000E+00  0.91188000000E+02  0.91188000000E+02 0.  0.
    9900012    2    3    3    0    0 -0.30698573369E+02 -0.45170747571E+01  0.19823577916E+02  0.54367073712E+02  0.39999976142E+02 0.  0.
        -12    1    3    3    0    0  0.30698573369E+02  0.45170747571E+01 -0.19823577916E+02  0.36820926288E+02  0.00000000000E+00 0.  1.
         11    1    4    4    0    0 -0.48722511737E+01  0.85162065353E+01 -0.37244284392E+01  0.10494568724E+02  0.51100000000E-03 0. -1.
        -11    1    4    4    0    0 -0.22171302880E+02 -0.19255071762E+02  0.16046059806E+02  0.33463420260E+02  0.51100000000E-03 0.  1.
         12    1    4    4    0    0 -0.36550193157E+01  0.62217904692E+01  0.75019465491E+01  0.10409084728E+02  0.00000000000E+00 0. -1.
</event>
<event>
 8    1  0.1240174E-006  0.9118800E+02  0.7816164E-02  0.1184000E+00
        -11   -1    0    0    0    0  0.00000000000E+00  0.00000000000E+00  0.45593999997E+02  0.45594000000E+02  0.51100000000E-03 0. -1.
         11   -1    0    0    0    0 -0.00000000000E+00 -0.00000000000E+00 -0.45593999997E+02  0.45594000000E+02  0.51100000000E-03 0.  1.
         23    2    1    2    0    0 -0.44408920985E-15  0.00000000000E+00  0.00000000000E+00  0.91188000000E+02  0.91188000000E+02 0.  0.
    9900012    2    3    3    0    0 -0.32049055627E+01  0.34501370487E+02  0.12456480273E+02  0.54367083581E+02  0.39999998640E+02 0.  0.
        -12    1    3    3    0    0  0.32049055627E+01 -0.34501370487E+02 -0.12456480273E+02  0.36820916419E+02  0.00000000000E+00 0.  1.
         11    1    4    4    0    0 -0.10673473409E+01  0.24936833058E+02  0.15913088637E+02  0.29600865926E+02  0.51100000000E-03 0. -1.
        -11    1    4    4    0    0 -0.22110726120E+01  0.16530943325E+02 -0.54049805898E+01  0.17532106113E+02  0.51100000000E-03 0.  1.
        -12    1    4    4    0    0  0.73514390259E-01 -0.69664058965E+01  0.19483722259E+01  0.72341115426E+01  0.00000000000E+00 0.  1.
</event>
<event>
 8    1  0.1240174E-006  0.9118800E+02  0.7816164E-02  0.1184000E+00
        -11   -1    0    0    0    0  0.00000000000E+00  0.00000000000E+00  0.45593999997E+02  0.45594000000E+02  0.51100000000E-03 0.  1.
         11   -1    0    0    0    0 -0.00000000000E+00 -0.00000000000E+00 -0.45593999997E+02  0.45594000000E+02  0.51100000000E-03 0. -1.
         23    2    1    2    0    0  0.88817841970E-15  0.00000000000E+00  0.00000000000E+00  0.91188000000E+02  0.91188000000E+02 0.  0.
    9900012    2    3    3    0    0 -0.23980123427E+01  0.33011067682E+02  0.16133754438E+02  0.54367094458E+02  0.40000023435E+02 0.  0.
        -12    1    3    3    0    0  0.23980123427E+01 -0.33011067682E+02 -0.16133754438E+02  0.36820905542E+02  0.00000000000E+00 0.  1.
         11    1    4    4    0    0 -0.17658402636E+02  0.22359296075E+02  0.14707924544E+02  0.32063692072E+02  0.51100000000E-03 0. -1.
        -11    1    4    4    0    0  0.68306565713E+01  0.39412222083E+01 -0.53916951899E+01  0.95530874053E+01  0.51100000000E-03 0.  1.
         12    1    4    4    0    0  0.84297337215E+01  0.67105493979E+01  0.68175250839E+01  0.12750314981E+02  0.00000000000E+00 0. -1.
</event>
<event>
 8    1  0.1240174E-006  0.9118800E+02  0.7816164E-02  0.1184000E+00
        -11   -1    0    0    0    0  0.00000000000E+00  0.00000000000E+00  0.45593999997E+02  0.45594000000E+02  0.51100000000E-03 0. -1.
         11   -1    0    0    0    0 -0.00000000000E+00 -0.00000000000E+00 -0.45593999997E+02  0.45594000000E+02  0.51100000000E-03 0.  1.
         23    2    1    2    0    0  0.17763568394E-14  0.00000000000E+00  0.00000000000E+00  0.91188000000E+02  0.91188000000E+02 0.  0.
    9900012    2    3    3    0    0 -0.66822137459E+01 -0.19405919247E+02  0.30570159198E+02  0.54367132061E+02  0.40000109160E+02 0.  0.
        -12    1    3    3    0    0  0.66822137459E+01  0.19405919247E+02 -0.30570159198E+02  0.36820867939E+02  0.00000000000E+00 0.  1.
         11    1    4    4    0    0 -0.68764740573E+01 -0.16519942016E+02  0.10051387536E+02  0.20523761140E+02  0.51100000000E-03 0. -1.
        -11    1    4    4    0    0 -0.11148198185E+02  0.57862464106E+01  0.10870810457E+02  0.16611366306E+02  0.51100000000E-03 0.  1.
        -12    1    4    4    0    0  0.11342458497E+02 -0.86722236419E+01  0.96479612050E+01  0.17232004615E+02  0.00000000000E+00 0.  1.
</event>
<event>
 8    1  0.1240174E-006  0.9118800E+02  0.7816164E-02  0.1184000E+00
        -11   -1    0    0    0    0  0.00000000000E+00  0.00000000000E+00  0.45593999997E+02  0.45594000000E+02  0.51100000000E-03 0.  1.
         11   -1    0    0    0    0 -0.00000000000E+00 -0.00000000000E+00 -0.45593999997E+02  0.45594000000E+02  0.51100000000E-03 0. -1.
         23    2    1    2    0    0  0.88817841970E-15  0.00000000000E+00  0.00000000000E+00  0.91188000000E+02  0.91188000000E+02 0.  0.
    9900012    2    3    3    0    0  0.75756803733E+01 -0.35606139162E+02  0.55310564051E+01  0.54367073014E+02  0.39999974551E+02 0.  0.
         12    1    3    3    0    0 -0.75756803733E+01  0.35606139162E+02 -0.55310564051E+01  0.36820926986E+02  0.00000000000E+00 0. -1.
         11    1    4    4    0    0  0.10818811981E+02 -0.19384434083E+02 -0.48531204340E+01  0.22723462668E+02  0.51100000000E-03 0. -1.
        -11    1    4    4    0    0  0.33146965074E+01 -0.83810628341E+01 -0.70441687537E+01  0.11438957158E+02  0.51100000000E-03 0.  1.
        -12    1    4    4    0    0 -0.65578281147E+01 -0.78406422446E+01  0.17428345593E+02  0.20204653189E+02  0.00000000000E+00 0.  1.
</event>
<event>
 8    1  0.1240174E-006  0.9118800E+02  0.7816164E-02  0.1184000E+00
        -11   -1    0    0    0    0  0.00000000000E+00  0.00000000000E+00  0.45593999997E+02  0.45594000000E+02  0.51100000000E-03 0.  1.
         11   -1    0    0    0    0 -0.00000000000E+00 -0.00000000000E+00 -0.45593999997E+02  0.45594000000E+02  0.51100000000E-03 0. -1.
         23    2    1    2    0    0  0.00000000000E+00 -0.35527136788E-14  0.17763568394E-14  0.91188000000E+02  0.91188000000E+02 0.  0.
    9900012    2    3    3    0    0 -0.29327481065E+02 -0.19857688637E+02  0.10067287318E+02  0.54367092657E+02  0.40000019331E+02 0.  0.
         12    1    3    3    0    0  0.29327481065E+02  0.19857688637E+02 -0.10067287318E+02  0.36820907343E+02  0.00000000000E+00 0. -1.
         11    1    4    4    0    0 -0.13558235170E+02 -0.12340951225E+02  0.17768947985E+02  0.25531555590E+02  0.51100000000E-03 0.  1.
        -11    1    4    4    0    0 -0.18536448427E+02 -0.76867512004E-01 -0.92994423242E+01  0.20738501795E+02  0.51100000000E-03 0. -1.
        -12    1    4    4    0    0  0.27672025323E+01 -0.74398698995E+01  0.15977816567E+01  0.80970352722E+01  0.00000000000E+00 0.  1.
</event>
<event>
 8    1  0.1240174E-006  0.9118800E+02  0.7816164E-02  0.1184000E+00
        -11   -1    0    0    0    0  0.00000000000E+00  0.00000000000E+00  0.45593999997E+02  0.45594000000E+02  0.51100000000E-03 0. -1.
         11   -1    0    0    0    0 -0.00000000000E+00 -0.00000000000E+00 -0.45593999997E+02  0.45594000000E+02  0.51100000000E-03 0.  1.
         23    2    1    2    0    0  0.17763568394E-14 -0.35527136788E-14  0.35527136788E-14  0.91188000000E+02  0.91188000000E+02 0.  0.
    9900012    2    3    3    0    0 -0.15289846608E+02  0.26291942663E+02  0.20754123936E+02  0.54367091284E+02  0.40000016201E+02 0.  0.
        -12    1    3    3    0    0  0.15289846608E+02 -0.26291942663E+02 -0.20754123936E+02  0.36820908716E+02  0.00000000000E+00 0.  1.
         11    1    4    4    0    0 -0.10240637810E+02  0.26130726938E+02  0.24993892401E+02  0.37581647259E+02  0.51100000000E-03 0.  1.
        -11    1    4    4    0    0 -0.77118969575E+01  0.55934205896E+01 -0.23381339609E+00  0.95296577872E+01  0.51100000000E-03 0. -1.
        -12    1    4    4    0    0  0.26626881593E+01 -0.54322048645E+01 -0.40059550690E+01  0.72557862385E+01  0.00000000000E+00 0.  1.
</event>
<event>
 8    1  0.1240174E-006  0.9118800E+02  0.7816164E-02  0.1184000E+00
        -11   -1    0    0    0    0  0.00000000000E+00  0.00000000000E+00  0.45593999997E+02  0.45594000000E+02  0.51100000000E-03 0.  1.
         11   -1    0    0    0    0 -0.00000000000E+00 -0.00000000000E+00 -0.45593999997E+02  0.45594000000E+02  0.51100000000E-03 0. -1.
         23    2    1    2    0    0  0.00000000000E+00  0.00000000000E+00  0.00000000000E+00  0.91188000000E+02  0.91188000000E+02 0.  0.
    9900012    2    3    3    0    0 -0.60100439724E+01  0.97309545181E+01 -0.34999558309E+02  0.54367065924E+02  0.39999958388E+02 0.  0.
        -12    1    3    3    0    0  0.60100439724E+01 -0.97309545181E+01  0.34999558309E+02  0.36820934076E+02  0.00000000000E+00 0.  1.
         11    1    4    4    0    0 -0.46677977664E+01 -0.33618341109E+01 -0.24361318287E+02  0.25031262324E+02  0.51100000000E-03 0. -1.
        -11    1    4    4    0    0  0.26579864412E+01 -0.63530584057E+01 -0.16282602065E+00  0.68885960545E+01  0.51100000000E-03 0.  1.
         12    1    4    4    0    0 -0.40002326473E+01  0.19445847035E+02 -0.10475414001E+02  0.22447207546E+02  0.00000000000E+00 0. -1.
</event>
<event>
 8    1  0.1240174E-006  0.9118800E+02  0.7816164E-02  0.1184000E+00
        -11   -1    0    0    0    0  0.00000000000E+00  0.00000000000E+00  0.45593999997E+02  0.45594000000E+02  0.51100000000E-03 0.  1.
         11   -1    0    0    0    0 -0.00000000000E+00 -0.00000000000E+00 -0.45593999997E+02  0.45594000000E+02  0.51100000000E-03 0. -1.
         23    2    1    2    0    0  0.17763568394E-14 -0.17763568394E-14  0.00000000000E+00  0.91188000000E+02  0.91188000000E+02 0.  0.
    9900012    2    3    3    0    0  0.13423140791E+02 -0.14755055813E+02  0.30949754081E+02  0.54367086671E+02  0.40000005683E+02 0.  0.
         12    1    3    3    0    0 -0.13423140791E+02  0.14755055813E+02 -0.30949754081E+02  0.36820913329E+02  0.00000000000E+00 0. -1.
         11    1    4    4    0    0 -0.13521461158E+01 -0.46395530840E+01  0.55476606342E+01  0.73573290474E+01  0.51100000000E-03 0. -1.
        -11    1    4    4    0    0  0.22182369109E+02 -0.14250095841E+02  0.27679298282E+02  0.38226512847E+02  0.51100000000E-03 0.  1.
        -12    1    4    4    0    0 -0.74070822021E+01  0.41345931115E+01 -0.22772048358E+01  0.87832447769E+01  0.00000000000E+00 0.  1.
</event>
<event>
 8    1  0.1240174E-006  0.9118800E+02  0.7816164E-02  0.1184000E+00
        -11   -1    0    0    0    0  0.00000000000E+00  0.00000000000E+00  0.45593999997E+02  0.45594000000E+02  0.51100000000E-03 0.  1.
         11   -1    0    0    0    0 -0.00000000000E+00 -0.00000000000E+00 -0.45593999997E+02  0.45594000000E+02  0.51100000000E-03 0. -1.
         23    2    1    2    0    0 -0.35527136788E-14  0.71054273576E-14  0.88817841970E-15  0.91188000000E+02  0.91188000000E+02 0.  0.
    9900012    2    3    3    0    0  0.28834467699E+02 -0.22692060828E+02  0.30697776859E+01  0.54367086280E+02  0.40000004793E+02 0.  0.
         12    1    3    3    0    0 -0.28834467699E+02  0.22692060828E+02 -0.30697776859E+01  0.36820913720E+02  0.00000000000E+00 0. -1.
         11    1    4    4    0    0  0.18782265930E+02 -0.92825301724E+01 -0.84995208947E+01  0.22609306393E+02  0.51100000000E-03 0. -1.
        -11    1    4    4    0    0 -0.12439769389E+01 -0.30699811722E+00  0.14201309587E+02  0.14258994379E+02  0.51100000000E-03 0.  1.
        -12    1    4    4    0    0  0.11296178708E+02 -0.13102532539E+02 -0.26320110063E+01  0.17498785508E+02  0.00000000000E+00 0.  1.
</event>
<event>
 8    1  0.1240174E-006  0.9118800E+02  0.7816164E-02  0.1184000E+00
        -11   -1    0    0    0    0  0.00000000000E+00  0.00000000000E+00  0.45593999997E+02  0.45594000000E+02  0.51100000000E-03 0. -1.
         11   -1    0    0    0    0 -0.00000000000E+00 -0.00000000000E+00 -0.45593999997E+02  0.45594000000E+02  0.51100000000E-03 0.  1.
         23    2    1    2    0    0  0.00000000000E+00  0.35527136788E-14  0.00000000000E+00  0.91188000000E+02  0.91188000000E+02 0.  0.
    9900012    2    3    3    0    0 -0.18146719650E+02 -0.22231227222E+02  0.23070384169E+02  0.54367169977E+02  0.40000195597E+02 0.  0.
        -12    1    3    3    0    0  0.18146719650E+02  0.22231227222E+02 -0.23070384169E+02  0.36820830023E+02  0.00000000000E+00 0.  1.
         11    1    4    4    0    0 -0.12562725282E+02 -0.19537630812E+02 -0.16940331890E+01  0.23289715176E+02  0.51100000000E-03 0. -1.
        -11    1    4    4    0    0  0.32670933255E+00 -0.23338776114E+01 -0.23475318493E+01  0.33263538203E+01  0.51100000000E-03 0.  1.
         12    1    4    4    0    0 -0.59107037000E+01 -0.35971879866E+00  0.27111949208E+02  0.27751100981E+02  0.00000000000E+00 0. -1.
</event>
<event>
 8    1  0.1240174E-006  0.9118800E+02  0.7816164E-02  0.1184000E+00
        -11   -1    0    0    0    0  0.00000000000E+00  0.00000000000E+00  0.45593999997E+02  0.45594000000E+02  0.51100000000E-03 0.  1.
         11   -1    0    0    0    0 -0.00000000000E+00 -0.00000000000E+00 -0.45593999997E+02  0.45594000000E+02  0.51100000000E-03 0. -1.
         23    2    1    2    0    0  0.00000000000E+00 -0.69735883734E-15  0.71054273576E-14  0.91188000000E+02  0.91188000000E+02 0.  0.
    9900012    2    3    3    0    0 -0.20889681821E+02 -0.30930891020E-01  0.30321592951E+02  0.54367098837E+02  0.40000033420E+02 0.  0.
         12    1    3    3    0    0  0.20889681821E+02  0.30930891020E-01 -0.30321592951E+02  0.36820901163E+02  0.00000000000E+00 0. -1.
         11    1    4    4    0    0 -0.10462778165E+02  0.63941338428E+01 -0.54692907139E+01  0.13426385057E+02  0.51100000000E-03 0. -1.
        -11    1    4    4    0    0 -0.14104744991E+02 -0.31261599887E+01  0.22271620086E+02  0.26546972880E+02  0.51100000000E-03 0.  1.
         12    1    4    4    0    0  0.36778413347E+01 -0.32989047451E+01  0.13519263579E+02  0.14393740901E+02  0.00000000000E+00 0. -1.
</event>
<event>
 8    1  0.1240174E-006  0.9118800E+02  0.7816164E-02  0.1184000E+00
        -11   -1    0    0    0    0  0.00000000000E+00  0.00000000000E+00  0.45593999997E+02  0.45594000000E+02  0.51100000000E-03 0.  1.
         11   -1    0    0    0    0 -0.00000000000E+00 -0.00000000000E+00 -0.45593999997E+02  0.45594000000E+02  0.51100000000E-03 0. -1.
         23    2    1    2    0    0  0.00000000000E+00  0.35527136788E-14 -0.35527136788E-14  0.91188000000E+02  0.91188000000E+02 0.  0.
    9900012    2    3    3    0    0  0.37529236049E+01 -0.23434077430E+02  0.28152084929E+02  0.54367077871E+02  0.39999985623E+02 0.  0.
         12    1    3    3    0    0 -0.37529236049E+01  0.23434077430E+02 -0.28152084929E+02  0.36820922129E+02  0.00000000000E+00 0. -1.
         11    1    4    4    0    0 -0.50101993853E+01 -0.18484058103E+00  0.33178972772E+01  0.60120467833E+01  0.51100000000E-03 0. -1.
        -11    1    4    4    0    0  0.19841726734E+02 -0.12275818197E+02  0.22812386535E+02  0.32631193847E+02  0.51100000000E-03 0.  1.
         12    1    4    4    0    0 -0.11078603744E+02 -0.10973418652E+02  0.20218011169E+01  0.15723837241E+02  0.00000000000E+00 0. -1.
</event>
<event>
 8    1  0.1240174E-006  0.9118800E+02  0.7816164E-02  0.1184000E+00
        -11   -1    0    0    0    0  0.00000000000E+00  0.00000000000E+00  0.45593999997E+02  0.45594000000E+02  0.51100000000E-03 0.  1.
         11   -1    0    0    0    0 -0.00000000000E+00 -0.00000000000E+00 -0.45593999997E+02  0.45594000000E+02  0.51100000000E-03 0. -1.
         23    2    1    2    0    0  0.17763568394E-14  0.00000000000E+00 -0.35527136788E-14  0.91188000000E+02  0.91188000000E+02 0.  0.
    9900012    2    3    3    0    0  0.66528955485E+01  0.18911454437E+02 -0.30884884627E+02  0.54367078956E+02  0.39999988096E+02 0.  0.
        -12    1    3    3    0    0 -0.66528955485E+01 -0.18911454437E+02  0.30884884627E+02  0.36820921044E+02  0.00000000000E+00 0.  1.
         11    1    4    4    0    0 -0.54727200018E+01  0.13896927683E+02 -0.92605713135E+01  0.17573657689E+02  0.51100000000E-03 0. -1.
        -11    1    4    4    0    0 -0.48022541431E+01  0.22408177065E+01  0.35151988973E+01  0.63592084726E+01  0.51100000000E-03 0.  1.
         12    1    4    4    0    0  0.16927869693E+02  0.27737090471E+01 -0.25139512211E+02  0.30434212795E+02  0.00000000000E+00 0. -1.
</event>
<event>
 8    1  0.1240174E-006  0.9118800E+02  0.7816164E-02  0.1184000E+00
        -11   -1    0    0    0    0  0.00000000000E+00  0.00000000000E+00  0.45593999997E+02  0.45594000000E+02  0.51100000000E-03 0.  1.
         11   -1    0    0    0    0 -0.00000000000E+00 -0.00000000000E+00 -0.45593999997E+02  0.45594000000E+02  0.51100000000E-03 0. -1.
         23    2    1    2    0    0  0.35527136788E-14  0.00000000000E+00  0.00000000000E+00  0.91188000000E+02  0.91188000000E+02 0.  0.
    9900012    2    3    3    0    0 -0.23339145361E+02 -0.20968739813E+02 -0.19271119991E+02  0.54367084459E+02  0.40000000642E+02 0.  0.
        -12    1    3    3    0    0  0.23339145361E+02  0.20968739813E+02  0.19271119991E+02  0.36820915541E+02  0.00000000000E+00 0.  1.
         11    1    4    4    0    0 -0.40729098456E+01 -0.11988407246E+02 -0.98677409298E+01  0.16052501806E+02  0.51100000000E-03 0. -1.
        -11    1    4    4    0    0  0.27079207987E+01  0.77150440519E+01 -0.67269076601E+01  0.10588013350E+02  0.51100000000E-03 0.  1.
        -12    1    4    4    0    0 -0.21974156314E+02 -0.16695376619E+02 -0.26764714015E+01  0.27726569303E+02  0.00000000000E+00 0.  1.
</event>
<event>
 8    1  0.1240174E-006  0.9118800E+02  0.7816164E-02  0.1184000E+00
        -11   -1    0    0    0    0  0.00000000000E+00  0.00000000000E+00  0.45593999997E+02  0.45594000000E+02  0.51100000000E-03 0. -1.
         11   -1    0    0    0    0 -0.00000000000E+00 -0.00000000000E+00 -0.45593999997E+02  0.45594000000E+02  0.51100000000E-03 0.  1.
         23    2    1    2    0    0 -0.35527136788E-14  0.00000000000E+00  0.35527136788E-14  0.91188000000E+02  0.91188000000E+02 0.  0.
    9900012    2    3    3    0    0  0.27385712795E+02 -0.17801933331E+02  0.16996868384E+02  0.54367087050E+02  0.40000006548E+02 0.  0.
         12    1    3    3    0    0 -0.27385712795E+02  0.17801933331E+02 -0.16996868384E+02  0.36820912950E+02  0.00000000000E+00 0. -1.
         11    1    4    4    0    0  0.91471154353E+01  0.11244723096E+01  0.20509582421E+02  0.22485042363E+02  0.51100000000E-03 0. -1.
        -11    1    4    4    0    0 -0.55538821034E+00  0.28172752959E+01  0.31211372550E+00  0.28884098386E+01  0.51100000000E-03 0.  1.
         12    1    4    4    0    0  0.18793985570E+02 -0.21743680937E+02 -0.38248277619E+01  0.28993634848E+02  0.00000000000E+00 0. -1.
</event>
<event>
 8    1  0.1240174E-006  0.9118800E+02  0.7816164E-02  0.1184000E+00
        -11   -1    0    0    0    0  0.00000000000E+00  0.00000000000E+00  0.45593999997E+02  0.45594000000E+02  0.51100000000E-03 0.  1.
         11   -1    0    0    0    0 -0.00000000000E+00 -0.00000000000E+00 -0.45593999997E+02  0.45594000000E+02  0.51100000000E-03 0. -1.
         23    2    1    2    0    0 -0.44408920985E-15  0.71054273576E-14  0.35527136788E-14  0.91188000000E+02  0.91188000000E+02 0.  0.
    9900012    2    3    3    0    0  0.16288998155E+01  0.32134238241E+02  0.17902976933E+02  0.54367093371E+02  0.40000020957E+02 0.  0.
         12    1    3    3    0    0 -0.16288998155E+01 -0.32134238241E+02 -0.17902976933E+02  0.36820906629E+02  0.00000000000E+00 0. -1.
         11    1    4    4    0    0  0.12183776932E+02 -0.48842246485E+00  0.13439195328E+01  0.12267399757E+02  0.51100000000E-03 0. -1.
        -11    1    4    4    0    0  0.43357934470E+01  0.14997045344E+02  0.73717211845E+01  0.17264204220E+02  0.51100000000E-03 0.  1.
        -12    1    4    4    0    0 -0.14890670563E+02  0.17625615361E+02  0.91873362160E+01  0.24835489394E+02  0.00000000000E+00 0.  1.
</event>
<event>
 8    1  0.1240174E-006  0.9118800E+02  0.7816164E-02  0.1184000E+00
        -11   -1    0    0    0    0  0.00000000000E+00  0.00000000000E+00  0.45593999997E+02  0.45594000000E+02  0.51100000000E-03 0.  1.
         11   -1    0    0    0    0 -0.00000000000E+00 -0.00000000000E+00 -0.45593999997E+02  0.45594000000E+02  0.51100000000E-03 0. -1.
         23    2    1    2    0    0 -0.88817841970E-15  0.00000000000E+00  0.00000000000E+00  0.91188000000E+02  0.91188000000E+02 0.  0.
    9900012    2    3    3    0    0 -0.41766163120E+01 -0.34853972198E+02  0.11114730625E+02  0.54367072001E+02  0.39999972241E+02 0.  0.
         12    1    3    3    0    0  0.41766163120E+01  0.34853972198E+02 -0.11114730625E+02  0.36820927999E+02  0.00000000000E+00 0. -1.
         11    1    4    4    0    0 -0.92286001960E+01 -0.38013718428E+01  0.44894155782E+01  0.10944055097E+02  0.51100000000E-03 0. -1.
        -11    1    4    4    0    0  0.64232715331E+01 -0.36078428039E+02  0.24157927698E+01  0.36725297030E+02  0.51100000000E-03 0.  1.
         12    1    4    4    0    0 -0.13712876491E+01  0.50258276834E+01  0.42095222769E+01  0.66977198746E+01  0.00000000000E+00 0. -1.
</event>
<event>
 8    1  0.1240174E-006  0.9118800E+02  0.7816164E-02  0.1184000E+00
        -11   -1    0    0    0    0  0.00000000000E+00  0.00000000000E+00  0.45593999997E+02  0.45594000000E+02  0.51100000000E-03 0.  1.
         11   -1    0    0    0    0 -0.00000000000E+00 -0.00000000000E+00 -0.45593999997E+02  0.45594000000E+02  0.51100000000E-03 0. -1.
         23    2    1    2    0    0 -0.17763568394E-14  0.00000000000E+00  0.00000000000E+00  0.91188000000E+02  0.91188000000E+02 0.  0.
    9900012    2    3    3    0    0  0.13126080765E+02  0.14204777244E+02 -0.31332266285E+02  0.54367073839E+02  0.39999976431E+02 0.  0.
        -12    1    3    3    0    0 -0.13126080765E+02 -0.14204777244E+02  0.31332266285E+02  0.36820926161E+02  0.00000000000E+00 0.  1.
         11    1    4    4    0    0  0.14339397165E+02  0.11273819757E+02 -0.23379916635E+02  0.29653630892E+02  0.51100000000E-03 0. -1.
        -11    1    4    4    0    0  0.56714958842E+01 -0.64940777188E+01  0.25719530389E+01  0.89974359502E+01  0.51100000000E-03 0.  1.
         12    1    4    4    0    0 -0.68848122844E+01  0.94250352065E+01 -0.10524302689E+02  0.15716006997E+02  0.00000000000E+00 0. -1.
</event>
<event>
 8    1  0.1240174E-006  0.9118800E+02  0.7816164E-02  0.1184000E+00
        -11   -1    0    0    0    0  0.00000000000E+00  0.00000000000E+00  0.45593999997E+02  0.45594000000E+02  0.51100000000E-03 0.  1.
         11   -1    0    0    0    0 -0.00000000000E+00 -0.00000000000E+00 -0.45593999997E+02  0.45594000000E+02  0.51100000000E-03 0. -1.
         23    2    1    2    0    0 -0.11102230246E-15  0.00000000000E+00  0.00000000000E+00  0.91188000000E+02  0.91188000000E+02 0.  0.
    9900012    2    3    3    0    0  0.87788142332E-02  0.17156575049E+02  0.32579632644E+02  0.54367073780E+02  0.39999976297E+02 0.  0.
         12    1    3    3    0    0 -0.87788142332E-02 -0.17156575049E+02 -0.32579632644E+02  0.36820926220E+02  0.00000000000E+00 0. -1.
         11    1    4    4    0    0 -0.47931741721E+01  0.42695133698E+01  0.16982873246E+01  0.66398375852E+01  0.51100000000E-03 0. -1.
        -11    1    4    4    0    0 -0.89050705965E+01  0.33427469407E+01 -0.29824023296E+01  0.99683982342E+01  0.51100000000E-03 0.  1.
        -12    1    4    4    0    0  0.13707023583E+02  0.95443147389E+01  0.33863747649E+02  0.37758837961E+02  0.00000000000E+00 0.  1.
</event>
<event>
 8    1  0.1240174E-006  0.9118800E+02  0.7816164E-02  0.1184000E+00
        -11   -1    0    0    0    0  0.00000000000E+00  0.00000000000E+00  0.45593999997E+02  0.45594000000E+02  0.51100000000E-03 0.  1.
         11   -1    0    0    0    0 -0.00000000000E+00 -0.00000000000E+00 -0.45593999997E+02  0.45594000000E+02  0.51100000000E-03 0. -1.
         23    2    1    2    0    0  0.00000000000E+00  0.00000000000E+00  0.00000000000E+00  0.91188000000E+02  0.91188000000E+02 0.  0.
    9900012    2    3    3    0    0  0.24094885629E+02  0.79642664463E+01 -0.26679411788E+02  0.54367026807E+02  0.39999869213E+02 0.  0.
        -12    1    3    3    0    0 -0.24094885629E+02 -0.79642664463E+01  0.26679411788E+02  0.36820973193E+02  0.00000000000E+00 0.  1.
         11    1    4    4    0    0 -0.69932569525E+01  0.21039902317E+01 -0.51215347497E+01  0.89197834140E+01  0.51100000000E-03 0. -1.
        -11    1    4    4    0    0  0.47191032392E+01  0.11608336984E+02 -0.36266427847E+01  0.13045150864E+02  0.51100000000E-03 0.  1.
        -12    1    4    4    0    0  0.26369039342E+02 -0.57480607693E+01 -0.17931234253E+02  0.32402092530E+02  0.00000000000E+00 0.  1.
</event>
<event>
 8    1  0.1240174E-006  0.9118800E+02  0.7816164E-02  0.1184000E+00
        -11   -1    0    0    0    0  0.00000000000E+00  0.00000000000E+00  0.45593999997E+02  0.45594000000E+02  0.51100000000E-03 0.  1.
         11   -1    0    0    0    0 -0.00000000000E+00 -0.00000000000E+00 -0.45593999997E+02  0.45594000000E+02  0.51100000000E-03 0. -1.
         23    2    1    2    0    0  0.00000000000E+00 -0.35527136788E-14  0.35527136788E-14  0.91188000000E+02  0.91188000000E+02 0.  0.
    9900012    2    3    3    0    0 -0.20187910915E+02 -0.24394973461E+02  0.18791319798E+02  0.54367079628E+02  0.39999989627E+02 0.  0.
        -12    1    3    3    0    0  0.20187910915E+02  0.24394973461E+02 -0.18791319798E+02  0.36820920372E+02  0.00000000000E+00 0.  1.
         11    1    4    4    0    0 -0.12565155478E+02 -0.59004168784E+01  0.46986607528E+01  0.14655219707E+02  0.51100000000E-03 0. -1.
        -11    1    4    4    0    0 -0.47515859299E+01  0.23705337123E+01 -0.77333020022E+01  0.93808826370E+01  0.51100000000E-03 0.  1.
         12    1    4    4    0    0 -0.28711695079E+01 -0.20865090295E+02  0.21825961048E+02  0.30330977284E+02  0.00000000000E+00 0. -1.
</event>
<event>
 8    1  0.1240174E-006  0.9118800E+02  0.7816164E-02  0.1184000E+00
        -11   -1    0    0    0    0  0.00000000000E+00  0.00000000000E+00  0.45593999997E+02  0.45594000000E+02  0.51100000000E-03 0.  1.
         11   -1    0    0    0    0 -0.00000000000E+00 -0.00000000000E+00 -0.45593999997E+02  0.45594000000E+02  0.51100000000E-03 0. -1.
         23    2    1    2    0    0  0.88817841970E-15 -0.71054273576E-14 -0.13877787808E-15  0.91188000000E+02  0.91188000000E+02 0.  0.
    9900012    2    3    3    0    0 -0.69459554058E+01 -0.36159614067E+02 -0.12664244348E+00  0.54367081702E+02  0.39999994356E+02 0.  0.
         12    1    3    3    0    0  0.69459554058E+01  0.36159614067E+02  0.12664244348E+00  0.36820918298E+02  0.00000000000E+00 0. -1.
         11    1    4    4    0    0  0.19223273429E+01 -0.16595948434E+01  0.72242800711E+01  0.76576641519E+01  0.51100000000E-03 0. -1.
        -11    1    4    4    0    0  0.85470444390E+01 -0.26931639678E+01  0.21649821692E+01  0.92191240828E+01  0.51100000000E-03 0.  1.
         12    1    4    4    0    0 -0.17415327188E+02 -0.31806855256E+02 -0.95159046838E+01  0.37490293467E+02  0.00000000000E+00 0. -1.
</event>
<event>
 8    1  0.1240174E-006  0.9118800E+02  0.7816164E-02  0.1184000E+00
        -11   -1    0    0    0    0  0.00000000000E+00  0.00000000000E+00  0.45593999997E+02  0.45594000000E+02  0.51100000000E-03 0.  1.
         11   -1    0    0    0    0 -0.00000000000E+00 -0.00000000000E+00 -0.45593999997E+02  0.45594000000E+02  0.51100000000E-03 0. -1.
         23    2    1    2    0    0  0.35527136788E-14  0.00000000000E+00  0.00000000000E+00  0.91188000000E+02  0.91188000000E+02 0.  0.
    9900012    2    3    3    0    0  0.17907742618E+02  0.27197982793E+02 -0.17186123803E+02  0.54367077074E+02  0.39999983807E+02 0.  0.
        -12    1    3    3    0    0 -0.17907742618E+02 -0.27197982793E+02  0.17186123803E+02  0.36820922926E+02  0.00000000000E+00 0.  1.
         11    1    4    4    0    0  0.11133743044E+02  0.12715061263E+02 -0.37618060042E+01  0.17314277397E+02  0.51100000000E-03 0. -1.
        -11    1    4    4    0    0  0.45451030608E+01  0.14570466563E+02  0.67976225124E+01  0.16708205463E+02  0.51100000000E-03 0.  1.
         12    1    4    4    0    0  0.22288965127E+01 -0.87545032970E-01 -0.20221940312E+02  0.20344594215E+02  0.00000000000E+00 0. -1.
</event>
<event>
 8    1  0.1240174E-006  0.9118800E+02  0.7816164E-02  0.1184000E+00
        -11   -1    0    0    0    0  0.00000000000E+00  0.00000000000E+00  0.45593999997E+02  0.45594000000E+02  0.51100000000E-03 0.  1.
         11   -1    0    0    0    0 -0.00000000000E+00 -0.00000000000E+00 -0.45593999997E+02  0.45594000000E+02  0.51100000000E-03 0. -1.
         23    2    1    2    0    0 -0.44408920985E-15  0.00000000000E+00  0.00000000000E+00  0.91188000000E+02  0.91188000000E+02 0.  0.
    9900012    2    3    3    0    0 -0.34255043409E+01  0.30273253965E+02 -0.20677893420E+02  0.54367092054E+02  0.40000017957E+02 0.  0.
        -12    1    3    3    0    0  0.34255043409E+01 -0.30273253965E+02  0.20677893420E+02  0.36820907946E+02  0.00000000000E+00 0.  1.
         11    1    4    4    0    0 -0.63583546154E+01  0.15389854135E+02 -0.22003878503E+02  0.27594328279E+02  0.51100000000E-03 0. -1.
        -11    1    4    4    0    0 -0.85236209598E+01  0.18599696465E+01 -0.23649987028E+01  0.90390718815E+01  0.51100000000E-03 0.  1.
         12    1    4    4    0    0  0.11456471234E+02  0.13023430184E+02  0.36909837858E+01  0.17733691894E+02  0.00000000000E+00 0. -1.
</event>
<event>
 8    1  0.1240174E-006  0.9118800E+02  0.7816164E-02  0.1184000E+00
        -11   -1    0    0    0    0  0.00000000000E+00  0.00000000000E+00  0.45593999997E+02  0.45594000000E+02  0.51100000000E-03 0. -1.
         11   -1    0    0    0    0 -0.00000000000E+00 -0.00000000000E+00 -0.45593999997E+02  0.45594000000E+02  0.51100000000E-03 0.  1.
         23    2    1    2    0    0  0.00000000000E+00 -0.13322676296E-14  0.35527136788E-14  0.91188000000E+02  0.91188000000E+02 0.  0.
    9900012    2    3    3    0    0 -0.31916792379E+02 -0.35923085610E+01  0.18005188806E+02  0.54367175179E+02  0.40000207455E+02 0.  0.
        -12    1    3    3    0    0  0.31916792379E+02  0.35923085610E+01 -0.18005188806E+02  0.36820824821E+02  0.00000000000E+00 0.  1.
         11    1    4    4    0    0 -0.10492068970E+02 -0.60713028332E+01  0.79421730755E+01  0.14492147625E+02  0.51100000000E-03 0. -1.
        -11    1    4    4    0    0 -0.95934092667E+01 -0.12393565340E+02 -0.40686135932E+01  0.16192207386E+02  0.51100000000E-03 0.  1.
         12    1    4    4    0    0 -0.11831314142E+02  0.14872559612E+02  0.14131629324E+02  0.23682820168E+02  0.00000000000E+00 0. -1.
</event>
<event>
 8    1  0.1240174E-006  0.9118800E+02  0.7816164E-02  0.1184000E+00
        -11   -1    0    0    0    0  0.00000000000E+00  0.00000000000E+00  0.45593999997E+02  0.45594000000E+02  0.51100000000E-03 0.  1.
         11   -1    0    0    0    0 -0.00000000000E+00 -0.00000000000E+00 -0.45593999997E+02  0.45594000000E+02  0.51100000000E-03 0. -1.
         23    2    1    2    0    0  0.00000000000E+00  0.35527136788E-14  0.00000000000E+00  0.91188000000E+02  0.91188000000E+02 0.  0.
    9900012    2    3    3    0    0 -0.19503878612E+02 -0.25814657887E+02 -0.17577836118E+02  0.54367106945E+02  0.40000051903E+02 0.  0.
         12    1    3    3    0    0  0.19503878612E+02  0.25814657887E+02  0.17577836118E+02  0.36820893055E+02  0.00000000000E+00 0. -1.
         11    1    4    4    0    0  0.11476871242E+01  0.73689403301E+01 -0.85977315641E+01  0.11381540126E+02  0.51100000000E-03 0. -1.
        -11    1    4    4    0    0 -0.64345659750E+01 -0.51905558603E+01  0.37862161448E+01  0.90929061571E+01  0.51100000000E-03 0.  1.
         12    1    4    4    0    0 -0.14216999761E+02 -0.27993042357E+02 -0.12766320699E+02  0.33892660663E+02  0.00000000000E+00 0. -1.
</event>
<event>
 8    1  0.1240174E-006  0.9118800E+02  0.7816164E-02  0.1184000E+00
        -11   -1    0    0    0    0  0.00000000000E+00  0.00000000000E+00  0.45593999997E+02  0.45594000000E+02  0.51100000000E-03 0.  1.
         11   -1    0    0    0    0 -0.00000000000E+00 -0.00000000000E+00 -0.45593999997E+02  0.45594000000E+02  0.51100000000E-03 0. -1.
         23    2    1    2    0    0 -0.17763568394E-14  0.00000000000E+00  0.00000000000E+00  0.91188000000E+02  0.91188000000E+02 0.  0.
    9900012    2    3    3    0    0 -0.86862385784E+01 -0.23241635264E+02  0.27205764369E+02  0.54367109662E+02  0.40000058095E+02 0.  0.
        -12    1    3    3    0    0  0.86862385784E+01  0.23241635264E+02 -0.27205764369E+02  0.36820890338E+02  0.00000000000E+00 0.  1.
         11    1    4    4    0    0 -0.19592599462E+02 -0.18917454379E+01  0.60490017749E+01  0.20592209139E+02  0.51100000000E-03 0. -1.
        -11    1    4    4    0    0  0.88769955676E+01 -0.20957862847E+02  0.21893165319E+02  0.31580749728E+02  0.51100000000E-03 0.  1.
        -12    1    4    4    0    0  0.20293653161E+01 -0.39202697899E+00 -0.73640272433E+00  0.21941507949E+01  0.00000000000E+00 0.  1.
</event>
<event>
 8    1  0.1240174E-006  0.9118800E+02  0.7816164E-02  0.1184000E+00
        -11   -1    0    0    0    0  0.00000000000E+00  0.00000000000E+00  0.45593999997E+02  0.45594000000E+02  0.51100000000E-03 0.  1.
         11   -1    0    0    0    0 -0.00000000000E+00 -0.00000000000E+00 -0.45593999997E+02  0.45594000000E+02  0.51100000000E-03 0. -1.
         23    2    1    2    0    0 -0.35527136788E-14  0.00000000000E+00  0.00000000000E+00  0.91188000000E+02  0.91188000000E+02 0.  0.
    9900012    2    3    3    0    0  0.24698897092E+02  0.18200628825E+02  0.20358829423E+02  0.54367077379E+02  0.39999984501E+02 0.  0.
        -12    1    3    3    0    0 -0.24698897092E+02 -0.18200628825E+02 -0.20358829423E+02  0.36820922621E+02  0.00000000000E+00 0.  1.
         11    1    4    4    0    0 -0.41581490280E+01  0.26411949495E+01 -0.28664551818E+01  0.56993578297E+01  0.51100000000E-03 0. -1.
        -11    1    4    4    0    0  0.32994305414E+02  0.85207855214E+01  0.21591579790E+02  0.40341347198E+02  0.51100000000E-03 0.  1.
        -12    1    4    4    0    0 -0.41372592940E+01  0.70386483537E+01  0.16337048151E+01  0.83263723515E+01  0.00000000000E+00 0.  1.
</event>
<event>
 8    1  0.1240174E-006  0.9118800E+02  0.7816164E-02  0.1184000E+00
        -11   -1    0    0    0    0  0.00000000000E+00  0.00000000000E+00  0.45593999997E+02  0.45594000000E+02  0.51100000000E-03 0.  1.
         11   -1    0    0    0    0 -0.00000000000E+00 -0.00000000000E+00 -0.45593999997E+02  0.45594000000E+02  0.51100000000E-03 0. -1.
         23    2    1    2    0    0  0.00000000000E+00  0.00000000000E+00  0.22204460493E-14  0.91188000000E+02  0.91188000000E+02 0.  0.
    9900012    2    3    3    0    0 -0.24602729879E+02 -0.27340754432E+02 -0.17226800772E+01  0.54367098367E+02  0.40000032347E+02 0.  0.
        -12    1    3    3    0    0  0.24602729879E+02  0.27340754432E+02  0.17226800772E+01  0.36820901633E+02  0.00000000000E+00 0.  1.
         11    1    4    4    0    0 -0.84242282879E+01 -0.98432819592E+01  0.14524702327E+01  0.13037158126E+02  0.51100000000E-03 0. -1.
        -11    1    4    4    0    0 -0.99705963556E+01 -0.64922390891E+01 -0.18171495347E+02  0.21720156618E+02  0.51100000000E-03 0.  1.
        -12    1    4    4    0    0 -0.62079052359E+01 -0.11005233384E+02  0.14996345037E+02  0.19609783623E+02  0.00000000000E+00 0.  1.
</event>
<event>
 8    1  0.1240174E-006  0.9118800E+02  0.7816164E-02  0.1184000E+00
        -11   -1    0    0    0    0  0.00000000000E+00  0.00000000000E+00  0.45593999997E+02  0.45594000000E+02  0.51100000000E-03 0.  1.
         11   -1    0    0    0    0 -0.00000000000E+00 -0.00000000000E+00 -0.45593999997E+02  0.45594000000E+02  0.51100000000E-03 0. -1.
         23    2    1    2    0    0 -0.44408920985E-15  0.00000000000E+00  0.71054273576E-14  0.91188000000E+02  0.91188000000E+02 0.  0.
    9900012    2    3    3    0    0  0.36349530379E+01 -0.29960995861E+01  0.36518357604E+02  0.54367082868E+02  0.39999997015E+02 0.  0.
         12    1    3    3    0    0 -0.36349530379E+01  0.29960995861E+01 -0.36518357604E+02  0.36820917132E+02  0.00000000000E+00 0. -1.
         11    1    4    4    0    0 -0.27643993745E+01 -0.56429832659E+01  0.21643047955E+02  0.22536785243E+02  0.51100000000E-03 0. -1.
        -11    1    4    4    0    0  0.28457279410E+01  0.66139847695E+01  0.21877993653E+02  0.23032359162E+02  0.51100000000E-03 0.  1.
         12    1    4    4    0    0  0.35536244714E+01 -0.39671010897E+01 -0.70026840038E+01  0.87979384628E+01  0.00000000000E+00 0. -1.
</event>
<event>
 8    1  0.1240174E-006  0.9118800E+02  0.7816164E-02  0.1184000E+00
        -11   -1    0    0    0    0  0.00000000000E+00  0.00000000000E+00  0.45593999997E+02  0.45594000000E+02  0.51100000000E-03 0.  1.
         11   -1    0    0    0    0 -0.00000000000E+00 -0.00000000000E+00 -0.45593999997E+02  0.45594000000E+02  0.51100000000E-03 0. -1.
         23    2    1    2    0    0 -0.11102230246E-15  0.00000000000E+00  0.00000000000E+00  0.91188000000E+02  0.91188000000E+02 0.  0.
    9900012    2    3    3    0    0  0.61267889717E+00 -0.30810963106E+02  0.20151716176E+02  0.54367048250E+02  0.39999918095E+02 0.  0.
         12    1    3    3    0    0 -0.61267889717E+00  0.30810963106E+02 -0.20151716176E+02  0.36820951750E+02  0.00000000000E+00 0. -1.
         11    1    4    4    0    0  0.24562056540E-01 -0.26738645573E+02 -0.53919619492E+01  0.27276895430E+02  0.51100000000E-03 0. -1.
        -11    1    4    4    0    0  0.10037747945E+01 -0.64088651800E+01  0.20763758358E+02  0.21753500366E+02  0.51100000000E-03 0.  1.
         12    1    4    4    0    0 -0.41565795383E+00  0.23365476471E+01  0.47799197667E+01  0.53366524543E+01  0.00000000000E+00 0. -1.
</event>
<event>
 8    1  0.1240174E-006  0.9118800E+02  0.7816164E-02  0.1184000E+00
        -11   -1    0    0    0    0  0.00000000000E+00  0.00000000000E+00  0.45593999997E+02  0.45594000000E+02  0.51100000000E-03 0. -1.
         11   -1    0    0    0    0 -0.00000000000E+00 -0.00000000000E+00 -0.45593999997E+02  0.45594000000E+02  0.51100000000E-03 0.  1.
         23    2    1    2    0    0  0.00000000000E+00  0.17763568394E-14  0.00000000000E+00  0.91188000000E+02  0.91188000000E+02 0.  0.
    9900012    2    3    3    0    0  0.30140698893E+02 -0.12632337376E+02  0.16962974105E+02  0.54367079753E+02  0.39999989914E+02 0.  0.
         12    1    3    3    0    0 -0.30140698893E+02  0.12632337376E+02 -0.16962974105E+02  0.36820920247E+02  0.00000000000E+00 0. -1.
         11    1    4    4    0    0 -0.60253448246E+01 -0.19682712993E+01 -0.40993581427E+01  0.75487488769E+01  0.51100000000E-03 0.  1.
        -11    1    4    4    0    0  0.25685466769E+02 -0.54652713016E+01  0.23062014315E+02  0.34949519283E+02  0.51100000000E-03 0. -1.
         12    1    4    4    0    0  0.10480576948E+02 -0.51987947753E+01 -0.19996820673E+01  0.11868811594E+02  0.00000000000E+00 0. -1.
</event>
<event>
 8    1  0.1240174E-006  0.9118800E+02  0.7816164E-02  0.1184000E+00
        -11   -1    0    0    0    0  0.00000000000E+00  0.00000000000E+00  0.45593999997E+02  0.45594000000E+02  0.51100000000E-03 0. -1.
         11   -1    0    0    0    0 -0.00000000000E+00 -0.00000000000E+00 -0.45593999997E+02  0.45594000000E+02  0.51100000000E-03 0.  1.
         23    2    1    2    0    0  0.35527136788E-14  0.88817841970E-15  0.00000000000E+00  0.91188000000E+02  0.91188000000E+02 0.  0.
    9900012    2    3    3    0    0  0.18681465176E+02  0.41550048299E+01  0.31456602213E+02  0.54367095217E+02  0.40000025166E+02 0.  0.
        -12    1    3    3    0    0 -0.18681465176E+02 -0.41550048299E+01 -0.31456602213E+02  0.36820904783E+02  0.00000000000E+00 0.  1.
         11    1    4    4    0    0  0.84244767862E+01  0.45254742030E+01  0.37504962537E+01  0.10272192964E+02  0.51100000000E-03 0. -1.
        -11    1    4    4    0    0  0.10889491956E+02  0.93538990686E+01 -0.38603035961E+00  0.14360553003E+02  0.51100000000E-03 0.  1.
         12    1    4    4    0    0 -0.63250356614E+00 -0.97243684418E+01  0.28092136319E+02  0.29734349250E+02  0.00000000000E+00 0. -1.
</event>
<event>
 8    1  0.1240174E-006  0.9118800E+02  0.7816164E-02  0.1184000E+00
        -11   -1    0    0    0    0  0.00000000000E+00  0.00000000000E+00  0.45593999997E+02  0.45594000000E+02  0.51100000000E-03 0. -1.
         11   -1    0    0    0    0 -0.00000000000E+00 -0.00000000000E+00 -0.45593999997E+02  0.45594000000E+02  0.51100000000E-03 0.  1.
         23    2    1    2    0    0  0.00000000000E+00 -0.35527136788E-14  0.00000000000E+00  0.91188000000E+02  0.91188000000E+02 0.  0.
    9900012    2    3    3    0    0 -0.84428564063E+01  0.27552581969E+02  0.22920579581E+02  0.54367087928E+02  0.40000008550E+02 0.  0.
        -12    1    3    3    0    0  0.84428564063E+01 -0.27552581969E+02 -0.22920579581E+02  0.36820912072E+02  0.00000000000E+00 0.  1.
         11    1    4    4    0    0  0.73500413045E+01  0.11036120055E+02  0.44799852052E+01  0.13996046611E+02  0.51100000000E-03 0. -1.
        -11    1    4    4    0    0 -0.11796110359E+02 -0.44397100248E+01  0.13506693630E+02  0.18474036315E+02  0.51100000000E-03 0.  1.
        -12    1    4    4    0    0 -0.39967873519E+01  0.20956171939E+02  0.49339007459E+01  0.21897005001E+02  0.00000000000E+00 0.  1.
</event>
<event>
 8    1  0.1240174E-006  0.9118800E+02  0.7816164E-02  0.1184000E+00
        -11   -1    0    0    0    0  0.00000000000E+00  0.00000000000E+00  0.45593999997E+02  0.45594000000E+02  0.51100000000E-03 0. -1.
         11   -1    0    0    0    0 -0.00000000000E+00 -0.00000000000E+00 -0.45593999997E+02  0.45594000000E+02  0.51100000000E-03 0.  1.
         23    2    1    2    0    0  0.00000000000E+00 -0.26645352591E-14  0.00000000000E+00  0.91188000000E+02  0.91188000000E+02 0.  0.
    9900012    2    3    3    0    0  0.32464370534E+02  0.40640256723E+01  0.16891690797E+02  0.54367070126E+02  0.39999967966E+02 0.  0.
        -12    1    3    3    0    0 -0.32464370534E+02 -0.40640256723E+01 -0.16891690797E+02  0.36820929874E+02  0.00000000000E+00 0.  1.
         11    1    4    4    0    0 -0.27781004343E+00 -0.25607676024E+01  0.21481410760E+01  0.33539856108E+01  0.51100000000E-03 0. -1.
        -11    1    4    4    0    0  0.20834468373E+01 -0.11519858764E+02 -0.16033820883E+01  0.11816037028E+02  0.51100000000E-03 0.  1.
         12    1    4    4    0    0  0.30658733740E+02  0.18144652038E+02  0.16346931809E+02  0.39197047487E+02  0.00000000000E+00 0. -1.
</event>
<event>
 8    1  0.1240174E-006  0.9118800E+02  0.7816164E-02  0.1184000E+00
        -11   -1    0    0    0    0  0.00000000000E+00  0.00000000000E+00  0.45593999997E+02  0.45594000000E+02  0.51100000000E-03 0. -1.
         11   -1    0    0    0    0 -0.00000000000E+00 -0.00000000000E+00 -0.45593999997E+02  0.45594000000E+02  0.51100000000E-03 0.  1.
         23    2    1    2    0    0 -0.17763568394E-14  0.00000000000E+00  0.00000000000E+00  0.91188000000E+02  0.91188000000E+02 0.  0.
    9900012    2    3    3    0    0  0.12024606403E+02 -0.27752677547E+02  0.20999468056E+02  0.54367082999E+02  0.39999997312E+02 0.  0.
        -12    1    3    3    0    0 -0.12024606403E+02  0.27752677547E+02 -0.20999468056E+02  0.36820917001E+02  0.00000000000E+00 0.  1.
         11    1    4    4    0    0  0.70355706198E+01 -0.12475659238E+02  0.20806560246E+02  0.25259736280E+02  0.51100000000E-03 0. -1.
        -11    1    4    4    0    0  0.13207075170E+02 -0.68850251170E+01 -0.57233356002E+01  0.15955781901E+02  0.51100000000E-03 0.  1.
        -12    1    4    4    0    0 -0.82180393863E+01 -0.83919931920E+01  0.59162434101E+01  0.13151564819E+02  0.00000000000E+00 0.  1.
</event>
<event>
 8    1  0.1240174E-006  0.9118800E+02  0.7816164E-02  0.1184000E+00
        -11   -1    0    0    0    0  0.00000000000E+00  0.00000000000E+00  0.45593999997E+02  0.45594000000E+02  0.51100000000E-03 0. -1.
         11   -1    0    0    0    0 -0.00000000000E+00 -0.00000000000E+00 -0.45593999997E+02  0.45594000000E+02  0.51100000000E-03 0.  1.
         23    2    1    2    0    0  0.00000000000E+00  0.26645352591E-14 -0.71054273576E-14  0.91188000000E+02  0.91188000000E+02 0.  0.
    9900012    2    3    3    0    0  0.50930968664E+01  0.70785671552E+01 -0.35773366538E+02  0.54367088793E+02  0.40000010521E+02 0.  0.
         12    1    3    3    0    0 -0.50930968664E+01 -0.70785671552E+01  0.35773366538E+02  0.36820911207E+02  0.00000000000E+00 0. -1.
         11    1    4    4    0    0  0.32022148361E+01 -0.49811730565E+01  0.74585623146E-01  0.59221472585E+01  0.51100000000E-03 0. -1.
        -11    1    4    4    0    0  0.14699711337E+02  0.26289142090E+01 -0.95967947105E+01  0.17750807652E+02  0.51100000000E-03 0.  1.
         12    1    4    4    0    0 -0.12808829307E+02  0.94308260026E+01 -0.26251157451E+02  0.30694133883E+02  0.00000000000E+00 0. -1.
</event>
<event>
 8    1  0.1240174E-006  0.9118800E+02  0.7816164E-02  0.1184000E+00
        -11   -1    0    0    0    0  0.00000000000E+00  0.00000000000E+00  0.45593999997E+02  0.45594000000E+02  0.51100000000E-03 0.  1.
         11   -1    0    0    0    0 -0.00000000000E+00 -0.00000000000E+00 -0.45593999997E+02  0.45594000000E+02  0.51100000000E-03 0. -1.
         23    2    1    2    0    0  0.00000000000E+00  0.35527136788E-14 -0.16653345369E-15  0.91188000000E+02  0.91188000000E+02 0.  0.
    9900012    2    3    3    0    0  0.25068365276E+02 -0.26968232934E+02  0.26728233571E+00  0.54367082507E+02  0.39999996191E+02 0.  0.
        -12    1    3    3    0    0 -0.25068365276E+02  0.26968232934E+02 -0.26728233571E+00  0.36820917493E+02  0.00000000000E+00 0.  1.
         11    1    4    4    0    0  0.33428102681E+01 -0.90967133319E+01 -0.41639630539E+01  0.10548135499E+02  0.51100000000E-03 0. -1.
        -11    1    4    4    0    0  0.19720950462E+01 -0.20186670514E+02  0.10743756724E+02  0.22952540907E+02  0.51100000000E-03 0.  1.
        -12    1    4    4    0    0  0.19753459962E+02  0.23151509117E+01 -0.63125113344E+01  0.20866406101E+02  0.00000000000E+00 0.  1.
</event>
<event>
 8    1  0.1240174E-006  0.9118800E+02  0.7816164E-02  0.1184000E+00
        -11   -1    0    0    0    0  0.00000000000E+00  0.00000000000E+00  0.45593999997E+02  0.45594000000E+02  0.51100000000E-03 0. -1.
         11   -1    0    0    0    0 -0.00000000000E+00 -0.00000000000E+00 -0.45593999997E+02  0.45594000000E+02  0.51100000000E-03 0.  1.
         23    2    1    2    0    0  0.00000000000E+00 -0.17763568394E-14  0.00000000000E+00  0.91188000000E+02  0.91188000000E+02 0.  0.
    9900012    2    3    3    0    0 -0.20461551351E+02 -0.11675546584E+02 -0.28298160076E+02  0.54367091057E+02  0.40000015682E+02 0.  0.
         12    1    3    3    0    0  0.20461551351E+02  0.11675546584E+02  0.28298160076E+02  0.36820908943E+02  0.00000000000E+00 0. -1.
         11    1    4    4    0    0 -0.15149760622E+02  0.64721449829E+01 -0.97110193552E+01  0.19123488300E+02  0.51100000000E-03 0. -1.
        -11    1    4    4    0    0 -0.97764045297E+01  0.12268551408E+01 -0.81579961329E+01  0.12792035031E+02  0.51100000000E-03 0.  1.
        -12    1    4    4    0    0  0.44646138011E+01 -0.19374546707E+02 -0.10429144588E+02  0.22451567726E+02  0.00000000000E+00 0.  1.
</event>
<event>
 8    1  0.1240174E-006  0.9118800E+02  0.7816164E-02  0.1184000E+00
        -11   -1    0    0    0    0  0.00000000000E+00  0.00000000000E+00  0.45593999997E+02  0.45594000000E+02  0.51100000000E-03 0.  1.
         11   -1    0    0    0    0 -0.00000000000E+00 -0.00000000000E+00 -0.45593999997E+02  0.45594000000E+02  0.51100000000E-03 0. -1.
         23    2    1    2    0    0 -0.35527136788E-14  0.00000000000E+00  0.44408920985E-15  0.91188000000E+02  0.91188000000E+02 0.  0.
    9900012    2    3    3    0    0  0.31023688334E+02  0.19678045068E+02 -0.24667574466E+01  0.54367087629E+02  0.40000007868E+02 0.  0.
        -12    1    3    3    0    0 -0.31023688334E+02 -0.19678045068E+02  0.24667574466E+01  0.36820912371E+02  0.00000000000E+00 0.  1.
         11    1    4    4    0    0 -0.21921756622E+00 -0.23784046242E+01  0.46766000328E+01  0.52512334766E+01  0.51100000000E-03 0. -1.
        -11    1    4    4    0    0  0.91134800115E+01  0.13318725998E+02  0.10711299223E+02  0.19369458212E+02  0.51100000000E-03 0.  1.
         12    1    4    4    0    0  0.22129425889E+02  0.87377236943E+01 -0.17854656702E+02  0.29746395941E+02  0.00000000000E+00 0. -1.
</event>
<event>
 8    1  0.1240174E-006  0.9118800E+02  0.7816164E-02  0.1184000E+00
        -11   -1    0    0    0    0  0.00000000000E+00  0.00000000000E+00  0.45593999997E+02  0.45594000000E+02  0.51100000000E-03 0.  1.
         11   -1    0    0    0    0 -0.00000000000E+00 -0.00000000000E+00 -0.45593999997E+02  0.45594000000E+02  0.51100000000E-03 0. -1.
         23    2    1    2    0    0  0.00000000000E+00  0.88817841970E-15 -0.35527136788E-14  0.91188000000E+02  0.91188000000E+02 0.  0.
    9900012    2    3    3    0    0 -0.29672807574E+02 -0.62610692565E+01 -0.20883078756E+02  0.54367089149E+02  0.40000011334E+02 0.  0.
        -12    1    3    3    0    0  0.29672807574E+02  0.62610692565E+01  0.20883078756E+02  0.36820910851E+02  0.00000000000E+00 0.  1.
         11    1    4    4    0    0 -0.66455494546E+01  0.76624677297E+01 -0.62248572457E+01  0.11900654909E+02  0.51100000000E-03 0. -1.
        -11    1    4    4    0    0 -0.56218456837E+01  0.25900809030E+01 -0.17256926051E+02  0.18333443893E+02  0.51100000000E-03 0.  1.
        -12    1    4    4    0    0 -0.17405412435E+02 -0.16513617889E+02  0.25987045406E+01  0.24132990348E+02  0.00000000000E+00 0.  1.
</event>
<event>
 8    1  0.1240174E-006  0.9118800E+02  0.7816164E-02  0.1184000E+00
        -11   -1    0    0    0    0  0.00000000000E+00  0.00000000000E+00  0.45593999997E+02  0.45594000000E+02  0.51100000000E-03 0.  1.
         11   -1    0    0    0    0 -0.00000000000E+00 -0.00000000000E+00 -0.45593999997E+02  0.45594000000E+02  0.51100000000E-03 0. -1.
         23    2    1    2    0    0  0.00000000000E+00  0.00000000000E+00 -0.88817841970E-15  0.91188000000E+02  0.91188000000E+02 0.  0.
    9900012    2    3    3    0    0 -0.36044152194E+02  0.54766165426E+01 -0.51579706085E+01  0.54367097010E+02  0.40000029255E+02 0.  0.
        -12    1    3    3    0    0  0.36044152194E+02 -0.54766165426E+01  0.51579706085E+01  0.36820902990E+02  0.00000000000E+00 0.  1.
         11    1    4    4    0    0 -0.14851904710E+02 -0.12322115654E+02  0.22978734183E+01  0.19434346663E+02  0.51100000000E-03 0. -1.
        -11    1    4    4    0    0 -0.10230135424E+02  0.14066253393E+02  0.48284266664E+01  0.18050730169E+02  0.51100000000E-03 0.  1.
         12    1    4    4    0    0 -0.10962112061E+02  0.37324788035E+01 -0.12284270693E+02  0.16882020179E+02  0.00000000000E+00 0. -1.
</event>
<event>
 8    1  0.1240174E-006  0.9118800E+02  0.7816164E-02  0.1184000E+00
        -11   -1    0    0    0    0  0.00000000000E+00  0.00000000000E+00  0.45593999997E+02  0.45594000000E+02  0.51100000000E-03 0.  1.
         11   -1    0    0    0    0 -0.00000000000E+00 -0.00000000000E+00 -0.45593999997E+02  0.45594000000E+02  0.51100000000E-03 0. -1.
         23    2    1    2    0    0  0.00000000000E+00  0.00000000000E+00 -0.99920072216E-15  0.91188000000E+02  0.91188000000E+02 0.  0.
    9900012    2    3    3    0    0  0.30531150429E+02 -0.20574485336E+02  0.56603024794E+00  0.54367068676E+02  0.39999964660E+02 0.  0.
        -12    1    3    3    0    0 -0.30531150429E+02  0.20574485336E+02 -0.56603024794E+00  0.36820931324E+02  0.00000000000E+00 0.  1.
         11    1    4    4    0    0  0.15857065466E+02 -0.52261436363E+01  0.11481232478E+02  0.20262719511E+02  0.51100000000E-03 0. -1.
        -11    1    4    4    0    0 -0.46504989191E+01 -0.49211586326E+01  0.37106460587E+01  0.77209997356E+01  0.51100000000E-03 0.  1.
         12    1    4    4    0    0  0.19324583883E+02 -0.10427183067E+02 -0.14625848289E+02  0.26383349429E+02  0.00000000000E+00 0. -1.
</event>
<event>
 8    1  0.1240174E-006  0.9118800E+02  0.7816164E-02  0.1184000E+00
        -11   -1    0    0    0    0  0.00000000000E+00  0.00000000000E+00  0.45593999997E+02  0.45594000000E+02  0.51100000000E-03 0.  1.
         11   -1    0    0    0    0 -0.00000000000E+00 -0.00000000000E+00 -0.45593999997E+02  0.45594000000E+02  0.51100000000E-03 0. -1.
         23    2    1    2    0    0  0.71054273576E-14  0.26645352591E-14  0.00000000000E+00  0.91188000000E+02  0.91188000000E+02 0.  0.
    9900012    2    3    3    0    0 -0.29081248729E+02 -0.47745338219E+01 -0.22074062715E+02  0.54367089560E+02  0.40000012270E+02 0.  0.
        -12    1    3    3    0    0  0.29081248729E+02  0.47745338219E+01  0.22074062715E+02  0.36820910440E+02  0.00000000000E+00 0.  1.
         11    1    4    4    0    0 -0.60746969395E+01  0.82327543904E+01 -0.86479286374E+01  0.13396524092E+02  0.51100000000E-03 0. -1.
        -11    1    4    4    0    0 -0.11809486544E+02  0.48621137444E+01  0.42444199307E+01  0.13458054217E+02  0.51100000000E-03 0.  1.
        -12    1    4    4    0    0 -0.11197065245E+02 -0.17869401957E+02 -0.17670554009E+02  0.27512511252E+02  0.00000000000E+00 0.  1.
</event>
<event>
 8    1  0.1240174E-006  0.9118800E+02  0.7816164E-02  0.1184000E+00
        -11   -1    0    0    0    0  0.00000000000E+00  0.00000000000E+00  0.45593999997E+02  0.45594000000E+02  0.51100000000E-03 0.  1.
         11   -1    0    0    0    0 -0.00000000000E+00 -0.00000000000E+00 -0.45593999997E+02  0.45594000000E+02  0.51100000000E-03 0. -1.
         23    2    1    2    0    0 -0.71054273576E-14 -0.55511151231E-15  0.00000000000E+00  0.91188000000E+02  0.91188000000E+02 0.  0.
    9900012    2    3    3    0    0 -0.30969005816E+02  0.52225917507E+00  0.19910489920E+02  0.54367086313E+02  0.40000004867E+02 0.  0.
         12    1    3    3    0    0  0.30969005816E+02 -0.52225917507E+00 -0.19910489920E+02  0.36820913687E+02  0.00000000000E+00 0. -1.
         11    1    4    4    0    0  0.68200751157E+01 -0.46474608614E+01 -0.13458200158E+01  0.83620301852E+01  0.51100000000E-03 0. -1.
        -11    1    4    4    0    0 -0.55195878847E+01 -0.32468514691E+01  0.76772987533E+01  0.99974402368E+01  0.51100000000E-03 0.  1.
        -12    1    4    4    0    0 -0.32269493047E+02  0.84165715056E+01  0.13579011183E+02  0.36007615891E+02  0.00000000000E+00 0.  1.
</event>
<event>
 8    1  0.1240174E-006  0.9118800E+02  0.7816164E-02  0.1184000E+00
        -11   -1    0    0    0    0  0.00000000000E+00  0.00000000000E+00  0.45593999997E+02  0.45594000000E+02  0.51100000000E-03 0.  1.
         11   -1    0    0    0    0 -0.00000000000E+00 -0.00000000000E+00 -0.45593999997E+02  0.45594000000E+02  0.51100000000E-03 0. -1.
         23    2    1    2    0    0 -0.88817841970E-15 -0.35527136788E-14  0.00000000000E+00  0.91188000000E+02  0.91188000000E+02 0.  0.
    9900012    2    3    3    0    0 -0.67624557894E+01 -0.27022479060E+02  0.24079814423E+02  0.54367046109E+02  0.39999913214E+02 0.  0.
         12    1    3    3    0    0  0.67624557894E+01  0.27022479060E+02 -0.24079814423E+02  0.36820953891E+02  0.00000000000E+00 0. -1.
         11    1    4    4    0    0  0.14063714569E+01  0.72452763702E+01  0.16253392682E+02  0.17850621398E+02  0.51100000000E-03 0. -1.
        -11    1    4    4    0    0 -0.33432229753E+01 -0.50639717544E+01  0.13538954040E+01  0.62172327300E+01  0.51100000000E-03 0.  1.
         12    1    4    4    0    0 -0.48256042710E+01 -0.29203783675E+02  0.64725263368E+01  0.30299191981E+02  0.00000000000E+00 0. -1.
</event>
<event>
 8    1  0.1240174E-006  0.9118800E+02  0.7816164E-02  0.1184000E+00
        -11   -1    0    0    0    0  0.00000000000E+00  0.00000000000E+00  0.45593999997E+02  0.45594000000E+02  0.51100000000E-03 0. -1.
         11   -1    0    0    0    0 -0.00000000000E+00 -0.00000000000E+00 -0.45593999997E+02  0.45594000000E+02  0.51100000000E-03 0.  1.
         23    2    1    2    0    0  0.00000000000E+00  0.17763568394E-14  0.71054273576E-14  0.91188000000E+02  0.91188000000E+02 0.  0.
    9900012    2    3    3    0    0  0.14632432351E+02  0.80237118576E+01 -0.32822120269E+02  0.54367087363E+02  0.40000007262E+02 0.  0.
         12    1    3    3    0    0 -0.14632432351E+02 -0.80237118576E+01  0.32822120269E+02  0.36820912637E+02  0.00000000000E+00 0. -1.
         11    1    4    4    0    0  0.15620587017E+02 -0.43488029597E+01 -0.15832085152E+02  0.22662077276E+02  0.51100000000E-03 0. -1.
        -11    1    4    4    0    0  0.17800150825E+01  0.17658113528E+02 -0.18410204703E+02  0.25571723925E+02  0.51100000000E-03 0.  1.
         12    1    4    4    0    0 -0.27681697489E+01 -0.52855987107E+01  0.14201695858E+01  0.61332861617E+01  0.00000000000E+00 0. -1.
</event>
<event>
 8    1  0.1240174E-006  0.9118800E+02  0.7816164E-02  0.1184000E+00
        -11   -1    0    0    0    0  0.00000000000E+00  0.00000000000E+00  0.45593999997E+02  0.45594000000E+02  0.51100000000E-03 0.  1.
         11   -1    0    0    0    0 -0.00000000000E+00 -0.00000000000E+00 -0.45593999997E+02  0.45594000000E+02  0.51100000000E-03 0. -1.
         23    2    1    2    0    0  0.00000000000E+00  0.00000000000E+00  0.17763568394E-14  0.91188000000E+02  0.91188000000E+02 0.  0.
    9900012    2    3    3    0    0 -0.33219088232E+02  0.71239629526E+01  0.14195752192E+02  0.54367108493E+02  0.40000055430E+02 0.  0.
        -12    1    3    3    0    0  0.33219088232E+02 -0.71239629526E+01 -0.14195752192E+02  0.36820891507E+02  0.00000000000E+00 0.  1.
         11    1    4    4    0    0  0.68462787608E+00  0.15871516572E+02  0.72802786208E+01  0.17475016758E+02  0.51100000000E-03 0.  1.
        -11    1    4    4    0    0 -0.23009146335E+02 -0.51610835007E+01  0.89896975792E+01  0.25236328195E+02  0.51100000000E-03 0. -1.
        -12    1    4    4    0    0 -0.10894569774E+02 -0.35864701186E+01 -0.20742240081E+01  0.11655763540E+02  0.00000000000E+00 0.  1.
</event>
<event>
 8    1  0.1240174E-006  0.9118800E+02  0.7816164E-02  0.1184000E+00
        -11   -1    0    0    0    0  0.00000000000E+00  0.00000000000E+00  0.45593999997E+02  0.45594000000E+02  0.51100000000E-03 0. -1.
         11   -1    0    0    0    0 -0.00000000000E+00 -0.00000000000E+00 -0.45593999997E+02  0.45594000000E+02  0.51100000000E-03 0.  1.
         23    2    1    2    0    0 -0.35527136788E-14  0.00000000000E+00  0.88817841970E-15  0.91188000000E+02  0.91188000000E+02 0.  0.
    9900012    2    3    3    0    0  0.24789440990E+02 -0.26900898380E+02 -0.41957925948E+01  0.54367090265E+02  0.40000013877E+02 0.  0.
         12    1    3    3    0    0 -0.24789440990E+02  0.26900898380E+02  0.41957925948E+01  0.36820909735E+02  0.00000000000E+00 0. -1.
         11    1    4    4    0    0  0.40923161950E+00  0.24897849332E-01  0.81081610308E+01  0.81185199380E+01  0.51100000000E-03 0. -1.
        -11    1    4    4    0    0  0.18282189348E+02 -0.24915701371E+02  0.15882271390E+01  0.30944354701E+02  0.51100000000E-03 0.  1.
        -12    1    4    4    0    0  0.60980200227E+01 -0.20100948583E+01 -0.13892180765E+02  0.15304215626E+02  0.00000000000E+00 0.  1.
</event>
<event>
 8    1  0.1240174E-006  0.9118800E+02  0.7816164E-02  0.1184000E+00
        -11   -1    0    0    0    0  0.00000000000E+00  0.00000000000E+00  0.45593999997E+02  0.45594000000E+02  0.51100000000E-03 0.  1.
         11   -1    0    0    0    0 -0.00000000000E+00 -0.00000000000E+00 -0.45593999997E+02  0.45594000000E+02  0.51100000000E-03 0. -1.
         23    2    1    2    0    0 -0.35527136788E-14 -0.71054273576E-14  0.33306690739E-15  0.91188000000E+02  0.91188000000E+02 0.  0.
    9900012    2    3    3    0    0  0.46057448569E+01 -0.36525369779E+02 -0.68097430386E+00  0.54367092227E+02  0.40000018351E+02 0.  0.
         12    1    3    3    0    0 -0.46057448569E+01  0.36525369779E+02  0.68097430386E+00  0.36820907773E+02  0.00000000000E+00 0. -1.
         11    1    4    4    0    0  0.16286160192E+02 -0.99143534593E+01 -0.85314925396E+01  0.20888269041E+02  0.51100000000E-03 0. -1.
        -11    1    4    4    0    0  0.30068781552E+01 -0.34678592085E+01  0.33944062498E+01  0.57087089416E+01  0.51100000000E-03 0.  1.
         12    1    4    4    0    0 -0.14687293490E+02 -0.23143157111E+02  0.44561119859E+01  0.27770114245E+02  0.00000000000E+00 0. -1.
</event>
<event>
 8    1  0.1240174E-006  0.9118800E+02  0.7816164E-02  0.1184000E+00
        -11   -1    0    0    0    0  0.00000000000E+00  0.00000000000E+00  0.45593999997E+02  0.45594000000E+02  0.51100000000E-03 0.  1.
         11   -1    0    0    0    0 -0.00000000000E+00 -0.00000000000E+00 -0.45593999997E+02  0.45594000000E+02  0.51100000000E-03 0. -1.
         23    2    1    2    0    0  0.00000000000E+00  0.35527136788E-14  0.00000000000E+00  0.91188000000E+02  0.91188000000E+02 0.  0.
    9900012    2    3    3    0    0  0.25397615380E+02  0.17430659589E+02  0.20171955659E+02  0.54367155960E+02  0.40000163642E+02 0.  0.
        -12    1    3    3    0    0 -0.25397615380E+02 -0.17430659589E+02 -0.20171955659E+02  0.36820844040E+02  0.00000000000E+00 0.  1.
         11    1    4    4    0    0  0.23608853208E+01  0.59888007344E+01 -0.92907357484E+01  0.11302976809E+02  0.51100000000E-03 0. -1.
        -11    1    4    4    0    0  0.61931890463E+01  0.11472845791E+02  0.19616146975E+02  0.23553662210E+02  0.51100000000E-03 0.  1.
         12    1    4    4    0    0  0.16843541013E+02 -0.30986936059E-01  0.98465444325E+01  0.19510516941E+02  0.00000000000E+00 0. -1.
</event>
<event>
 8    1  0.1240174E-006  0.9118800E+02  0.7816164E-02  0.1184000E+00
        -11   -1    0    0    0    0  0.00000000000E+00  0.00000000000E+00  0.45593999997E+02  0.45594000000E+02  0.51100000000E-03 0. -1.
         11   -1    0    0    0    0 -0.00000000000E+00 -0.00000000000E+00 -0.45593999997E+02  0.45594000000E+02  0.51100000000E-03 0.  1.
         23    2    1    2    0    0  0.00000000000E+00  0.00000000000E+00  0.00000000000E+00  0.91188000000E+02  0.91188000000E+02 0.  0.
    9900012    2    3    3    0    0  0.29191848947E+02  0.81997268536E+01  0.20889722506E+02  0.54367081057E+02  0.39999992885E+02 0.  0.
        -12    1    3    3    0    0 -0.29191848947E+02 -0.81997268536E+01 -0.20889722506E+02  0.36820918943E+02  0.00000000000E+00 0.  1.
         11    1    4    4    0    0  0.14846386976E+02  0.62209065879E+01  0.21796819193E+02  0.27096424343E+02  0.51100000000E-03 0.  1.
        -11    1    4    4    0    0  0.12895975657E+02 -0.52161583638E+01  0.77475409481E+01  0.15922904485E+02  0.51100000000E-03 0. -1.
         12    1    4    4    0    0  0.14494863141E+01  0.71949786296E+01 -0.86546376347E+01  0.11347752229E+02  0.00000000000E+00 0. -1.
</event>
<event>
 8    1  0.1240174E-006  0.9118800E+02  0.7816164E-02  0.1184000E+00
        -11   -1    0    0    0    0  0.00000000000E+00  0.00000000000E+00  0.45593999997E+02  0.45594000000E+02  0.51100000000E-03 0. -1.
         11   -1    0    0    0    0 -0.00000000000E+00 -0.00000000000E+00 -0.45593999997E+02  0.45594000000E+02  0.51100000000E-03 0.  1.
         23    2    1    2    0    0  0.00000000000E+00 -0.17763568394E-14  0.00000000000E+00  0.91188000000E+02  0.91188000000E+02 0.  0.
    9900012    2    3    3    0    0 -0.31215295224E+02 -0.12644910754E+02  0.14882588096E+02  0.54367084037E+02  0.39999999679E+02 0.  0.
        -12    1    3    3    0    0  0.31215295224E+02  0.12644910754E+02 -0.14882588096E+02  0.36820915963E+02  0.00000000000E+00 0.  1.
         11    1    4    4    0    0 -0.11292325458E+02 -0.92779736916E+01  0.21256500562E+01  0.14768743972E+02  0.51100000000E-03 0. -1.
        -11    1    4    4    0    0 -0.12795357087E+02  0.85372579353E+01  0.18947382838E+02  0.24405107103E+02  0.51100000000E-03 0.  1.
        -12    1    4    4    0    0 -0.71276126788E+01 -0.11904194998E+02 -0.61904447980E+01  0.15193232962E+02  0.00000000000E+00 0.  1.
</event>
<event>
 8    1  0.1240174E-006  0.9118800E+02  0.7816164E-02  0.1184000E+00
        -11   -1    0    0    0    0  0.00000000000E+00  0.00000000000E+00  0.45593999997E+02  0.45594000000E+02  0.51100000000E-03 0.  1.
         11   -1    0    0    0    0 -0.00000000000E+00 -0.00000000000E+00 -0.45593999997E+02  0.45594000000E+02  0.51100000000E-03 0. -1.
         23    2    1    2    0    0 -0.88817841970E-15 -0.71054273576E-14  0.71054273576E-14  0.91188000000E+02  0.91188000000E+02 0.  0.
    9900012    2    3    3    0    0  0.79580106285E+01  0.21783041387E+02 -0.28599787400E+02  0.54367100166E+02  0.40000036450E+02 0.  0.
        -12    1    3    3    0    0 -0.79580106285E+01 -0.21783041387E+02  0.28599787400E+02  0.36820899834E+02  0.00000000000E+00 0.  1.
         11    1    4    4    0    0  0.30793126019E+01  0.80373094953E+01 -0.11673721467E+02  0.14503664474E+02  0.51100000000E-03 0. -1.
        -11    1    4    4    0    0  0.17249014697E+02  0.14964581236E+02 -0.14906224088E+02  0.27270179985E+02  0.51100000000E-03 0.  1.
        -12    1    4    4    0    0 -0.12370316670E+02 -0.12188493447E+01 -0.20198418454E+01  0.12593255708E+02  0.00000000000E+00 0.  1.
</event>
<event>
 8    1  0.1240174E-006  0.9118800E+02  0.7816164E-02  0.1184000E+00
        -11   -1    0    0    0    0  0.00000000000E+00  0.00000000000E+00  0.45593999997E+02  0.45594000000E+02  0.51100000000E-03 0.  1.
         11   -1    0    0    0    0 -0.00000000000E+00 -0.00000000000E+00 -0.45593999997E+02  0.45594000000E+02  0.51100000000E-03 0. -1.
         23    2    1    2    0    0  0.00000000000E+00  0.00000000000E+00  0.00000000000E+00  0.91188000000E+02  0.91188000000E+02 0.  0.
    9900012    2    3    3    0    0  0.16699125334E+02 -0.17590630883E+02 -0.27703582199E+02  0.54367088164E+02  0.40000009087E+02 0.  0.
        -12    1    3    3    0    0 -0.16699125334E+02  0.17590630883E+02  0.27703582199E+02  0.36820911836E+02  0.00000000000E+00 0.  1.
         11    1    4    4    0    0  0.88540510869E+01  0.28867782977E+01  0.15332199625E+01  0.94381392925E+01  0.51100000000E-03 0. -1.
        -11    1    4    4    0    0  0.13453368759E+02 -0.48180790218E+01 -0.42437002395E+01  0.14906911431E+02  0.51100000000E-03 0.  1.
         12    1    4    4    0    0 -0.56082945118E+01 -0.15659330159E+02 -0.24993101922E+02  0.30022037440E+02  0.00000000000E+00 0. -1.
</event>
<event>
 8    1  0.1240174E-006  0.9118800E+02  0.7816164E-02  0.1184000E+00
        -11   -1    0    0    0    0  0.00000000000E+00  0.00000000000E+00  0.45593999997E+02  0.45594000000E+02  0.51100000000E-03 0.  1.
         11   -1    0    0    0    0 -0.00000000000E+00 -0.00000000000E+00 -0.45593999997E+02  0.45594000000E+02  0.51100000000E-03 0. -1.
         23    2    1    2    0    0  0.00000000000E+00 -0.17763568394E-14  0.66613381478E-15  0.91188000000E+02  0.91188000000E+02 0.  0.
    9900012    2    3    3    0    0 -0.35611713385E+02 -0.93315033668E+01  0.71570812570E+00  0.54367036902E+02  0.39999892226E+02 0.  0.
         12    1    3    3    0    0  0.35611713385E+02  0.93315033668E+01 -0.71570812570E+00  0.36820963098E+02  0.00000000000E+00 0. -1.
         11    1    4    4    0    0 -0.27375507507E+01 -0.72067882070E+01 -0.11490583635E+02  0.13837105655E+02  0.51100000000E-03 0. -1.
        -11    1    4    4    0    0 -0.11891292523E+01 -0.13391534547E+01  0.84216881136E+01  0.86100053018E+01  0.51100000000E-03 0.  1.
         12    1    4    4    0    0 -0.31685033382E+02 -0.78556170514E+00  0.37846036469E+01  0.31919925946E+02  0.00000000000E+00 0. -1.
</event>
<event>
 8    1  0.1240174E-006  0.9118800E+02  0.7816164E-02  0.1184000E+00
        -11   -1    0    0    0    0  0.00000000000E+00  0.00000000000E+00  0.45593999997E+02  0.45594000000E+02  0.51100000000E-03 0. -1.
         11   -1    0    0    0    0 -0.00000000000E+00 -0.00000000000E+00 -0.45593999997E+02  0.45594000000E+02  0.51100000000E-03 0.  1.
         23    2    1    2    0    0  0.88817841970E-15  0.35527136788E-14  0.35527136788E-14  0.91188000000E+02  0.91188000000E+02 0.  0.
    9900012    2    3    3    0    0 -0.46633990941E+01  0.22872912114E+02 -0.28475644212E+02  0.54367085930E+02  0.40000003994E+02 0.  0.
         12    1    3    3    0    0  0.46633990941E+01 -0.22872912114E+02  0.28475644212E+02  0.36820914070E+02  0.00000000000E+00 0. -1.
         11    1    4    4    0    0 -0.40099960354E+01  0.19424471076E+02 -0.32344623906E+01  0.20096066580E+02  0.51100000000E-03 0. -1.
        -11    1    4    4    0    0  0.91186886709E+01  0.23121029519E+01 -0.21976912741E+02  0.23905668721E+02  0.51100000000E-03 0.  1.
        -12    1    4    4    0    0 -0.97720917295E+01  0.11363380863E+01 -0.32642690810E+01  0.10365350628E+02  0.00000000000E+00 0.  1.
</event>
<event>
 8    1  0.1240174E-006  0.9118800E+02  0.7816164E-02  0.1184000E+00
        -11   -1    0    0    0    0  0.00000000000E+00  0.00000000000E+00  0.45593999997E+02  0.45594000000E+02  0.51100000000E-03 0. -1.
         11   -1    0    0    0    0 -0.00000000000E+00 -0.00000000000E+00 -0.45593999997E+02  0.45594000000E+02  0.51100000000E-03 0.  1.
         23    2    1    2    0    0  0.00000000000E+00  0.00000000000E+00  0.00000000000E+00  0.91188000000E+02  0.91188000000E+02 0.  0.
    9900012    2    3    3    0    0  0.42403314684E+01  0.17798671305E+02  0.31953202268E+02  0.54367078687E+02  0.39999987483E+02 0.  0.
        -12    1    3    3    0    0 -0.42403314684E+01 -0.17798671305E+02 -0.31953202268E+02  0.36820921313E+02  0.00000000000E+00 0.  1.
         11    1    4    4    0    0 -0.61366367574E+01 -0.43302205011E+01  0.13113139855E+02  0.15111702664E+02  0.51100000000E-03 0. -1.
        -11    1    4    4    0    0 -0.17972043600E+01 -0.15229369036E+01 -0.37017450276E+01  0.43877325391E+01  0.51100000000E-03 0.  1.
         12    1    4    4    0    0  0.12174172586E+02  0.23651828710E+02  0.22541807440E+02  0.34867643484E+02  0.00000000000E+00 0. -1.
</event>
<event>
 8    1  0.1240174E-006  0.9118800E+02  0.7816164E-02  0.1184000E+00
        -11   -1    0    0    0    0  0.00000000000E+00  0.00000000000E+00  0.45593999997E+02  0.45594000000E+02  0.51100000000E-03 0. -1.
         11   -1    0    0    0    0 -0.00000000000E+00 -0.00000000000E+00 -0.45593999997E+02  0.45594000000E+02  0.51100000000E-03 0.  1.
         23    2    1    2    0    0  0.35527136788E-14  0.00000000000E+00  0.17763568394E-14  0.91188000000E+02  0.91188000000E+02 0.  0.
    9900012    2    3    3    0    0  0.21726642880E+02 -0.25820664958E+02  0.14731850208E+02  0.54367066277E+02  0.39999959191E+02 0.  0.
        -12    1    3    3    0    0 -0.21726642880E+02  0.25820664958E+02 -0.14731850208E+02  0.36820933723E+02  0.00000000000E+00 0.  1.
         11    1    4    4    0    0  0.25128758066E+02 -0.10413048634E+02  0.98331154429E+01  0.28923627424E+02  0.51100000000E-03 0. -1.
        -11    1    4    4    0    0  0.35282467346E+01 -0.16466123149E+02  0.68289345059E+01  0.18171848649E+02  0.51100000000E-03 0.  1.
         12    1    4    4    0    0 -0.69303619209E+01  0.10585068244E+01 -0.19301997410E+01  0.72715902038E+01  0.00000000000E+00 0. -1.
</event>
<event>
 8    1  0.1240174E-006  0.9118800E+02  0.7816164E-02  0.1184000E+00
        -11   -1    0    0    0    0  0.00000000000E+00  0.00000000000E+00  0.45593999997E+02  0.45594000000E+02  0.51100000000E-03 0.  1.
         11   -1    0    0    0    0 -0.00000000000E+00 -0.00000000000E+00 -0.45593999997E+02  0.45594000000E+02  0.51100000000E-03 0. -1.
         23    2    1    2    0    0 -0.53290705182E-14  0.00000000000E+00 -0.71054273576E-14  0.91188000000E+02  0.91188000000E+02 0.  0.
    9900012    2    3    3    0    0 -0.94423620103E+01 -0.20216345588E+02 -0.29290286606E+02  0.54367085852E+02  0.40000003816E+02 0.  0.
        -12    1    3    3    0    0  0.94423620103E+01  0.20216345588E+02  0.29290286606E+02  0.36820914148E+02  0.00000000000E+00 0.  1.
         11    1    4    4    0    0 -0.41242421595E+01 -0.15364437539E+01 -0.11673185774E+02  0.12475307578E+02  0.51100000000E-03 0. -1.
        -11    1    4    4    0    0  0.84172438831E+01 -0.49865937946E+01  0.58874557539E+01  0.11418329465E+02  0.51100000000E-03 0.  1.
        -12    1    4    4    0    0 -0.13735363734E+02 -0.13693308039E+02 -0.23504556586E+02  0.30473448808E+02  0.00000000000E+00 0.  1.
</event>
<event>
 8    1  0.1240174E-006  0.9118800E+02  0.7816164E-02  0.1184000E+00
        -11   -1    0    0    0    0  0.00000000000E+00  0.00000000000E+00  0.45593999997E+02  0.45594000000E+02  0.51100000000E-03 0.  1.
         11   -1    0    0    0    0 -0.00000000000E+00 -0.00000000000E+00 -0.45593999997E+02  0.45594000000E+02  0.51100000000E-03 0. -1.
         23    2    1    2    0    0 -0.35527136788E-14  0.00000000000E+00  0.00000000000E+00  0.91188000000E+02  0.91188000000E+02 0.  0.
    9900012    2    3    3    0    0 -0.24126760506E+02 -0.10930989534E+02 -0.25577308483E+02  0.54367003084E+02  0.39999815129E+02 0.  0.
        -12    1    3    3    0    0  0.24126760506E+02  0.10930989534E+02  0.25577308483E+02  0.36820996916E+02  0.00000000000E+00 0.  1.
         11    1    4    4    0    0 -0.12241314420E+02 -0.91256491672E+00 -0.39146550831E+01  0.12884373409E+02  0.51100000000E-03 0. -1.
        -11    1    4    4    0    0 -0.65159834050E+01 -0.21552940672E+02 -0.15574522214E+02  0.27377966210E+02  0.51100000000E-03 0.  1.
        -12    1    4    4    0    0 -0.53694626810E+01  0.11534516055E+02 -0.60881311856E+01  0.14104663465E+02  0.00000000000E+00 0.  1.
</event>
<event>
 8    1  0.1240174E-006  0.9118800E+02  0.7816164E-02  0.1184000E+00
        -11   -1    0    0    0    0  0.00000000000E+00  0.00000000000E+00  0.45593999997E+02  0.45594000000E+02  0.51100000000E-03 0. -1.
         11   -1    0    0    0    0 -0.00000000000E+00 -0.00000000000E+00 -0.45593999997E+02  0.45594000000E+02  0.51100000000E-03 0.  1.
         23    2    1    2    0    0  0.35527136788E-14  0.00000000000E+00  0.35527136788E-14  0.91188000000E+02  0.91188000000E+02 0.  0.
    9900012    2    3    3    0    0 -0.21258658753E+02  0.29797569051E+00 -0.30062627540E+02  0.54367069321E+02  0.39999966130E+02 0.  0.
         12    1    3    3    0    0  0.21258658753E+02 -0.29797569051E+00  0.30062627540E+02  0.36820930679E+02  0.00000000000E+00 0. -1.
         11    1    4    4    0    0 -0.16343631199E+02 -0.20483516585E+01  0.62030077088E+01  0.17600776408E+02  0.51100000000E-03 0. -1.
        -11    1    4    4    0    0 -0.30868019230E+01  0.11282983029E+01 -0.13474123168E+02  0.13869152771E+02  0.51100000000E-03 0.  1.
         12    1    4    4    0    0 -0.18282256308E+01  0.12180290462E+01 -0.22791512081E+02  0.22897140142E+02  0.00000000000E+00 0. -1.
</event>
<event>
 8    1  0.1240174E-006  0.9118800E+02  0.7816164E-02  0.1184000E+00
        -11   -1    0    0    0    0  0.00000000000E+00  0.00000000000E+00  0.45593999997E+02  0.45594000000E+02  0.51100000000E-03 0. -1.
         11   -1    0    0    0    0 -0.00000000000E+00 -0.00000000000E+00 -0.45593999997E+02  0.45594000000E+02  0.51100000000E-03 0.  1.
         23    2    1    2    0    0  0.35527136788E-14  0.00000000000E+00  0.00000000000E+00  0.91188000000E+02  0.91188000000E+02 0.  0.
    9900012    2    3    3    0    0  0.28380969822E+02 -0.11924623346E+02 -0.20201544881E+02  0.54367102325E+02  0.40000041370E+02 0.  0.
        -12    1    3    3    0    0 -0.28380969822E+02  0.11924623346E+02  0.20201544881E+02  0.36820897675E+02  0.00000000000E+00 0.  1.
         11    1    4    4    0    0  0.30882170483E+02 -0.59423135558E+01 -0.10625638580E+02  0.33195236701E+02  0.51100000000E-03 0. -1.
        -11    1    4    4    0    0 -0.88630562251E+01  0.12992486785E+01 -0.63443180367E+01  0.10976893203E+02  0.51100000000E-03 0.  1.
         12    1    4    4    0    0  0.63618555646E+01 -0.72815584690E+01 -0.32315882646E+01  0.10194972421E+02  0.00000000000E+00 0. -1.
</event>
<event>
 8    1  0.1240174E-006  0.9118800E+02  0.7816164E-02  0.1184000E+00
        -11   -1    0    0    0    0  0.00000000000E+00  0.00000000000E+00  0.45593999997E+02  0.45594000000E+02  0.51100000000E-03 0. -1.
         11   -1    0    0    0    0 -0.00000000000E+00 -0.00000000000E+00 -0.45593999997E+02  0.45594000000E+02  0.51100000000E-03 0.  1.
         23    2    1    2    0    0 -0.17763568394E-14  0.00000000000E+00  0.88817841970E-15  0.91188000000E+02  0.91188000000E+02 0.  0.
    9900012    2    3    3    0    0  0.10979702158E+02  0.34595163799E+02 -0.61972228999E+01  0.54367016995E+02  0.39999846844E+02 0.  0.
         12    1    3    3    0    0 -0.10979702158E+02 -0.34595163799E+02  0.61972228999E+01  0.36820983005E+02  0.00000000000E+00 0. -1.
         11    1    4    4    0    0 -0.20853389429E+01  0.44489744208E+01  0.14627569174E+01  0.51265651233E+01  0.51100000000E-03 0. -1.
        -11    1    4    4    0    0 -0.87500156661E+01  0.24535562872E+02 -0.28198955576E+01  0.26201305899E+02  0.51100000000E-03 0.  1.
         12    1    4    4    0    0  0.21815056767E+02  0.56106265066E+01 -0.48400842597E+01  0.23039145973E+02  0.00000000000E+00 0. -1.
</event>
<event>
 8    1  0.1240174E-006  0.9118800E+02  0.7816164E-02  0.1184000E+00
        -11   -1    0    0    0    0  0.00000000000E+00  0.00000000000E+00  0.45593999997E+02  0.45594000000E+02  0.51100000000E-03 0.  1.
         11   -1    0    0    0    0 -0.00000000000E+00 -0.00000000000E+00 -0.45593999997E+02  0.45594000000E+02  0.51100000000E-03 0. -1.
         23    2    1    2    0    0 -0.17763568394E-14  0.00000000000E+00 -0.35527136788E-14  0.91188000000E+02  0.91188000000E+02 0.  0.
    9900012    2    3    3    0    0  0.11803636851E+02  0.17884793782E+02 -0.29943097161E+02  0.54367071723E+02  0.39999971607E+02 0.  0.
        -12    1    3    3    0    0 -0.11803636851E+02 -0.17884793782E+02  0.29943097161E+02  0.36820928277E+02  0.00000000000E+00 0.  1.
         11    1    4    4    0    0 -0.15882675311E+01  0.11067358592E+02 -0.19059939436E+02  0.22097291950E+02  0.51100000000E-03 0. -1.
        -11    1    4    4    0    0 -0.64783597259E+01  0.14710807776E+01  0.31609668494E+01  0.73569650724E+01  0.51100000000E-03 0.  1.
        -12    1    4    4    0    0  0.19870264108E+02  0.53463544130E+01 -0.14044124574E+02  0.24912814701E+02  0.00000000000E+00 0.  1.
</event>
<event>
 8    1  0.1240174E-006  0.9118800E+02  0.7816164E-02  0.1184000E+00
        -11   -1    0    0    0    0  0.00000000000E+00  0.00000000000E+00  0.45593999997E+02  0.45594000000E+02  0.51100000000E-03 0. -1.
         11   -1    0    0    0    0 -0.00000000000E+00 -0.00000000000E+00 -0.45593999997E+02  0.45594000000E+02  0.51100000000E-03 0.  1.
         23    2    1    2    0    0  0.88817841970E-15 -0.35527136788E-14  0.00000000000E+00  0.91188000000E+02  0.91188000000E+02 0.  0.
    9900012    2    3    3    0    0  0.62999184616E+01  0.25530507312E+02  0.25773709104E+02  0.54367083971E+02  0.39999999529E+02 0.  0.
         12    1    3    3    0    0 -0.62999184616E+01 -0.25530507312E+02 -0.25773709104E+02  0.36820916029E+02  0.00000000000E+00 0. -1.
         11    1    4    4    0    0  0.30738727748E+01  0.10599907879E+02 -0.54736730917E+01  0.12319409006E+02  0.51100000000E-03 0.  1.
        -11    1    4    4    0    0  0.74275701410E+01  0.11118541043E+02  0.36322484270E+01  0.13855828449E+02  0.51100000000E-03 0. -1.
        -12    1    4    4    0    0 -0.42015244541E+01  0.38120583902E+01  0.27615133769E+02  0.28191846516E+02  0.00000000000E+00 0.  1.
</event>
<event>
 8    1  0.1240174E-006  0.9118800E+02  0.7816164E-02  0.1184000E+00
        -11   -1    0    0    0    0  0.00000000000E+00  0.00000000000E+00  0.45593999997E+02  0.45594000000E+02  0.51100000000E-03 0.  1.
         11   -1    0    0    0    0 -0.00000000000E+00 -0.00000000000E+00 -0.45593999997E+02  0.45594000000E+02  0.51100000000E-03 0. -1.
         23    2    1    2    0    0  0.00000000000E+00  0.17763568394E-14  0.00000000000E+00  0.91188000000E+02  0.91188000000E+02 0.  0.
    9900012    2    3    3    0    0  0.35593598574E+02  0.41627135196E+01 -0.84582732196E+01  0.54367152248E+02  0.40000155179E+02 0.  0.
         12    1    3    3    0    0 -0.35593598574E+02 -0.41627135196E+01  0.84582732196E+01  0.36820847752E+02  0.00000000000E+00 0. -1.
         11    1    4    4    0    0  0.15766671604E+02 -0.40611555612E+01  0.14285694150E+02  0.21660147174E+02  0.51100000000E-03 0. -1.
        -11    1    4    4    0    0  0.12370358894E+01  0.29006039261E+01 -0.43385773731E+00  0.31830792835E+01  0.51100000000E-03 0.  1.
         12    1    4    4    0    0  0.18589891081E+02  0.53232651547E+01 -0.22310109632E+02  0.29523925791E+02  0.00000000000E+00 0. -1.
</event>
<event>
 8    1  0.1240174E-006  0.9118800E+02  0.7816164E-02  0.1184000E+00
        -11   -1    0    0    0    0  0.00000000000E+00  0.00000000000E+00  0.45593999997E+02  0.45594000000E+02  0.51100000000E-03 0. -1.
         11   -1    0    0    0    0 -0.00000000000E+00 -0.00000000000E+00 -0.45593999997E+02  0.45594000000E+02  0.51100000000E-03 0.  1.
         23    2    1    2    0    0  0.00000000000E+00  0.44408920985E-15  0.00000000000E+00  0.91188000000E+02  0.91188000000E+02 0.  0.
    9900012    2    3    3    0    0 -0.23949594919E+02 -0.39485948954E+01 -0.27687650645E+02  0.54367075288E+02  0.39999979733E+02 0.  0.
         12    1    3    3    0    0  0.23949594919E+02  0.39485948954E+01  0.27687650645E+02  0.36820924712E+02  0.00000000000E+00 0. -1.
         11    1    4    4    0    0  0.89424264992E+00  0.78631362610E+01 -0.13813353199E+01  0.80334718088E+01  0.51100000000E-03 0. -1.
        -11    1    4    4    0    0 -0.29018491263E+02 -0.48453222526E+01 -0.16987497228E+02  0.33972415947E+02  0.51100000000E-03 0.  1.
        -12    1    4    4    0    0  0.41746536940E+01 -0.69664089038E+01 -0.93188180969E+01  0.12361187532E+02  0.00000000000E+00 0.  1.
</event>
<event>
 8    1  0.1240174E-006  0.9118800E+02  0.7816164E-02  0.1184000E+00
        -11   -1    0    0    0    0  0.00000000000E+00  0.00000000000E+00  0.45593999997E+02  0.45594000000E+02  0.51100000000E-03 0.  1.
         11   -1    0    0    0    0 -0.00000000000E+00 -0.00000000000E+00 -0.45593999997E+02  0.45594000000E+02  0.51100000000E-03 0. -1.
         23    2    1    2    0    0 -0.17763568394E-14 -0.83266726847E-15  0.00000000000E+00  0.91188000000E+02  0.91188000000E+02 0.  0.
    9900012    2    3    3    0    0  0.12746235051E+02 -0.43882261358E+00 -0.34541735349E+02  0.54366938714E+02  0.39999668386E+02 0.  0.
        -12    1    3    3    0    0 -0.12746235051E+02  0.43882261358E+00  0.34541735349E+02  0.36821061286E+02  0.00000000000E+00 0.  1.
         11    1    4    4    0    0 -0.29941638481E+01  0.28560918627E+01 -0.15724175541E+02  0.16259519507E+02  0.51100000000E-03 0.  1.
        -11    1    4    4    0    0 -0.16891933623E+01 -0.47072495472E+01 -0.19966194878E+02  0.20583015102E+02  0.51100000000E-03 0. -1.
        -12    1    4    4    0    0  0.17429592261E+02  0.14123350710E+01  0.11486350698E+01  0.17524404106E+02  0.00000000000E+00 0.  1.
</event>
<event>
 8    1  0.1240174E-006  0.9118800E+02  0.7816164E-02  0.1184000E+00
        -11   -1    0    0    0    0  0.00000000000E+00  0.00000000000E+00  0.45593999997E+02  0.45594000000E+02  0.51100000000E-03 0.  1.
         11   -1    0    0    0    0 -0.00000000000E+00 -0.00000000000E+00 -0.45593999997E+02  0.45594000000E+02  0.51100000000E-03 0. -1.
         23    2    1    2    0    0  0.00000000000E+00  0.00000000000E+00  0.00000000000E+00  0.91188000000E+02  0.91188000000E+02 0.  0.
    9900012    2    3    3    0    0 -0.22113849061E+02  0.91880810258E+01  0.27970267407E+02  0.54367095448E+02  0.40000025692E+02 0.  0.
         12    1    3    3    0    0  0.22113849061E+02 -0.91880810258E+01 -0.27970267407E+02  0.36820904552E+02  0.00000000000E+00 0. -1.
         11    1    4    4    0    0 -0.20406124996E+02 -0.60268088406E+01  0.58128596677E+01  0.22057236906E+02  0.51100000000E-03 0. -1.
        -11    1    4    4    0    0 -0.18039402376E+00  0.19115802429E+02  0.16386026552E+02  0.25178330186E+02  0.51100000000E-03 0.  1.
         12    1    4    4    0    0 -0.15273300417E+01 -0.39009125630E+01  0.57713811876E+01  0.71315283560E+01  0.00000000000E+00 0. -1.
</event>
<event>
 8    1  0.1240174E-006  0.9118800E+02  0.7816164E-02  0.1184000E+00
        -11   -1    0    0    0    0  0.00000000000E+00  0.00000000000E+00  0.45593999997E+02  0.45594000000E+02  0.51100000000E-03 0. -1.
         11   -1    0    0    0    0 -0.00000000000E+00 -0.00000000000E+00 -0.45593999997E+02  0.45594000000E+02  0.51100000000E-03 0.  1.
         23    2    1    2    0    0  0.00000000000E+00  0.17763568394E-14  0.00000000000E+00  0.91188000000E+02  0.91188000000E+02 0.  0.
    9900012    2    3    3    0    0  0.26539087128E+02 -0.50606607747E+00 -0.25518599741E+02  0.54367106730E+02  0.40000051412E+02 0.  0.
         12    1    3    3    0    0 -0.26539087128E+02  0.50606607747E+00  0.25518599741E+02  0.36820893270E+02  0.00000000000E+00 0. -1.
         11    1    4    4    0    0  0.24170146346E+01  0.52572730389E+01  0.52017119660E+01  0.77806611022E+01  0.51100000000E-03 0. -1.
        -11    1    4    4    0    0  0.14660076742E+02  0.91770759407E+01 -0.14048073170E+02  0.22281941858E+02  0.51100000000E-03 0.  1.
        -12    1    4    4    0    0  0.94619957507E+01 -0.14940415057E+02 -0.16672238537E+02  0.24304503770E+02  0.00000000000E+00 0.  1.
</event>
<event>
 8    1  0.1240174E-006  0.9118800E+02  0.7816164E-02  0.1184000E+00
        -11   -1    0    0    0    0  0.00000000000E+00  0.00000000000E+00  0.45593999997E+02  0.45594000000E+02  0.51100000000E-03 0.  1.
         11   -1    0    0    0    0 -0.00000000000E+00 -0.00000000000E+00 -0.45593999997E+02  0.45594000000E+02  0.51100000000E-03 0. -1.
         23    2    1    2    0    0  0.00000000000E+00  0.00000000000E+00  0.71054273576E-14  0.91188000000E+02  0.91188000000E+02 0.  0.
    9900012    2    3    3    0    0  0.75312205084E+01  0.71364023975E+01  0.35328924564E+02  0.54367076160E+02  0.39999981723E+02 0.  0.
         12    1    3    3    0    0 -0.75312205084E+01 -0.71364023975E+01 -0.35328924564E+02  0.36820923840E+02  0.00000000000E+00 0. -1.
         11    1    4    4    0    0 -0.20066634911E+01 -0.73275100959E+01  0.20409019653E+02  0.21777217132E+02  0.51100000000E-03 0. -1.
        -11    1    4    4    0    0  0.27560927075E+01  0.40202548487E+01 -0.63124573638E+01  0.79753128022E+01  0.51100000000E-03 0.  1.
        -12    1    4    4    0    0  0.67817912920E+01  0.10443657645E+02  0.21232362276E+02  0.24614546226E+02  0.00000000000E+00 0.  1.
</event>
<event>
 8    1  0.1240174E-006  0.9118800E+02  0.7816164E-02  0.1184000E+00
        -11   -1    0    0    0    0  0.00000000000E+00  0.00000000000E+00  0.45593999997E+02  0.45594000000E+02  0.51100000000E-03 0. -1.
         11   -1    0    0    0    0 -0.00000000000E+00 -0.00000000000E+00 -0.45593999997E+02  0.45594000000E+02  0.51100000000E-03 0.  1.
         23    2    1    2    0    0  0.35527136788E-14  0.00000000000E+00  0.26645352591E-14  0.91188000000E+02  0.91188000000E+02 0.  0.
    9900012    2    3    3    0    0  0.31162763218E+02 -0.18834750742E+02 -0.54693981281E+01  0.54367082538E+02  0.39999996262E+02 0.  0.
        -12    1    3    3    0    0 -0.31162763218E+02  0.18834750742E+02  0.54693981281E+01  0.36820917462E+02  0.00000000000E+00 0.  1.
         11    1    4    4    0    0  0.34154485261E+01  0.15444473939E+01  0.14072849397E+01  0.40038803116E+01  0.51100000000E-03 0. -1.
        -11    1    4    4    0    0  0.32945495795E+02 -0.16251537166E+02  0.46832773698E+01  0.37033110059E+02  0.51100000000E-03 0.  1.
        -12    1    4    4    0    0 -0.51981811037E+01 -0.41276609699E+01 -0.11559960438E+02  0.13330092167E+02  0.00000000000E+00 0.  1.
</event>
<event>
 8    1  0.1240174E-006  0.9118800E+02  0.7816164E-02  0.1184000E+00
        -11   -1    0    0    0    0  0.00000000000E+00  0.00000000000E+00  0.45593999997E+02  0.45594000000E+02  0.51100000000E-03 0.  1.
         11   -1    0    0    0    0 -0.00000000000E+00 -0.00000000000E+00 -0.45593999997E+02  0.45594000000E+02  0.51100000000E-03 0. -1.
         23    2    1    2    0    0  0.00000000000E+00  0.00000000000E+00  0.00000000000E+00  0.91188000000E+02  0.91188000000E+02 0.  0.
    9900012    2    3    3    0    0  0.19352498834E+02  0.18335902350E+02 -0.25397919769E+02  0.54367097585E+02  0.40000030564E+02 0.  0.
        -12    1    3    3    0    0 -0.19352498834E+02 -0.18335902350E+02  0.25397919769E+02  0.36820902415E+02  0.00000000000E+00 0.  1.
         11    1    4    4    0    0  0.84398370702E+01  0.13214270012E+02 -0.10420661735E+02  0.18826523126E+02  0.51100000000E-03 0. -1.
        -11    1    4    4    0    0 -0.86886120450E+01  0.40410699798E+01  0.17604198673E+01  0.97427565001E+01  0.51100000000E-03 0.  1.
         12    1    4    4    0    0  0.19601273808E+02  0.10805623574E+01 -0.16737677901E+02  0.25797817959E+02  0.00000000000E+00 0. -1.
</event>
<event>
 8    1  0.1240174E-006  0.9118800E+02  0.7816164E-02  0.1184000E+00
        -11   -1    0    0    0    0  0.00000000000E+00  0.00000000000E+00  0.45593999997E+02  0.45594000000E+02  0.51100000000E-03 0.  1.
         11   -1    0    0    0    0 -0.00000000000E+00 -0.00000000000E+00 -0.45593999997E+02  0.45594000000E+02  0.51100000000E-03 0. -1.
         23    2    1    2    0    0  0.00000000000E+00 -0.17763568394E-14 -0.35527136788E-14  0.91188000000E+02  0.91188000000E+02 0.  0.
    9900012    2    3    3    0    0  0.31393602105E+02 -0.73293539049E+01 -0.17790528958E+02  0.54367073852E+02  0.39999976460E+02 0.  0.
        -12    1    3    3    0    0 -0.31393602105E+02  0.73293539049E+01  0.17790528958E+02  0.36820926148E+02  0.00000000000E+00 0.  1.
         11    1    4    4    0    0  0.10646841354E+02 -0.16135106766E+02 -0.55740568139E+01  0.20118822301E+02  0.51100000000E-03 0. -1.
        -11    1    4    4    0    0 -0.37983721650E+01  0.35356432956E+01  0.18040447117E+01  0.54939040946E+01  0.51100000000E-03 0.  1.
         12    1    4    4    0    0  0.24545132916E+02  0.52701095652E+01 -0.14020516856E+02  0.28754347456E+02  0.00000000000E+00 0. -1.
</event>
<event>
 8    1  0.1240174E-006  0.9118800E+02  0.7816164E-02  0.1184000E+00
        -11   -1    0    0    0    0  0.00000000000E+00  0.00000000000E+00  0.45593999997E+02  0.45594000000E+02  0.51100000000E-03 0.  1.
         11   -1    0    0    0    0 -0.00000000000E+00 -0.00000000000E+00 -0.45593999997E+02  0.45594000000E+02  0.51100000000E-03 0. -1.
         23    2    1    2    0    0  0.35527136788E-14  0.17763568394E-14 -0.35527136788E-14  0.91188000000E+02  0.91188000000E+02 0.  0.
    9900012    2    3    3    0    0  0.26054487493E+02  0.12236233616E+02 -0.22961445432E+02  0.54366950205E+02  0.39999694582E+02 0.  0.
        -12    1    3    3    0    0 -0.26054487493E+02 -0.12236233616E+02  0.22961445432E+02  0.36821049795E+02  0.00000000000E+00 0.  1.
         11    1    4    4    0    0  0.98826754880E+01  0.16245834611E+02 -0.14661114856E+02  0.24011303715E+02  0.51100000000E-03 0. -1.
        -11    1    4    4    0    0  0.14371742632E+02 -0.10370412096E+02 -0.13224269051E+02  0.22112750293E+02  0.51100000000E-03 0.  1.
        -12    1    4    4    0    0  0.18000693728E+01  0.63608111021E+01  0.49239384743E+01  0.82428961974E+01  0.00000000000E+00 0.  1.
</event>
<event>
 8    1  0.1240174E-006  0.9118800E+02  0.7816164E-02  0.1184000E+00
        -11   -1    0    0    0    0  0.00000000000E+00  0.00000000000E+00  0.45593999997E+02  0.45594000000E+02  0.51100000000E-03 0.  1.
         11   -1    0    0    0    0 -0.00000000000E+00 -0.00000000000E+00 -0.45593999997E+02  0.45594000000E+02  0.51100000000E-03 0. -1.
         23    2    1    2    0    0  0.00000000000E+00 -0.88817841970E-15  0.00000000000E+00  0.91188000000E+02  0.91188000000E+02 0.  0.
    9900012    2    3    3    0    0  0.32379911800E+02 -0.52714014985E+01 -0.16719256819E+02  0.54367083247E+02  0.39999997878E+02 0.  0.
        -12    1    3    3    0    0 -0.32379911800E+02  0.52714014985E+01  0.16719256819E+02  0.36820916753E+02  0.00000000000E+00 0.  1.
         11    1    4    4    0    0 -0.20390547934E+01  0.59419366153E+01 -0.38655520271E+01  0.73760997774E+01  0.51100000000E-03 0. -1.
        -11    1    4    4    0    0  0.31309712918E+02 -0.10424559459E+02 -0.20396691565E+02  0.38794259755E+02  0.51100000000E-03 0.  1.
        -12    1    4    4    0    0  0.31092536762E+01 -0.78877865456E+00  0.75429867734E+01  0.81967237145E+01  0.00000000000E+00 0.  1.
</event>
<event>
 8    1  0.1240174E-006  0.9118800E+02  0.7816164E-02  0.1184000E+00
        -11   -1    0    0    0    0  0.00000000000E+00  0.00000000000E+00  0.45593999997E+02  0.45594000000E+02  0.51100000000E-03 0.  1.
         11   -1    0    0    0    0 -0.00000000000E+00 -0.00000000000E+00 -0.45593999997E+02  0.45594000000E+02  0.51100000000E-03 0. -1.
         23    2    1    2    0    0  0.88817841970E-15 -0.17763568394E-14  0.71054273576E-14  0.91188000000E+02  0.91188000000E+02 0.  0.
    9900012    2    3    3    0    0 -0.79842595814E+01 -0.97737481487E+01 -0.34590539497E+02  0.54367082349E+02  0.39999995832E+02 0.  0.
        -12    1    3    3    0    0  0.79842595814E+01  0.97737481487E+01  0.34590539497E+02  0.36820917651E+02  0.00000000000E+00 0.  1.
         11    1    4    4    0    0 -0.25869144182E+01  0.10895512733E+02 -0.12485789478E+02  0.16771978508E+02  0.51100000000E-03 0. -1.
        -11    1    4    4    0    0 -0.38481677336E+01  0.40668538540E+01 -0.34758686265E+01  0.65900954580E+01  0.51100000000E-03 0.  1.
        -12    1    4    4    0    0 -0.15491774295E+01 -0.24736114735E+02 -0.18628881392E+02  0.31005008383E+02  0.00000000000E+00 0.  1.
</event>
<event>
 8    1  0.1240174E-006  0.9118800E+02  0.7816164E-02  0.1184000E+00
        -11   -1    0    0    0    0  0.00000000000E+00  0.00000000000E+00  0.45593999997E+02  0.45594000000E+02  0.51100000000E-03 0.  1.
         11   -1    0    0    0    0 -0.00000000000E+00 -0.00000000000E+00 -0.45593999997E+02  0.45594000000E+02  0.51100000000E-03 0. -1.
         23    2    1    2    0    0  0.00000000000E+00  0.00000000000E+00  0.71054273576E-14  0.91188000000E+02  0.91188000000E+02 0.  0.
    9900012    2    3    3    0    0 -0.21198444328E+02  0.11818779375E+02  0.27689726373E+02  0.54367101933E+02  0.40000040477E+02 0.  0.
         12    1    3    3    0    0  0.21198444328E+02 -0.11818779375E+02 -0.27689726373E+02  0.36820898067E+02  0.00000000000E+00 0. -1.
         11    1    4    4    0    0 -0.18030137765E+02  0.60228333261E+01  0.35166065548E+02  0.39975149224E+02  0.51100000000E-03 0.  1.
        -11    1    4    4    0    0  0.18264474838E+01  0.28133760603E+01  0.15167659433E+01  0.36812463182E+01  0.51100000000E-03 0. -1.
         12    1    4    4    0    0 -0.49947540469E+01  0.29825699890E+01 -0.89931051184E+01  0.10710706391E+02  0.00000000000E+00 0. -1.
</event>
<event>
 8    1  0.1240174E-006  0.9118800E+02  0.7816164E-02  0.1184000E+00
        -11   -1    0    0    0    0  0.00000000000E+00  0.00000000000E+00  0.45593999997E+02  0.45594000000E+02  0.51100000000E-03 0.  1.
         11   -1    0    0    0    0 -0.00000000000E+00 -0.00000000000E+00 -0.45593999997E+02  0.45594000000E+02  0.51100000000E-03 0. -1.
         23    2    1    2    0    0  0.00000000000E+00  0.00000000000E+00  0.00000000000E+00  0.91188000000E+02  0.91188000000E+02 0.  0.
    9900012    2    3    3    0    0 -0.16602011819E+02 -0.10426270452E+02 -0.31168045194E+02  0.54367069088E+02  0.39999965600E+02 0.  0.
        -12    1    3    3    0    0  0.16602011819E+02  0.10426270452E+02  0.31168045194E+02  0.36820930912E+02  0.00000000000E+00 0.  1.
         11    1    4    4    0    0  0.35969642502E+01 -0.28878110113E+01 -0.15464026311E+02  0.16137339132E+02  0.51100000000E-03 0. -1.
        -11    1    4    4    0    0 -0.25545128123E+02 -0.88812033778E+01 -0.70152723265E+01  0.27939996248E+02  0.51100000000E-03 0.  1.
        -12    1    4    4    0    0  0.53461520533E+01  0.13427439370E+01 -0.86887465563E+01  0.10289733708E+02  0.00000000000E+00 0.  1.
</event>
<event>
 8    1  0.1240174E-006  0.9118800E+02  0.7816164E-02  0.1184000E+00
        -11   -1    0    0    0    0  0.00000000000E+00  0.00000000000E+00  0.45593999997E+02  0.45594000000E+02  0.51100000000E-03 0.  1.
         11   -1    0    0    0    0 -0.00000000000E+00 -0.00000000000E+00 -0.45593999997E+02  0.45594000000E+02  0.51100000000E-03 0. -1.
         23    2    1    2    0    0  0.00000000000E+00  0.00000000000E+00  0.00000000000E+00  0.91188000000E+02  0.91188000000E+02 0.  0.
    9900012    2    3    3    0    0  0.34899491449E+02  0.72192544607E+01  0.92565735890E+01  0.54367132371E+02  0.40000109865E+02 0.  0.
         12    1    3    3    0    0 -0.34899491449E+02 -0.72192544607E+01 -0.92565735890E+01  0.36820867629E+02  0.00000000000E+00 0. -1.
         11    1    4    4    0    0  0.70991051246E+01  0.40156376800E+01 -0.29147826578E+01  0.86613277129E+01  0.51100000000E-03 0. -1.
        -11    1    4    4    0    0  0.35438445192E+02 -0.21478949374E-01  0.11993263170E+02  0.37412861701E+02  0.51100000000E-03 0.  1.
         12    1    4    4    0    0 -0.76380588676E+01  0.32250957301E+01  0.17809307657E+00  0.82929429563E+01  0.00000000000E+00 0. -1.
</event>
<event>
 8    1  0.1240174E-006  0.9118800E+02  0.7816164E-02  0.1184000E+00
        -11   -1    0    0    0    0  0.00000000000E+00  0.00000000000E+00  0.45593999997E+02  0.45594000000E+02  0.51100000000E-03 0.  1.
         11   -1    0    0    0    0 -0.00000000000E+00 -0.00000000000E+00 -0.45593999997E+02  0.45594000000E+02  0.51100000000E-03 0. -1.
         23    2    1    2    0    0  0.17763568394E-14  0.88817841970E-15  0.00000000000E+00  0.91188000000E+02  0.91188000000E+02 0.  0.
    9900012    2    3    3    0    0 -0.12026154334E+02 -0.30531029377E+01  0.34667409768E+02  0.54367093906E+02  0.40000022177E+02 0.  0.
         12    1    3    3    0    0  0.12026154334E+02  0.30531029377E+01 -0.34667409768E+02  0.36820906094E+02  0.00000000000E+00 0. -1.
         11    1    4    4    0    0 -0.31423432098E+01 -0.11000037910E+02  0.16802801137E+02  0.20327549807E+02  0.51100000000E-03 0. -1.
        -11    1    4    4    0    0 -0.14249303996E+02  0.53799386282E+01  0.21430048552E-01  0.15231114980E+02  0.51100000000E-03 0.  1.
        -12    1    4    4    0    0  0.53654928719E+01  0.25669963441E+01  0.17843178582E+02  0.18808429119E+02  0.00000000000E+00 0.  1.
</event>
<event>
 8    1  0.1240174E-006  0.9118800E+02  0.7816164E-02  0.1184000E+00
        -11   -1    0    0    0    0  0.00000000000E+00  0.00000000000E+00  0.45593999997E+02  0.45594000000E+02  0.51100000000E-03 0.  1.
         11   -1    0    0    0    0 -0.00000000000E+00 -0.00000000000E+00 -0.45593999997E+02  0.45594000000E+02  0.51100000000E-03 0. -1.
         23    2    1    2    0    0  0.00000000000E+00  0.00000000000E+00 -0.88817841970E-15  0.91188000000E+02  0.91188000000E+02 0.  0.
    9900012    2    3    3    0    0 -0.13428708206E+02  0.33791906969E+02 -0.57929428560E+01  0.54367063461E+02  0.39999952772E+02 0.  0.
         12    1    3    3    0    0  0.13428708206E+02 -0.33791906969E+02  0.57929428560E+01  0.36820936539E+02  0.00000000000E+00 0. -1.
         11    1    4    4    0    0 -0.10299123549E+02  0.23703299701E+02  0.32568260670E+01  0.26048517787E+02  0.51100000000E-03 0. -1.
        -11    1    4    4    0    0 -0.10622605505E+01  0.18024153497E+02 -0.34327708407E+01  0.18378858034E+02  0.51100000000E-03 0.  1.
         12    1    4    4    0    0 -0.20673241061E+01 -0.79355462292E+01 -0.56169980823E+01  0.99396876396E+01  0.00000000000E+00 0. -1.
</event>
<event>
 8    1  0.1240174E-006  0.9118800E+02  0.7816164E-02  0.1184000E+00
        -11   -1    0    0    0    0  0.00000000000E+00  0.00000000000E+00  0.45593999997E+02  0.45594000000E+02  0.51100000000E-03 0. -1.
         11   -1    0    0    0    0 -0.00000000000E+00 -0.00000000000E+00 -0.45593999997E+02  0.45594000000E+02  0.51100000000E-03 0.  1.
         23    2    1    2    0    0 -0.86042284408E-15  0.00000000000E+00  0.00000000000E+00  0.91188000000E+02  0.91188000000E+02 0.  0.
    9900012    2    3    3    0    0  0.36846931453E-01 -0.32635871370E+02 -0.17049284244E+02  0.54367088129E+02  0.40000009007E+02 0.  0.
         12    1    3    3    0    0 -0.36846931453E-01  0.32635871370E+02  0.17049284244E+02  0.36820911871E+02  0.00000000000E+00 0. -1.
         11    1    4    4    0    0 -0.73639613159E+00  0.25218652564E-01  0.59642100255E+01  0.60095521241E+01  0.51100000000E-03 0. -1.
        -11    1    4    4    0    0 -0.89145406511E+01 -0.32525692085E+01  0.46293087015E+00  0.95006603312E+01  0.51100000000E-03 0.  1.
         12    1    4    4    0    0  0.96877837142E+01 -0.29408520814E+02 -0.23476425139E+02  0.38856875674E+02  0.00000000000E+00 0. -1.
</event>
<event>
 8    1  0.1240174E-006  0.9118800E+02  0.7816164E-02  0.1184000E+00
        -11   -1    0    0    0    0  0.00000000000E+00  0.00000000000E+00  0.45593999997E+02  0.45594000000E+02  0.51100000000E-03 0.  1.
         11   -1    0    0    0    0 -0.00000000000E+00 -0.00000000000E+00 -0.45593999997E+02  0.45594000000E+02  0.51100000000E-03 0. -1.
         23    2    1    2    0    0  0.00000000000E+00  0.00000000000E+00  0.00000000000E+00  0.91188000000E+02  0.91188000000E+02 0.  0.
    9900012    2    3    3    0    0 -0.26414498752E+02 -0.81526057160E+01 -0.24322623429E+02  0.54367072055E+02  0.39999972363E+02 0.  0.
        -12    1    3    3    0    0  0.26414498752E+02  0.81526057160E+01  0.24322623429E+02  0.36820927945E+02  0.00000000000E+00 0.  1.
         11    1    4    4    0    0 -0.18306777146E+02  0.23620514175E+01 -0.65768976111E+00  0.18470244515E+02  0.51100000000E-03 0. -1.
        -11    1    4    4    0    0 -0.68128246462E+01  0.64255913869E+01 -0.12287554465E+02  0.15449491879E+02  0.51100000000E-03 0.  1.
        -12    1    4    4    0    0 -0.12948969598E+01 -0.16940248520E+02 -0.11377379203E+02  0.20447335660E+02  0.00000000000E+00 0.  1.
</event>
<event>
 8    1  0.1240174E-006  0.9118800E+02  0.7816164E-02  0.1184000E+00
        -11   -1    0    0    0    0  0.00000000000E+00  0.00000000000E+00  0.45593999997E+02  0.45594000000E+02  0.51100000000E-03 0.  1.
         11   -1    0    0    0    0 -0.00000000000E+00 -0.00000000000E+00 -0.45593999997E+02  0.45594000000E+02  0.51100000000E-03 0. -1.
         23    2    1    2    0    0  0.00000000000E+00  0.71054273576E-14  0.00000000000E+00  0.91188000000E+02  0.91188000000E+02 0.  0.
    9900012    2    3    3    0    0  0.19469868945E+01 -0.35117394776E+02 -0.10897570620E+02  0.54367092634E+02  0.40000019278E+02 0.  0.
        -12    1    3    3    0    0 -0.19469868945E+01  0.35117394776E+02  0.10897570620E+02  0.36820907366E+02  0.00000000000E+00 0.  1.
         11    1    4    4    0    0  0.10801913265E+02  0.20101020551E+00 -0.61064949214E+01  0.12410117476E+02  0.51100000000E-03 0. -1.
        -11    1    4    4    0    0 -0.13361545534E+02 -0.12180382702E+02 -0.28628914297E+01  0.18305430053E+02  0.51100000000E-03 0.  1.
         12    1    4    4    0    0  0.45066191636E+01 -0.23138022280E+02 -0.19281842685E+01  0.23651545105E+02  0.00000000000E+00 0. -1.
</event>
<event>
 8    1  0.1240174E-006  0.9118800E+02  0.7816164E-02  0.1184000E+00
        -11   -1    0    0    0    0  0.00000000000E+00  0.00000000000E+00  0.45593999997E+02  0.45594000000E+02  0.51100000000E-03 0.  1.
         11   -1    0    0    0    0 -0.00000000000E+00 -0.00000000000E+00 -0.45593999997E+02  0.45594000000E+02  0.51100000000E-03 0. -1.
         23    2    1    2    0    0  0.17763568394E-14 -0.35527136788E-14  0.35527136788E-14  0.91188000000E+02  0.91188000000E+02 0.  0.
    9900012    2    3    3    0    0 -0.90473247252E+01  0.20809073570E+02  0.28998427062E+02  0.54367076605E+02  0.39999982737E+02 0.  0.
         12    1    3    3    0    0  0.90473247252E+01 -0.20809073570E+02 -0.28998427062E+02  0.36820923395E+02  0.00000000000E+00 0. -1.
         11    1    4    4    0    0 -0.84062160710E+01  0.29767424726E+01  0.24529958243E+02  0.26100657387E+02  0.51100000000E-03 0. -1.
        -11    1    4    4    0    0  0.85520926748E+01  0.31805876771E+01 -0.27407389875E+01  0.95271232567E+01  0.51100000000E-03 0.  1.
        -12    1    4    4    0    0 -0.91932013289E+01  0.14651743421E+02  0.72092078070E+01  0.18739295962E+02  0.00000000000E+00 0.  1.
</event>
<event>
 8    1  0.1240174E-006  0.9118800E+02  0.7816164E-02  0.1184000E+00
        -11   -1    0    0    0    0  0.00000000000E+00  0.00000000000E+00  0.45593999997E+02  0.45594000000E+02  0.51100000000E-03 0. -1.
         11   -1    0    0    0    0 -0.00000000000E+00 -0.00000000000E+00 -0.45593999997E+02  0.45594000000E+02  0.51100000000E-03 0.  1.
         23    2    1    2    0    0 -0.35527136788E-14  0.00000000000E+00  0.00000000000E+00  0.91188000000E+02  0.91188000000E+02 0.  0.
    9900012    2    3    3    0    0 -0.22982695087E+02 -0.21001057012E+02  0.19660360963E+02  0.54367102913E+02  0.40000042711E+02 0.  0.
        -12    1    3    3    0    0  0.22982695087E+02  0.21001057012E+02 -0.19660360963E+02  0.36820897087E+02  0.00000000000E+00 0.  1.
         11    1    4    4    0    0 -0.11691387864E+02 -0.63184610046E+01  0.10276498550E+02  0.16799342915E+02  0.51100000000E-03 0. -1.
        -11    1    4    4    0    0  0.40488221243E+01  0.98686852349E+00  0.14469293054E+02  0.15057466979E+02  0.51100000000E-03 0.  1.
         12    1    4    4    0    0 -0.15340129347E+02 -0.15669464531E+02 -0.50854306401E+01  0.22510293020E+02  0.00000000000E+00 0. -1.
</event>
<event>
 8    1  0.1240174E-006  0.9118800E+02  0.7816164E-02  0.1184000E+00
        -11   -1    0    0    0    0  0.00000000000E+00  0.00000000000E+00  0.45593999997E+02  0.45594000000E+02  0.51100000000E-03 0. -1.
         11   -1    0    0    0    0 -0.00000000000E+00 -0.00000000000E+00 -0.45593999997E+02  0.45594000000E+02  0.51100000000E-03 0.  1.
         23    2    1    2    0    0  0.00000000000E+00  0.13877787808E-15  0.00000000000E+00  0.91188000000E+02  0.91188000000E+02 0.  0.
    9900012    2    3    3    0    0  0.10815375049E+02 -0.22693050562E+00 -0.35195989470E+02  0.54367061532E+02  0.39999948375E+02 0.  0.
         12    1    3    3    0    0 -0.10815375049E+02  0.22693050562E+00  0.35195989470E+02  0.36820938468E+02  0.00000000000E+00 0. -1.
         11    1    4    4    0    0  0.11720465591E+02 -0.41612635461E+01 -0.64046939507E+00  0.12453739570E+02  0.51100000000E-03 0. -1.
        -11    1    4    4    0    0  0.11201645427E+01  0.10896380052E+02 -0.60776554362E+01  0.12526921517E+02  0.51100000000E-03 0.  1.
        -12    1    4    4    0    0 -0.20252550844E+01 -0.69620470116E+01 -0.28477864638E+02  0.29386400445E+02  0.00000000000E+00 0.  1.
</event>
<event>
 8    1  0.1240174E-006  0.9118800E+02  0.7816164E-02  0.1184000E+00
        -11   -1    0    0    0    0  0.00000000000E+00  0.00000000000E+00  0.45593999997E+02  0.45594000000E+02  0.51100000000E-03 0. -1.
         11   -1    0    0    0    0 -0.00000000000E+00 -0.00000000000E+00 -0.45593999997E+02  0.45594000000E+02  0.51100000000E-03 0.  1.
         23    2    1    2    0    0 -0.88817841970E-15 -0.88817841970E-15  0.00000000000E+00  0.91188000000E+02  0.91188000000E+02 0.  0.
    9900012    2    3    3    0    0  0.44676431042E+01 -0.40462598916E+01 -0.36324203345E+02  0.54367084712E+02  0.40000001217E+02 0.  0.
         12    1    3    3    0    0 -0.44676431042E+01  0.40462598916E+01  0.36324203345E+02  0.36820915288E+02  0.00000000000E+00 0. -1.
         11    1    4    4    0    0  0.51331674105E+01  0.74016160314E+01 -0.92979384761E+01  0.12945462051E+02  0.51100000000E-03 0. -1.
        -11    1    4    4    0    0 -0.29715669428E+01 -0.75088990196E+01 -0.32960336494E+02  0.33935196428E+02  0.51100000000E-03 0.  1.
         12    1    4    4    0    0  0.23060426365E+01 -0.39389769034E+01  0.59340716248E+01  0.74864262325E+01  0.00000000000E+00 0. -1.
</event>
<event>
 8    1  0.1240174E-006  0.9118800E+02  0.7816164E-02  0.1184000E+00
        -11   -1    0    0    0    0  0.00000000000E+00  0.00000000000E+00  0.45593999997E+02  0.45594000000E+02  0.51100000000E-03 0.  1.
         11   -1    0    0    0    0 -0.00000000000E+00 -0.00000000000E+00 -0.45593999997E+02  0.45594000000E+02  0.51100000000E-03 0. -1.
         23    2    1    2    0    0  0.00000000000E+00 -0.15543122345E-14 -0.88817841970E-15  0.91188000000E+02  0.91188000000E+02 0.  0.
    9900012    2    3    3    0    0 -0.36132442108E+02 -0.18568827249E+01  0.68395629877E+01  0.54367068344E+02  0.39999963904E+02 0.  0.
         12    1    3    3    0    0  0.36132442108E+02  0.18568827249E+01 -0.68395629877E+01  0.36820931656E+02  0.00000000000E+00 0. -1.
         11    1    4    4    0    0 -0.58389259576E+01 -0.61979331401E+01  0.11987344522E+02  0.14703872296E+02  0.51100000000E-03 0. -1.
        -11    1    4    4    0    0 -0.59524581680E+01 -0.85582243619E+01  0.31545426569E+01  0.10891561050E+02  0.51100000000E-03 0.  1.
         12    1    4    4    0    0 -0.24341057982E+02  0.12899274777E+02 -0.83023241914E+01  0.28771634998E+02  0.00000000000E+00 0. -1.
</event>
<event>
 8    1  0.1240174E-006  0.9118800E+02  0.7816164E-02  0.1184000E+00
        -11   -1    0    0    0    0  0.00000000000E+00  0.00000000000E+00  0.45593999997E+02  0.45594000000E+02  0.51100000000E-03 0.  1.
         11   -1    0    0    0    0 -0.00000000000E+00 -0.00000000000E+00 -0.45593999997E+02  0.45594000000E+02  0.51100000000E-03 0. -1.
         23    2    1    2    0    0  0.00000000000E+00  0.00000000000E+00 -0.17763568394E-14  0.91188000000E+02  0.91188000000E+02 0.  0.
    9900012    2    3    3    0    0 -0.23297368615E+02  0.25160439646E+02 -0.13415416647E+02  0.54366966454E+02  0.39999731624E+02 0.  0.
        -12    1    3    3    0    0  0.23297368615E+02 -0.25160439646E+02  0.13415416647E+02  0.36821033546E+02  0.00000000000E+00 0.  1.
         11    1    4    4    0    0 -0.86336651961E+01  0.18792006082E+01 -0.16986271829E+02  0.19146931883E+02  0.51100000000E-03 0. -1.
        -11    1    4    4    0    0  0.90133923298E+00  0.17566018902E+02  0.57299460804E+01  0.18498911179E+02  0.51100000000E-03 0.  1.
         12    1    4    4    0    0 -0.15565042652E+02  0.57152201366E+01 -0.21590908987E+01  0.16721123391E+02  0.00000000000E+00 0. -1.
</event>
<event>
 8    1  0.1240174E-006  0.9118800E+02  0.7816164E-02  0.1184000E+00
        -11   -1    0    0    0    0  0.00000000000E+00  0.00000000000E+00  0.45593999997E+02  0.45594000000E+02  0.51100000000E-03 0.  1.
         11   -1    0    0    0    0 -0.00000000000E+00 -0.00000000000E+00 -0.45593999997E+02  0.45594000000E+02  0.51100000000E-03 0. -1.
         23    2    1    2    0    0 -0.71054273576E-14 -0.44408920985E-15  0.00000000000E+00  0.91188000000E+02  0.91188000000E+02 0.  0.
    9900012    2    3    3    0    0 -0.33401595333E+02  0.26456465201E+01  0.15268359768E+02  0.54366962178E+02  0.39999721877E+02 0.  0.
         12    1    3    3    0    0  0.33401595333E+02 -0.26456465201E+01 -0.15268359768E+02  0.36821037822E+02  0.00000000000E+00 0. -1.
         11    1    4    4    0    0 -0.11295519433E+01  0.41765138418E+01 -0.59263137735E+00  0.43669632096E+01  0.51100000000E-03 0. -1.
        -11    1    4    4    0    0 -0.17659348661E+02 -0.27052781976E+01  0.26448299902E+02  0.31916824611E+02  0.51100000000E-03 0.  1.
         12    1    4    4    0    0 -0.14612694729E+02  0.11744108759E+01 -0.10587308757E+02  0.18083174358E+02  0.00000000000E+00 0. -1.
</event>
<event>
 8    1  0.1240174E-006  0.9118800E+02  0.7816164E-02  0.1184000E+00
        -11   -1    0    0    0    0  0.00000000000E+00  0.00000000000E+00  0.45593999997E+02  0.45594000000E+02  0.51100000000E-03 0.  1.
         11   -1    0    0    0    0 -0.00000000000E+00 -0.00000000000E+00 -0.45593999997E+02  0.45594000000E+02  0.51100000000E-03 0. -1.
         23    2    1    2    0    0  0.00000000000E+00 -0.35527136788E-14  0.00000000000E+00  0.91188000000E+02  0.91188000000E+02 0.  0.
    9900012    2    3    3    0    0 -0.26451344802E+02 -0.19075123959E+02  0.17095096296E+02  0.54367132096E+02  0.40000109238E+02 0.  0.
         12    1    3    3    0    0  0.26451344802E+02  0.19075123959E+02 -0.17095096296E+02  0.36820867904E+02  0.00000000000E+00 0. -1.
         11    1    4    4    0    0 -0.19554139808E+02 -0.58045838560E+00  0.13736439192E+01  0.19610920770E+02  0.51100000000E-03 0. -1.
        -11    1    4    4    0    0 -0.15601073227E+02 -0.13282937066E+02  0.12951742312E+02  0.24239998600E+02  0.51100000000E-03 0.  1.
         12    1    4    4    0    0  0.87038682334E+01 -0.52117285077E+01  0.27697100642E+01  0.10516212726E+02  0.00000000000E+00 0. -1.
</event>
<event>
 8    1  0.1240174E-006  0.9118800E+02  0.7816164E-02  0.1184000E+00
        -11   -1    0    0    0    0  0.00000000000E+00  0.00000000000E+00  0.45593999997E+02  0.45594000000E+02  0.51100000000E-03 0. -1.
         11   -1    0    0    0    0 -0.00000000000E+00 -0.00000000000E+00 -0.45593999997E+02  0.45594000000E+02  0.51100000000E-03 0.  1.
         23    2    1    2    0    0  0.00000000000E+00  0.00000000000E+00  0.00000000000E+00  0.91188000000E+02  0.91188000000E+02 0.  0.
    9900012    2    3    3    0    0 -0.17354645045E+02  0.43271632396E+01  0.32184967001E+02  0.54367080034E+02  0.39999990553E+02 0.  0.
        -12    1    3    3    0    0  0.17354645045E+02 -0.43271632396E+01 -0.32184967001E+02  0.36820919966E+02  0.00000000000E+00 0.  1.
         11    1    4    4    0    0 -0.33836661499E+01 -0.74872891709E+01  0.27776991603E+02  0.28966704309E+02  0.51100000000E-03 0. -1.
        -11    1    4    4    0    0  0.36597350198E+00  0.94779314677E+01  0.52663407474E+01  0.10848938503E+02  0.51100000000E-03 0.  1.
        -12    1    4    4    0    0 -0.14336952397E+02  0.23365209427E+01 -0.85836534975E+00  0.14551437222E+02  0.00000000000E+00 0.  1.
</event>
<event>
 8    1  0.1240174E-006  0.9118800E+02  0.7816164E-02  0.1184000E+00
        -11   -1    0    0    0    0  0.00000000000E+00  0.00000000000E+00  0.45593999997E+02  0.45594000000E+02  0.51100000000E-03 0.  1.
         11   -1    0    0    0    0 -0.00000000000E+00 -0.00000000000E+00 -0.45593999997E+02  0.45594000000E+02  0.51100000000E-03 0. -1.
         23    2    1    2    0    0 -0.71054273576E-14  0.00000000000E+00 -0.53290705182E-14  0.91188000000E+02  0.91188000000E+02 0.  0.
    9900012    2    3    3    0    0  0.35585357878E+02  0.26727873167E+01  0.90730739701E+01  0.54367052720E+02  0.39999928285E+02 0.  0.
        -12    1    3    3    0    0 -0.35585357878E+02 -0.26727873167E+01 -0.90730739701E+01  0.36820947280E+02  0.00000000000E+00 0.  1.
         11    1    4    4    0    0  0.44634230176E+01  0.24921603410E+01 -0.11756951766E+02  0.12820254416E+02  0.51100000000E-03 0. -1.
        -11    1    4    4    0    0  0.32153279517E+02  0.21718891210E+00  0.22735376890E+02  0.39379917690E+02  0.51100000000E-03 0.  1.
        -12    1    4    4    0    0 -0.10313446565E+01 -0.36561936435E-01 -0.19053511539E+01  0.21668806140E+01  0.00000000000E+00 0.  1.
</event>
<event>
 8    1  0.1240174E-006  0.9118800E+02  0.7816164E-02  0.1184000E+00
        -11   -1    0    0    0    0  0.00000000000E+00  0.00000000000E+00  0.45593999997E+02  0.45594000000E+02  0.51100000000E-03 0.  1.
         11   -1    0    0    0    0 -0.00000000000E+00 -0.00000000000E+00 -0.45593999997E+02  0.45594000000E+02  0.51100000000E-03 0. -1.
         23    2    1    2    0    0  0.00000000000E+00  0.00000000000E+00  0.88817841970E-15  0.91188000000E+02  0.91188000000E+02 0.  0.
    9900012    2    3    3    0    0  0.99375508699E+01  0.35184351869E+02 -0.43687825480E+01  0.54367084820E+02  0.40000001464E+02 0.  0.
        -12    1    3    3    0    0 -0.99375508699E+01 -0.35184351869E+02  0.43687825480E+01  0.36820915180E+02  0.00000000000E+00 0.  1.
         11    1    4    4    0    0  0.64711900333E+00  0.25595558898E+02 -0.27695351860E+01  0.25753091537E+02  0.51100000000E-03 0. -1.
        -11    1    4    4    0    0  0.54098326564E+01 -0.27445227876E+01 -0.11045361353E+02  0.12601535715E+02  0.51100000000E-03 0.  1.
         12    1    4    4    0    0  0.38805992102E+01  0.12333315759E+02  0.94461139911E+01  0.16012457568E+02  0.00000000000E+00 0. -1.
</event>
<event>
 8    1  0.1240174E-006  0.9118800E+02  0.7816164E-02  0.1184000E+00
        -11   -1    0    0    0    0  0.00000000000E+00  0.00000000000E+00  0.45593999997E+02  0.45594000000E+02  0.51100000000E-03 0.  1.
         11   -1    0    0    0    0 -0.00000000000E+00 -0.00000000000E+00 -0.45593999997E+02  0.45594000000E+02  0.51100000000E-03 0. -1.
         23    2    1    2    0    0  0.17763568394E-14  0.17763568394E-14  0.00000000000E+00  0.91188000000E+02  0.91188000000E+02 0.  0.
    9900012    2    3    3    0    0 -0.12968874493E+02 -0.90473392210E+01 -0.33252581263E+02  0.54367079137E+02  0.39999988508E+02 0.  0.
        -12    1    3    3    0    0  0.12968874493E+02  0.90473392210E+01  0.33252581263E+02  0.36820920863E+02  0.00000000000E+00 0.  1.
         11    1    4    4    0    0  0.68943709356E+01 -0.47814396121E+01 -0.96999181523E+01  0.12825089777E+02  0.51100000000E-03 0. -1.
        -11    1    4    4    0    0  0.43579152704E+01 -0.85214874646E+01 -0.76893232720E+01  0.12277331418E+02  0.51100000000E-03 0.  1.
         12    1    4    4    0    0 -0.24221160699E+02  0.42555878557E+01 -0.15863339838E+02  0.29264657942E+02  0.00000000000E+00 0. -1.
</event>
<event>
 8    1  0.1240174E-006  0.9118800E+02  0.7816164E-02  0.1184000E+00
        -11   -1    0    0    0    0  0.00000000000E+00  0.00000000000E+00  0.45593999997E+02  0.45594000000E+02  0.51100000000E-03 0.  1.
         11   -1    0    0    0    0 -0.00000000000E+00 -0.00000000000E+00 -0.45593999997E+02  0.45594000000E+02  0.51100000000E-03 0. -1.
         23    2    1    2    0    0  0.00000000000E+00  0.00000000000E+00 -0.17763568394E-14  0.91188000000E+02  0.91188000000E+02 0.  0.
    9900012    2    3    3    0    0  0.34754208308E+02  0.13455893133E+01  0.12087746713E+02  0.54367092539E+02  0.40000019060E+02 0.  0.
         12    1    3    3    0    0 -0.34754208308E+02 -0.13455893133E+01 -0.12087746713E+02  0.36820907461E+02  0.00000000000E+00 0. -1.
         11    1    4    4    0    0  0.23900665714E+02  0.14886936087E+02  0.21031107608E+01  0.28236249092E+02  0.51100000000E-03 0. -1.
        -11    1    4    4    0    0  0.12102420680E+02 -0.90233837477E+01  0.13515614164E+02  0.20262326300E+02  0.51100000000E-03 0.  1.
         12    1    4    4    0    0 -0.12488780863E+01 -0.45179630258E+01 -0.35309782123E+01  0.58685171477E+01  0.00000000000E+00 0. -1.
</event>
<event>
 8    1  0.1240174E-006  0.9118800E+02  0.7816164E-02  0.1184000E+00
        -11   -1    0    0    0    0  0.00000000000E+00  0.00000000000E+00  0.45593999997E+02  0.45594000000E+02  0.51100000000E-03 0.  1.
         11   -1    0    0    0    0 -0.00000000000E+00 -0.00000000000E+00 -0.45593999997E+02  0.45594000000E+02  0.51100000000E-03 0. -1.
         23    2    1    2    0    0 -0.35527136788E-14  0.00000000000E+00 -0.35527136788E-14  0.91188000000E+02  0.91188000000E+02 0.  0.
    9900012    2    3    3    0    0  0.19658090399E+02  0.16665688117E+02 -0.26298171136E+02  0.54367089044E+02  0.40000011094E+02 0.  0.
        -12    1    3    3    0    0 -0.19658090399E+02 -0.16665688117E+02  0.26298171136E+02  0.36820910956E+02  0.00000000000E+00 0.  1.
         11    1    4    4    0    0  0.11815521299E+02  0.55620157136E+01  0.19903750880E+00  0.13060711258E+02  0.51100000000E-03 0. -1.
        -11    1    4    4    0    0  0.18320291356E+01  0.97484561207E+01  0.36247938329E+01  0.10560675077E+02  0.51100000000E-03 0.  1.
         12    1    4    4    0    0  0.60105399648E+01  0.13552162822E+01 -0.30122002477E+02  0.30745702709E+02  0.00000000000E+00 0. -1.
</event>
<event>
 8    1  0.1240174E-006  0.9118800E+02  0.7816164E-02  0.1184000E+00
        -11   -1    0    0    0    0  0.00000000000E+00  0.00000000000E+00  0.45593999997E+02  0.45594000000E+02  0.51100000000E-03 0.  1.
         11   -1    0    0    0    0 -0.00000000000E+00 -0.00000000000E+00 -0.45593999997E+02  0.45594000000E+02  0.51100000000E-03 0. -1.
         23    2    1    2    0    0 -0.17763568394E-14  0.88817841970E-15 -0.71054273576E-14  0.91188000000E+02  0.91188000000E+02 0.  0.
    9900012    2    3    3    0    0  0.12418861771E+02  0.51385406105E+01 -0.34280416393E+02  0.54367086440E+02  0.40000005158E+02 0.  0.
        -12    1    3    3    0    0 -0.12418861771E+02 -0.51385406105E+01  0.34280416393E+02  0.36820913560E+02  0.00000000000E+00 0.  1.
         11    1    4    4    0    0 -0.43780853870E+01 -0.15094393328E+01 -0.25123031159E+02  0.25546286103E+02  0.51100000000E-03 0. -1.
        -11    1    4    4    0    0 -0.47216082244E+01  0.23489445277E+01 -0.28197565722E+01  0.59801464871E+01  0.51100000000E-03 0.  1.
         12    1    4    4    0    0  0.21518555383E+02  0.42990354157E+01 -0.63376286614E+01  0.22840653850E+02  0.00000000000E+00 0. -1.
</event>
<event>
 8    1  0.1240174E-006  0.9118800E+02  0.7816164E-02  0.1184000E+00
        -11   -1    0    0    0    0  0.00000000000E+00  0.00000000000E+00  0.45593999997E+02  0.45594000000E+02  0.51100000000E-03 0.  1.
         11   -1    0    0    0    0 -0.00000000000E+00 -0.00000000000E+00 -0.45593999997E+02  0.45594000000E+02  0.51100000000E-03 0. -1.
         23    2    1    2    0    0  0.00000000000E+00  0.44408920985E-15  0.00000000000E+00  0.91188000000E+02  0.91188000000E+02 0.  0.
    9900012    2    3    3    0    0 -0.35534789155E+02  0.20601552566E+01 -0.94241401881E+01  0.54367083413E+02  0.39999998258E+02 0.  0.
        -12    1    3    3    0    0  0.35534789155E+02 -0.20601552566E+01  0.94241401881E+01  0.36820916587E+02  0.00000000000E+00 0.  1.
         11    1    4    4    0    0 -0.35103951193E+02 -0.56130196960E+01 -0.48185467027E+01  0.35874946300E+02  0.51100000000E-03 0. -1.
        -11    1    4    4    0    0 -0.86692509357E-01  0.10067264862E+02  0.30049262603E+01  0.10506517952E+02  0.51100000000E-03 0.  1.
         12    1    4    4    0    0 -0.34414545319E+00 -0.23940899092E+01 -0.76105197457E+01  0.79856191611E+01  0.00000000000E+00 0. -1.
</event>
<event>
 8    1  0.1240174E-006  0.9118800E+02  0.7816164E-02  0.1184000E+00
        -11   -1    0    0    0    0  0.00000000000E+00  0.00000000000E+00  0.45593999997E+02  0.45594000000E+02  0.51100000000E-03 0. -1.
         11   -1    0    0    0    0 -0.00000000000E+00 -0.00000000000E+00 -0.45593999997E+02  0.45594000000E+02  0.51100000000E-03 0.  1.
         23    2    1    2    0    0  0.35527136788E-14  0.00000000000E+00 -0.71054273576E-14  0.91188000000E+02  0.91188000000E+02 0.  0.
    9900012    2    3    3    0    0 -0.27343584503E+02  0.11818210924E+02  0.21643446954E+02  0.54367074984E+02  0.39999979042E+02 0.  0.
        -12    1    3    3    0    0  0.27343584503E+02 -0.11818210924E+02 -0.21643446954E+02  0.36820925016E+02  0.00000000000E+00 0.  1.
         11    1    4    4    0    0 -0.13525998651E+02  0.55849793068E+01 -0.18011383923E+01  0.14744108421E+02  0.51100000000E-03 0. -1.
        -11    1    4    4    0    0  0.24885511997E+01  0.52750952053E+01 -0.44237491740E+01  0.73204558270E+01  0.51100000000E-03 0.  1.
         12    1    4    4    0    0 -0.16306137052E+02  0.95813641232E+00  0.27868334520E+02  0.32302510737E+02  0.00000000000E+00 0. -1.
</event>
<event>
 8    1  0.1240174E-006  0.9118800E+02  0.7816164E-02  0.1184000E+00
        -11   -1    0    0    0    0  0.00000000000E+00  0.00000000000E+00  0.45593999997E+02  0.45594000000E+02  0.51100000000E-03 0. -1.
         11   -1    0    0    0    0 -0.00000000000E+00 -0.00000000000E+00 -0.45593999997E+02  0.45594000000E+02  0.51100000000E-03 0.  1.
         23    2    1    2    0    0  0.00000000000E+00  0.00000000000E+00 -0.71054273576E-14  0.91188000000E+02  0.91188000000E+02 0.  0.
    9900012    2    3    3    0    0  0.16982159870E+01  0.17110141102E+02 -0.32559780946E+02  0.54367079298E+02  0.39999988876E+02 0.  0.
         12    1    3    3    0    0 -0.16982159870E+01 -0.17110141102E+02  0.32559780946E+02  0.36820920702E+02  0.00000000000E+00 0. -1.
         11    1    4    4    0    0  0.14686949318E+01 -0.14151990929E+00  0.62392912416E+01  0.64113842613E+01  0.51100000000E-03 0. -1.
        -11    1    4    4    0    0  0.85220673126E+01  0.15854068859E+02 -0.17707365325E+02  0.25249315192E+02  0.51100000000E-03 0.  1.
         12    1    4    4    0    0 -0.82925462574E+01  0.13975921518E+01 -0.21091706863E+02  0.22706379845E+02  0.00000000000E+00 0. -1.
</event>
<event>
 8    1  0.1240174E-006  0.9118800E+02  0.7816164E-02  0.1184000E+00
        -11   -1    0    0    0    0  0.00000000000E+00  0.00000000000E+00  0.45593999997E+02  0.45594000000E+02  0.51100000000E-03 0.  1.
         11   -1    0    0    0    0 -0.00000000000E+00 -0.00000000000E+00 -0.45593999997E+02  0.45594000000E+02  0.51100000000E-03 0. -1.
         23    2    1    2    0    0  0.17763568394E-14  0.71054273576E-14 -0.44408920985E-15  0.91188000000E+02  0.91188000000E+02 0.  0.
    9900012    2    3    3    0    0  0.15399898179E+02 -0.33380212961E+02  0.20938420178E+01  0.54367086708E+02  0.40000005769E+02 0.  0.
        -12    1    3    3    0    0 -0.15399898179E+02  0.33380212961E+02 -0.20938420178E+01  0.36820913292E+02  0.00000000000E+00 0.  1.
         11    1    4    4    0    0 -0.14608539038E+01 -0.21049893581E+02  0.72978672510E+01  0.22326911577E+02  0.51100000000E-03 0. -1.
        -11    1    4    4    0    0 -0.16649833588E+01 -0.11352527108E+02  0.28392722621E+01  0.11820046893E+02  0.51100000000E-03 0.  1.
         12    1    4    4    0    0  0.18525735441E+02 -0.97779227234E+00 -0.80432974953E+01  0.20220128238E+02  0.00000000000E+00 0. -1.
</event>
<event>
 8    1  0.1240174E-006  0.9118800E+02  0.7816164E-02  0.1184000E+00
        -11   -1    0    0    0    0  0.00000000000E+00  0.00000000000E+00  0.45593999997E+02  0.45594000000E+02  0.51100000000E-03 0.  1.
         11   -1    0    0    0    0 -0.00000000000E+00 -0.00000000000E+00 -0.45593999997E+02  0.45594000000E+02  0.51100000000E-03 0. -1.
         23    2    1    2    0    0  0.71054273576E-14  0.44408920985E-15  0.00000000000E+00  0.91188000000E+02  0.91188000000E+02 0.  0.
    9900012    2    3    3    0    0 -0.34901219492E+02 -0.23852106767E+01 -0.11488926487E+02  0.54367084968E+02  0.40000001801E+02 0.  0.
         12    1    3    3    0    0  0.34901219492E+02  0.23852106767E+01  0.11488926487E+02  0.36820915032E+02  0.00000000000E+00 0. -1.
         11    1    4    4    0    0 -0.11831408080E+02 -0.98664452762E+01 -0.12227269230E+02  0.19668123261E+02  0.51100000000E-03 0. -1.
        -11    1    4    4    0    0  0.18537975028E+01  0.87221883492E+01  0.35268750368E+01  0.95891596382E+01  0.51100000000E-03 0.  1.
         12    1    4    4    0    0 -0.24923608915E+02 -0.12409537497E+01 -0.27885322937E+01  0.25109802068E+02  0.00000000000E+00 0. -1.
</event>
<event>
 8    1  0.1240174E-006  0.9118800E+02  0.7816164E-02  0.1184000E+00
        -11   -1    0    0    0    0  0.00000000000E+00  0.00000000000E+00  0.45593999997E+02  0.45594000000E+02  0.51100000000E-03 0. -1.
         11   -1    0    0    0    0 -0.00000000000E+00 -0.00000000000E+00 -0.45593999997E+02  0.45594000000E+02  0.51100000000E-03 0.  1.
         23    2    1    2    0    0  0.00000000000E+00  0.00000000000E+00  0.00000000000E+00  0.91188000000E+02  0.91188000000E+02 0.  0.
    9900012    2    3    3    0    0  0.11557541256E+02  0.56885570801E+01 -0.34494103669E+02  0.54367087063E+02  0.40000006578E+02 0.  0.
         12    1    3    3    0    0 -0.11557541256E+02 -0.56885570801E+01  0.34494103669E+02  0.36820912937E+02  0.00000000000E+00 0. -1.
         11    1    4    4    0    0  0.21426197157E+02 -0.78724689027E+01 -0.18801886423E+02  0.29573106441E+02  0.51100000000E-03 0. -1.
        -11    1    4    4    0    0 -0.31012580673E+01  0.49121586619E+01 -0.11782833866E+02  0.13137057452E+02  0.51100000000E-03 0.  1.
         12    1    4    4    0    0 -0.67673978338E+01  0.86488673209E+01 -0.39093833797E+01  0.11656923170E+02  0.00000000000E+00 0. -1.
</event>
<event>
 8    1  0.1240174E-006  0.9118800E+02  0.7816164E-02  0.1184000E+00
        -11   -1    0    0    0    0  0.00000000000E+00  0.00000000000E+00  0.45593999997E+02  0.45594000000E+02  0.51100000000E-03 0.  1.
         11   -1    0    0    0    0 -0.00000000000E+00 -0.00000000000E+00 -0.45593999997E+02  0.45594000000E+02  0.51100000000E-03 0. -1.
         23    2    1    2    0    0 -0.71054273576E-14  0.00000000000E+00  0.00000000000E+00  0.91188000000E+02  0.91188000000E+02 0.  0.
    9900012    2    3    3    0    0 -0.33175658001E+02 -0.12275931449E+02 -0.10220478570E+02  0.54367069010E+02  0.39999965423E+02 0.  0.
        -12    1    3    3    0    0  0.33175658001E+02  0.12275931449E+02  0.10220478570E+02  0.36820930990E+02  0.00000000000E+00 0.  1.
         11    1    4    4    0    0 -0.36510741085E+02 -0.40959826479E+01 -0.10009131061E+02  0.38078786657E+02  0.51100000000E-03 0. -1.
        -11    1    4    4    0    0  0.29814472211E+01  0.22156396753E+00  0.54046339686E+01  0.61764218379E+01  0.51100000000E-03 0.  1.
         12    1    4    4    0    0  0.35363586283E+00 -0.84015127685E+01 -0.56159814772E+01  0.10111860515E+02  0.00000000000E+00 0. -1.
</event>
<event>
 8    1  0.1240174E-006  0.9118800E+02  0.7816164E-02  0.1184000E+00
        -11   -1    0    0    0    0  0.00000000000E+00  0.00000000000E+00  0.45593999997E+02  0.45594000000E+02  0.51100000000E-03 0.  1.
         11   -1    0    0    0    0 -0.00000000000E+00 -0.00000000000E+00 -0.45593999997E+02  0.45594000000E+02  0.51100000000E-03 0. -1.
         23    2    1    2    0    0  0.22204460493E-14  0.00000000000E+00  0.00000000000E+00  0.91188000000E+02  0.91188000000E+02 0.  0.
    9900012    2    3    3    0    0  0.15730885332E+01  0.29777834999E+02  0.21600616878E+02  0.54367072333E+02  0.39999972998E+02 0.  0.
         12    1    3    3    0    0 -0.15730885332E+01 -0.29777834999E+02 -0.21600616878E+02  0.36820927667E+02  0.00000000000E+00 0. -1.
         11    1    4    4    0    0 -0.11490848331E+02  0.10151264743E+02  0.21367432447E+02  0.26299333469E+02  0.51100000000E-03 0. -1.
        -11    1    4    4    0    0  0.84655707117E+01  0.10503509913E+02 -0.73330946487E+01  0.15354604695E+02  0.51100000000E-03 0.  1.
        -12    1    4    4    0    0  0.45983661526E+01  0.91230603429E+01  0.75662790793E+01  0.12713134169E+02  0.00000000000E+00 0.  1.
</event>
<event>
 8    1  0.1240174E-006  0.9118800E+02  0.7816164E-02  0.1184000E+00
        -11   -1    0    0    0    0  0.00000000000E+00  0.00000000000E+00  0.45593999997E+02  0.45594000000E+02  0.51100000000E-03 0.  1.
         11   -1    0    0    0    0 -0.00000000000E+00 -0.00000000000E+00 -0.45593999997E+02  0.45594000000E+02  0.51100000000E-03 0. -1.
         23    2    1    2    0    0 -0.17763568394E-14 -0.88817841970E-15  0.71054273576E-14  0.91188000000E+02  0.91188000000E+02 0.  0.
    9900012    2    3    3    0    0 -0.11344994520E+02 -0.67439682197E+01  0.34374261875E+02  0.54367083560E+02  0.39999998592E+02 0.  0.
         12    1    3    3    0    0  0.11344994520E+02  0.67439682197E+01 -0.34374261875E+02  0.36820916440E+02  0.00000000000E+00 0. -1.
         11    1    4    4    0    0  0.50519357095E+01 -0.55417882059E+01  0.32748369796E+02  0.33595969929E+02  0.51100000000E-03 0. -1.
        -11    1    4    4    0    0 -0.11619437016E+02  0.40299511252E+01 -0.25314869598E+01  0.12556283253E+02  0.51100000000E-03 0.  1.
         12    1    4    4    0    0 -0.47774932137E+01 -0.52321311391E+01  0.41573790389E+01  0.82148303778E+01  0.00000000000E+00 0. -1.
</event>
<event>
 8    1  0.1240174E-006  0.9118800E+02  0.7816164E-02  0.1184000E+00
        -11   -1    0    0    0    0  0.00000000000E+00  0.00000000000E+00  0.45593999997E+02  0.45594000000E+02  0.51100000000E-03 0.  1.
         11   -1    0    0    0    0 -0.00000000000E+00 -0.00000000000E+00 -0.45593999997E+02  0.45594000000E+02  0.51100000000E-03 0. -1.
         23    2    1    2    0    0  0.00000000000E+00  0.00000000000E+00  0.00000000000E+00  0.91188000000E+02  0.91188000000E+02 0.  0.
    9900012    2    3    3    0    0  0.21298774085E+02 -0.15328070780E+02 -0.25830067322E+02  0.54367083264E+02  0.39999997917E+02 0.  0.
        -12    1    3    3    0    0 -0.21298774085E+02  0.15328070780E+02  0.25830067322E+02  0.36820916736E+02  0.00000000000E+00 0.  1.
         11    1    4    4    0    0  0.28800251940E+01 -0.13030706990E+02  0.59846027278E+01  0.14625639810E+02  0.51100000000E-03 0. -1.
        -11    1    4    4    0    0  0.92644186382E+01 -0.85749145564E+01 -0.18666661046E+02  0.22534481294E+02  0.51100000000E-03 0.  1.
        -12    1    4    4    0    0  0.91543302532E+01  0.62775507656E+01 -0.13148009005E+02  0.17206962160E+02  0.00000000000E+00 0.  1.
</event>
<event>
 8    1  0.1240174E-006  0.9118800E+02  0.7816164E-02  0.1184000E+00
        -11   -1    0    0    0    0  0.00000000000E+00  0.00000000000E+00  0.45593999997E+02  0.45594000000E+02  0.51100000000E-03 0. -1.
         11   -1    0    0    0    0 -0.00000000000E+00 -0.00000000000E+00 -0.45593999997E+02  0.45594000000E+02  0.51100000000E-03 0.  1.
         23    2    1    2    0    0  0.17763568394E-14 -0.35527136788E-14 -0.35527136788E-14  0.91188000000E+02  0.91188000000E+02 0.  0.
    9900012    2    3    3    0    0 -0.14641888083E+02  0.19922205829E+02  0.27285510037E+02  0.54367106071E+02  0.40000049911E+02 0.  0.
        -12    1    3    3    0    0  0.14641888083E+02 -0.19922205829E+02 -0.27285510037E+02  0.36820893929E+02  0.00000000000E+00 0.  1.
         11    1    4    4    0    0  0.87625335932E+01  0.13606766608E+02  0.24519125620E+01  0.16368810829E+02  0.51100000000E-03 0.  1.
        -11    1    4    4    0    0 -0.11759830009E+02  0.10837958544E+02  0.16520319174E+02  0.22992953119E+02  0.51100000000E-03 0. -1.
        -12    1    4    4    0    0 -0.11644591667E+02 -0.45225193233E+01  0.83132783010E+01  0.15005342123E+02  0.00000000000E+00 0.  1.
</event>
<event>
 8    1  0.1240174E-006  0.9118800E+02  0.7816164E-02  0.1184000E+00
        -11   -1    0    0    0    0  0.00000000000E+00  0.00000000000E+00  0.45593999997E+02  0.45594000000E+02  0.51100000000E-03 0. -1.
         11   -1    0    0    0    0 -0.00000000000E+00 -0.00000000000E+00 -0.45593999997E+02  0.45594000000E+02  0.51100000000E-03 0.  1.
         23    2    1    2    0    0  0.00000000000E+00  0.00000000000E+00  0.00000000000E+00  0.91188000000E+02  0.91188000000E+02 0.  0.
    9900012    2    3    3    0    0  0.32563083494E+01 -0.32086932196E+02 -0.17765219999E+02  0.54367111860E+02  0.40000063107E+02 0.  0.
         12    1    3    3    0    0 -0.32563083494E+01  0.32086932196E+02  0.17765219999E+02  0.36820888140E+02  0.00000000000E+00 0. -1.
         11    1    4    4    0    0  0.26285489081E+01 -0.16056849643E+02 -0.14736175410E+02  0.21951914627E+02  0.51100000000E-03 0. -1.
        -11    1    4    4    0    0  0.79306659803E+01 -0.21205027873E+02 -0.51475004264E+01  0.23217351935E+02  0.51100000000E-03 0.  1.
         12    1    4    4    0    0 -0.73029065390E+01  0.51749453197E+01  0.21184558376E+01  0.91978452974E+01  0.00000000000E+00 0. -1.
</event>
<event>
 8    1  0.1240174E-006  0.9118800E+02  0.7816164E-02  0.1184000E+00
        -11   -1    0    0    0    0  0.00000000000E+00  0.00000000000E+00  0.45593999997E+02  0.45594000000E+02  0.51100000000E-03 0.  1.
         11   -1    0    0    0    0 -0.00000000000E+00 -0.00000000000E+00 -0.45593999997E+02  0.45594000000E+02  0.51100000000E-03 0. -1.
         23    2    1    2    0    0  0.35527136788E-14  0.88817841970E-15  0.00000000000E+00  0.91188000000E+02  0.91188000000E+02 0.  0.
    9900012    2    3    3    0    0 -0.21801836501E+02 -0.18338662127E+01 -0.29615785691E+02  0.54367110519E+02  0.40000060049E+02 0.  0.
        -12    1    3    3    0    0  0.21801836501E+02  0.18338662127E+01  0.29615785691E+02  0.36820889481E+02  0.00000000000E+00 0.  1.
         11    1    4    4    0    0 -0.20074133057E+02  0.10188641810E+02 -0.20250880610E+02  0.30279983581E+02  0.51100000000E-03 0. -1.
        -11    1    4    4    0    0  0.76911409847E+01 -0.18811784905E+01 -0.57405151224E+01  0.97798771102E+01  0.51100000000E-03 0.  1.
        -12    1    4    4    0    0 -0.94188444292E+01 -0.10141329532E+02 -0.36243899585E+01  0.14307249828E+02  0.00000000000E+00 0.  1.
</event>
<event>
 8    1  0.1240174E-006  0.9118800E+02  0.7816164E-02  0.1184000E+00
        -11   -1    0    0    0    0  0.00000000000E+00  0.00000000000E+00  0.45593999997E+02  0.45594000000E+02  0.51100000000E-03 0.  1.
         11   -1    0    0    0    0 -0.00000000000E+00 -0.00000000000E+00 -0.45593999997E+02  0.45594000000E+02  0.51100000000E-03 0. -1.
         23    2    1    2    0    0  0.44408920985E-15  0.00000000000E+00  0.00000000000E+00  0.91188000000E+02  0.91188000000E+02 0.  0.
    9900012    2    3    3    0    0 -0.17279987242E+01  0.34932533171E+02 -0.11511372724E+02  0.54367088070E+02  0.40000008874E+02 0.  0.
        -12    1    3    3    0    0  0.17279987242E+01 -0.34932533171E+02  0.11511372724E+02  0.36820911930E+02  0.00000000000E+00 0.  1.
         11    1    4    4    0    0 -0.13236630289E+02  0.37603534128E+02 -0.97927708256E+01  0.41050365662E+02  0.51100000000E-03 0. -1.
        -11    1    4    4    0    0  0.43490017625E+01  0.14241670537E+01  0.89805919150E+00  0.46635371446E+01  0.51100000000E-03 0.  1.
         12    1    4    4    0    0  0.71596298027E+01 -0.40951680104E+01 -0.26166610898E+01  0.86531852634E+01  0.00000000000E+00 0. -1.
</event>
<event>
 8    1  0.1240174E-006  0.9118800E+02  0.7816164E-02  0.1184000E+00
        -11   -1    0    0    0    0  0.00000000000E+00  0.00000000000E+00  0.45593999997E+02  0.45594000000E+02  0.51100000000E-03 0.  1.
         11   -1    0    0    0    0 -0.00000000000E+00 -0.00000000000E+00 -0.45593999997E+02  0.45594000000E+02  0.51100000000E-03 0. -1.
         23    2    1    2    0    0  0.00000000000E+00  0.00000000000E+00  0.88817841970E-15  0.91188000000E+02  0.91188000000E+02 0.  0.
    9900012    2    3    3    0    0 -0.34223964392E+02 -0.12048513311E+02 -0.62718397602E+01  0.54367049637E+02  0.39999921257E+02 0.  0.
        -12    1    3    3    0    0  0.34223964392E+02  0.12048513311E+02  0.62718397602E+01  0.36820950363E+02  0.00000000000E+00 0.  1.
         11    1    4    4    0    0 -0.18464313668E+02 -0.19425378466E+02 -0.15298918366E+02  0.30859894867E+02  0.51100000000E-03 0. -1.
        -11    1    4    4    0    0 -0.22803516824E+01 -0.35007145759E+01  0.30919896911E+01  0.51976347360E+01  0.51100000000E-03 0.  1.
         12    1    4    4    0    0 -0.13479299041E+02  0.10877579731E+02  0.59350889145E+01  0.18309520034E+02  0.00000000000E+00 0. -1.
</event>
<event>
 8    1  0.1240174E-006  0.9118800E+02  0.7816164E-02  0.1184000E+00
        -11   -1    0    0    0    0  0.00000000000E+00  0.00000000000E+00  0.45593999997E+02  0.45594000000E+02  0.51100000000E-03 0.  1.
         11   -1    0    0    0    0 -0.00000000000E+00 -0.00000000000E+00 -0.45593999997E+02  0.45594000000E+02  0.51100000000E-03 0. -1.
         23    2    1    2    0    0 -0.11102230246E-14 -0.35527136788E-14 -0.35527136788E-14  0.91188000000E+02  0.91188000000E+02 0.  0.
    9900012    2    3    3    0    0  0.10636029930E+01  0.20249830006E+02  0.30734226147E+02  0.54367088504E+02  0.40000009862E+02 0.  0.
         12    1    3    3    0    0 -0.10636029930E+01 -0.20249830006E+02 -0.30734226147E+02  0.36820911496E+02  0.00000000000E+00 0. -1.
         11    1    4    4    0    0 -0.92036371958E+01  0.41396558778E+01  0.13924907173E+02  0.17197288404E+02  0.51100000000E-03 0. -1.
        -11    1    4    4    0    0  0.44741430089E+01  0.27362210325E+01  0.21286390200E+02  0.21922939338E+02  0.51100000000E-03 0.  1.
         12    1    4    4    0    0  0.57930971798E+01  0.13373953095E+02 -0.44770712262E+01  0.15246860762E+02  0.00000000000E+00 0. -1.
</event>
<event>
 8    1  0.1240174E-006  0.9118800E+02  0.7816164E-02  0.1184000E+00
        -11   -1    0    0    0    0  0.00000000000E+00  0.00000000000E+00  0.45593999997E+02  0.45594000000E+02  0.51100000000E-03 0.  1.
         11   -1    0    0    0    0 -0.00000000000E+00 -0.00000000000E+00 -0.45593999997E+02  0.45594000000E+02  0.51100000000E-03 0. -1.
         23    2    1    2    0    0  0.00000000000E+00  0.00000000000E+00  0.00000000000E+00  0.91188000000E+02  0.91188000000E+02 0.  0.
    9900012    2    3    3    0    0 -0.29434482960E+02 -0.86932776490E+01 -0.20342499240E+02  0.54367093728E+02  0.40000021772E+02 0.  0.
         12    1    3    3    0    0  0.29434482960E+02  0.86932776490E+01  0.20342499240E+02  0.36820906272E+02  0.00000000000E+00 0. -1.
         11    1    4    4    0    0 -0.93062625092E+00 -0.16390262375E+02 -0.65074349891E+01  0.17659373611E+02  0.51100000000E-03 0. -1.
        -11    1    4    4    0    0 -0.45801467507E+01  0.78014875454E+00  0.39558943186E+01  0.61020878770E+01  0.51100000000E-03 0.  1.
         12    1    4    4    0    0 -0.23923709958E+02  0.69168359713E+01 -0.17790958569E+02  0.30605632240E+02  0.00000000000E+00 0. -1.
</event>
<event>
 8    1  0.1240174E-006  0.9118800E+02  0.7816164E-02  0.1184000E+00
        -11   -1    0    0    0    0  0.00000000000E+00  0.00000000000E+00  0.45593999997E+02  0.45594000000E+02  0.51100000000E-03 0. -1.
         11   -1    0    0    0    0 -0.00000000000E+00 -0.00000000000E+00 -0.45593999997E+02  0.45594000000E+02  0.51100000000E-03 0.  1.
         23    2    1    2    0    0  0.00000000000E+00  0.17763568394E-14  0.00000000000E+00  0.91188000000E+02  0.91188000000E+02 0.  0.
    9900012    2    3    3    0    0 -0.29071953120E+02 -0.10542455594E+02 -0.19986452431E+02  0.54367080553E+02  0.39999991736E+02 0.  0.
         12    1    3    3    0    0  0.29071953120E+02  0.10542455594E+02  0.19986452431E+02  0.36820919447E+02  0.00000000000E+00 0. -1.
         11    1    4    4    0    0 -0.14180348008E+02  0.11688130279E+02  0.15130660201E+01  0.18438655810E+02  0.51100000000E-03 0. -1.
        -11    1    4    4    0    0 -0.15620205937E+02 -0.15524241903E+02 -0.16981176413E+02  0.27809229993E+02  0.51100000000E-03 0.  1.
        -12    1    4    4    0    0  0.72860082504E+00 -0.67063439700E+01 -0.45183420379E+01  0.81191947493E+01  0.00000000000E+00 0.  1.
</event>
<event>
 8    1  0.1240174E-006  0.9118800E+02  0.7816164E-02  0.1184000E+00
        -11   -1    0    0    0    0  0.00000000000E+00  0.00000000000E+00  0.45593999997E+02  0.45594000000E+02  0.51100000000E-03 0.  1.
         11   -1    0    0    0    0 -0.00000000000E+00 -0.00000000000E+00 -0.45593999997E+02  0.45594000000E+02  0.51100000000E-03 0. -1.
         23    2    1    2    0    0  0.17763568394E-14  0.35527136788E-14  0.00000000000E+00  0.91188000000E+02  0.91188000000E+02 0.  0.
    9900012    2    3    3    0    0 -0.13269204410E+02 -0.27662403583E+02 -0.20359269647E+02  0.54367079069E+02  0.39999988354E+02 0.  0.
        -12    1    3    3    0    0  0.13269204410E+02  0.27662403583E+02  0.20359269647E+02  0.36820920931E+02  0.00000000000E+00 0.  1.
         11    1    4    4    0    0  0.17053439880E+01  0.17405376426E+01  0.70901380863E+01  0.74971813201E+01  0.51100000000E-03 0. -1.
        -11    1    4    4    0    0 -0.24651748905E+01 -0.83528550731E+01 -0.19112198287E+02  0.21002937860E+02  0.51100000000E-03 0.  1.
         12    1    4    4    0    0 -0.12509373507E+02 -0.21050086152E+02 -0.83372094464E+01  0.25866959889E+02  0.00000000000E+00 0. -1.
</event>
<event>
 8    1  0.1240174E-006  0.9118800E+02  0.7816164E-02  0.1184000E+00
        -11   -1    0    0    0    0  0.00000000000E+00  0.00000000000E+00  0.45593999997E+02  0.45594000000E+02  0.51100000000E-03 0. -1.
         11   -1    0    0    0    0 -0.00000000000E+00 -0.00000000000E+00 -0.45593999997E+02  0.45594000000E+02  0.51100000000E-03 0.  1.
         23    2    1    2    0    0 -0.88817841970E-15  0.17763568394E-14  0.71054273576E-14  0.91188000000E+02  0.91188000000E+02 0.  0.
    9900012    2    3    3    0    0 -0.72386627161E+01  0.15570180099E+02  0.32572023931E+02  0.54367279078E+02  0.40000444312E+02 0.  0.
        -12    1    3    3    0    0  0.72386627161E+01 -0.15570180099E+02 -0.32572023931E+02  0.36820720922E+02  0.00000000000E+00 0.  1.
         11    1    4    4    0    0 -0.85639795186E+01  0.16980724442E+02  0.17882195288E+02  0.26104782251E+02  0.51100000000E-03 0. -1.
        -11    1    4    4    0    0  0.82699755349E+01  0.34453687636E+01  0.17226596156E+02  0.19416968781E+02  0.51100000000E-03 0.  1.
        -12    1    4    4    0    0 -0.69446587324E+01 -0.48559131062E+01 -0.25367675134E+01  0.88455280465E+01  0.00000000000E+00 0.  1.
</event>
<event>
 8    1  0.1240174E-006  0.9118800E+02  0.7816164E-02  0.1184000E+00
        -11   -1    0    0    0    0  0.00000000000E+00  0.00000000000E+00  0.45593999997E+02  0.45594000000E+02  0.51100000000E-03 0.  1.
         11   -1    0    0    0    0 -0.00000000000E+00 -0.00000000000E+00 -0.45593999997E+02  0.45594000000E+02  0.51100000000E-03 0. -1.
         23    2    1    2    0    0 -0.35527136788E-14 -0.17763568394E-14 -0.35527136788E-14  0.91188000000E+02  0.91188000000E+02 0.  0.
    9900012    2    3    3    0    0  0.24781382207E+02 -0.15961907840E+02  0.22065379878E+02  0.54367076666E+02  0.39999982875E+02 0.  0.
         12    1    3    3    0    0 -0.24781382207E+02  0.15961907840E+02 -0.22065379878E+02  0.36820923334E+02  0.00000000000E+00 0. -1.
         11    1    4    4    0    0 -0.23915293154E+01 -0.13617936160E+01  0.71446436639E+01  0.76563586426E+01  0.51100000000E-03 0. -1.
        -11    1    4    4    0    0  0.27677632166E+02  0.10122352733E+01  0.48293058938E+01  0.28114020314E+02  0.51100000000E-03 0.  1.
        -12    1    4    4    0    0 -0.50472064335E+00 -0.15612349497E+02  0.10091430321E+02  0.18596697709E+02  0.00000000000E+00 0.  1.
</event>
<event>
 8    1  0.1240174E-006  0.9118800E+02  0.7816164E-02  0.1184000E+00
        -11   -1    0    0    0    0  0.00000000000E+00  0.00000000000E+00  0.45593999997E+02  0.45594000000E+02  0.51100000000E-03 0.  1.
         11   -1    0    0    0    0 -0.00000000000E+00 -0.00000000000E+00 -0.45593999997E+02  0.45594000000E+02  0.51100000000E-03 0. -1.
         23    2    1    2    0    0  0.00000000000E+00  0.00000000000E+00  0.00000000000E+00  0.91188000000E+02  0.91188000000E+02 0.  0.
    9900012    2    3    3    0    0  0.16504084643E+02 -0.32323047023E+02 -0.62141653815E+01  0.54367081623E+02  0.39999994176E+02 0.  0.
        -12    1    3    3    0    0 -0.16504084643E+02  0.32323047023E+02  0.62141653815E+01  0.36820918377E+02  0.00000000000E+00 0.  1.
         11    1    4    4    0    0  0.19115084254E+02 -0.32304594975E+01 -0.37598894737E+01  0.19747381693E+02  0.51100000000E-03 0. -1.
        -11    1    4    4    0    0  0.66355491644E+01 -0.17653279667E+02 -0.54032264703E+01  0.19617942100E+02  0.51100000000E-03 0.  1.
        -12    1    4    4    0    0 -0.92465487759E+01 -0.11439307859E+02  0.29489505625E+01  0.15001757829E+02  0.00000000000E+00 0.  1.
</event>
<event>
 8    1  0.1240174E-006  0.9118800E+02  0.7816164E-02  0.1184000E+00
        -11   -1    0    0    0    0  0.00000000000E+00  0.00000000000E+00  0.45593999997E+02  0.45594000000E+02  0.51100000000E-03 0.  1.
         11   -1    0    0    0    0 -0.00000000000E+00 -0.00000000000E+00 -0.45593999997E+02  0.45594000000E+02  0.51100000000E-03 0. -1.
         23    2    1    2    0    0 -0.17763568394E-14  0.00000000000E+00  0.00000000000E+00  0.91188000000E+02  0.91188000000E+02 0.  0.
    9900012    2    3    3    0    0  0.95224966193E+01  0.26044642885E+02  0.24223375568E+02  0.54367173166E+02  0.40000202865E+02 0.  0.
         12    1    3    3    0    0 -0.95224966193E+01 -0.26044642885E+02 -0.24223375568E+02  0.36820826834E+02  0.00000000000E+00 0. -1.
         11    1    4    4    0    0  0.43692194587E+01  0.53565942081E+01 -0.50771258825E+01  0.85767352574E+01  0.51100000000E-03 0. -1.
        -11    1    4    4    0    0 -0.94170623336E+01  0.14783210092E+02  0.22847087806E+02  0.28796072391E+02  0.51100000000E-03 0.  1.
        -12    1    4    4    0    0  0.14570339494E+02  0.59048385848E+01  0.64534136437E+01  0.16994365518E+02  0.00000000000E+00 0.  1.
</event>
<event>
 8    1  0.1240174E-006  0.9118800E+02  0.7816164E-02  0.1184000E+00
        -11   -1    0    0    0    0  0.00000000000E+00  0.00000000000E+00  0.45593999997E+02  0.45594000000E+02  0.51100000000E-03 0. -1.
         11   -1    0    0    0    0 -0.00000000000E+00 -0.00000000000E+00 -0.45593999997E+02  0.45594000000E+02  0.51100000000E-03 0.  1.
         23    2    1    2    0    0  0.17763568394E-14  0.00000000000E+00 -0.35527136788E-14  0.91188000000E+02  0.91188000000E+02 0.  0.
    9900012    2    3    3    0    0  0.10101417002E+02 -0.22659267791E+02  0.27208425330E+02  0.54367089484E+02  0.40000012096E+02 0.  0.
        -12    1    3    3    0    0 -0.10101417002E+02  0.22659267791E+02 -0.27208425330E+02  0.36820910516E+02  0.00000000000E+00 0.  1.
         11    1    4    4    0    0  0.23352598382E+02 -0.50667829424E+01  0.19010757961E+02  0.30535635888E+02  0.51100000000E-03 0. -1.
        -11    1    4    4    0    0 -0.33405329097E+01 -0.55234921608E+01  0.42333927326E+01  0.77194391027E+01  0.51100000000E-03 0.  1.
         12    1    4    4    0    0 -0.99106484703E+01 -0.12068992688E+02  0.39642746370E+01  0.16112014493E+02  0.00000000000E+00 0. -1.
</event>
<event>
 8    1  0.1240174E-006  0.9118800E+02  0.7816164E-02  0.1184000E+00
        -11   -1    0    0    0    0  0.00000000000E+00  0.00000000000E+00  0.45593999997E+02  0.45594000000E+02  0.51100000000E-03 0.  1.
         11   -1    0    0    0    0 -0.00000000000E+00 -0.00000000000E+00 -0.45593999997E+02  0.45594000000E+02  0.51100000000E-03 0. -1.
         23    2    1    2    0    0  0.71054273576E-14 -0.44408920985E-15  0.00000000000E+00  0.91188000000E+02  0.91188000000E+02 0.  0.
    9900012    2    3    3    0    0 -0.31495902235E+02  0.11477732192E+01  0.19038650088E+02  0.54367089661E+02  0.40000012501E+02 0.  0.
         12    1    3    3    0    0  0.31495902235E+02 -0.11477732192E+01 -0.19038650088E+02  0.36820910339E+02  0.00000000000E+00 0. -1.
         11    1    4    4    0    0 -0.16112215997E+02  0.96448884924E+01  0.25438118513E+01  0.18949890695E+02  0.51100000000E-03 0. -1.
        -11    1    4    4    0    0 -0.10475075480E+02 -0.13142278291E+02  0.21294942321E+02  0.27127868580E+02  0.51100000000E-03 0.  1.
        -12    1    4    4    0    0 -0.49086107583E+01  0.46451630176E+01 -0.48001040841E+01  0.82893303864E+01  0.00000000000E+00 0.  1.
</event>
<event>
 8    1  0.1240174E-006  0.9118800E+02  0.7816164E-02  0.1184000E+00
        -11   -1    0    0    0    0  0.00000000000E+00  0.00000000000E+00  0.45593999997E+02  0.45594000000E+02  0.51100000000E-03 0.  1.
         11   -1    0    0    0    0 -0.00000000000E+00 -0.00000000000E+00 -0.45593999997E+02  0.45594000000E+02  0.51100000000E-03 0. -1.
         23    2    1    2    0    0  0.00000000000E+00  0.17763568394E-14  0.00000000000E+00  0.91188000000E+02  0.91188000000E+02 0.  0.
    9900012    2    3    3    0    0 -0.35286982559E+02  0.36870644434E+01  0.98495083733E+01  0.54367103793E+02  0.40000044716E+02 0.  0.
         12    1    3    3    0    0  0.35286982559E+02 -0.36870644434E+01 -0.98495083733E+01  0.36820896207E+02  0.00000000000E+00 0. -1.
         11    1    4    4    0    0 -0.19901188491E+02  0.67554244087E+01  0.32946670393E+01  0.21273173094E+02  0.51100000000E-03 0. -1.
        -11    1    4    4    0    0  0.22275451136E+01  0.96423147084E+01  0.55582165025E+01  0.11350328679E+02  0.51100000000E-03 0.  1.
        -12    1    4    4    0    0 -0.17613339181E+02 -0.12710674674E+02  0.99662483156E+00  0.21743602020E+02  0.00000000000E+00 0.  1.
</event>
<event>
 8    1  0.1240174E-006  0.9118800E+02  0.7816164E-02  0.1184000E+00
        -11   -1    0    0    0    0  0.00000000000E+00  0.00000000000E+00  0.45593999997E+02  0.45594000000E+02  0.51100000000E-03 0.  1.
         11   -1    0    0    0    0 -0.00000000000E+00 -0.00000000000E+00 -0.45593999997E+02  0.45594000000E+02  0.51100000000E-03 0. -1.
         23    2    1    2    0    0  0.26645352591E-14  0.00000000000E+00  0.00000000000E+00  0.91188000000E+02  0.91188000000E+02 0.  0.
    9900012    2    3    3    0    0 -0.34926904879E+01 -0.27165769836E+02 -0.24608973649E+02  0.54367088527E+02  0.40000009916E+02 0.  0.
        -12    1    3    3    0    0  0.34926904879E+01  0.27165769836E+02  0.24608973649E+02  0.36820911473E+02  0.00000000000E+00 0.  1.
         11    1    4    4    0    0 -0.16848906983E+02 -0.10196130351E+02 -0.61046174984E+01  0.20618270919E+02  0.51100000000E-03 0. -1.
        -11    1    4    4    0    0  0.16250063211E+02 -0.17847381091E+02 -0.12868956523E+02  0.27353310739E+02  0.51100000000E-03 0.  1.
        -12    1    4    4    0    0 -0.28938467165E+01  0.87774160527E+00 -0.56353996278E+01  0.63955068689E+01  0.00000000000E+00 0.  1.
</event>
<event>
 8    1  0.1240174E-006  0.9118800E+02  0.7816164E-02  0.1184000E+00
        -11   -1    0    0    0    0  0.00000000000E+00  0.00000000000E+00  0.45593999997E+02  0.45594000000E+02  0.51100000000E-03 0. -1.
         11   -1    0    0    0    0 -0.00000000000E+00 -0.00000000000E+00 -0.45593999997E+02  0.45594000000E+02  0.51100000000E-03 0.  1.
         23    2    1    2    0    0  0.35527136788E-14  0.00000000000E+00 -0.35527136788E-14  0.91188000000E+02  0.91188000000E+02 0.  0.
    9900012    2    3    3    0    0  0.27300757330E+02 -0.18638531246E+02 -0.16218890905E+02  0.54367100772E+02  0.40000037829E+02 0.  0.
         12    1    3    3    0    0 -0.27300757330E+02  0.18638531246E+02  0.16218890905E+02  0.36820899228E+02  0.00000000000E+00 0. -1.
         11    1    4    4    0    0 -0.15250657706E+01  0.83454633915E+00  0.23989657331E+01  0.29626559109E+01  0.51100000000E-03 0. -1.
        -11    1    4    4    0    0  0.28018719118E+02 -0.14076329020E+02 -0.27016080883E+02  0.41389132466E+02  0.51100000000E-03 0.  1.
        -12    1    4    4    0    0  0.80710398166E+00 -0.53967485652E+01  0.83982242445E+01  0.10015312395E+02  0.00000000000E+00 0.  1.
</event>
<event>
 8    1  0.1240174E-006  0.9118800E+02  0.7816164E-02  0.1184000E+00
        -11   -1    0    0    0    0  0.00000000000E+00  0.00000000000E+00  0.45593999997E+02  0.45594000000E+02  0.51100000000E-03 0. -1.
         11   -1    0    0    0    0 -0.00000000000E+00 -0.00000000000E+00 -0.45593999997E+02  0.45594000000E+02  0.51100000000E-03 0.  1.
         23    2    1    2    0    0  0.17763568394E-14  0.00000000000E+00  0.00000000000E+00  0.91188000000E+02  0.91188000000E+02 0.  0.
    9900012    2    3    3    0    0  0.12106271990E+02 -0.33761642268E+02  0.83288784115E+01  0.54367074893E+02  0.39999978834E+02 0.  0.
        -12    1    3    3    0    0 -0.12106271990E+02  0.33761642268E+02 -0.83288784115E+01  0.36820925107E+02  0.00000000000E+00 0.  1.
         11    1    4    4    0    0 -0.55887493287E+01 -0.21638672778E+01 -0.53772883989E+01  0.80518116869E+01  0.51100000000E-03 0.  1.
        -11    1    4    4    0    0 -0.22346879713E+01 -0.69494130657E+01  0.12643943852E+02  0.14599913995E+02  0.51100000000E-03 0. -1.
        -12    1    4    4    0    0  0.19929709290E+02 -0.24648361925E+02  0.10622229586E+01  0.31715349211E+02  0.00000000000E+00 0.  1.
</event>
<event>
 8    1  0.1240174E-006  0.9118800E+02  0.7816164E-02  0.1184000E+00
        -11   -1    0    0    0    0  0.00000000000E+00  0.00000000000E+00  0.45593999997E+02  0.45594000000E+02  0.51100000000E-03 0. -1.
         11   -1    0    0    0    0 -0.00000000000E+00 -0.00000000000E+00 -0.45593999997E+02  0.45594000000E+02  0.51100000000E-03 0.  1.
         23    2    1    2    0    0  0.00000000000E+00  0.00000000000E+00 -0.17763568394E-14  0.91188000000E+02  0.91188000000E+02 0.  0.
    9900012    2    3    3    0    0 -0.18297962190E+02 -0.28867479339E+02  0.13697940767E+02  0.54367077076E+02  0.39999983811E+02 0.  0.
        -12    1    3    3    0    0  0.18297962190E+02  0.28867479339E+02 -0.13697940767E+02  0.36820922924E+02  0.00000000000E+00 0.  1.
         11    1    4    4    0    0 -0.73493671975E+00 -0.24342474048E+02  0.10777368347E+02  0.26631707484E+02  0.51100000000E-03 0. -1.
        -11    1    4    4    0    0 -0.34707213463E+00 -0.35071965781E+01  0.88281220383E+01  0.95056102323E+01  0.51100000000E-03 0.  1.
         12    1    4    4    0    0 -0.17215953336E+02 -0.10178087126E+01 -0.59075496182E+01  0.18229759360E+02  0.00000000000E+00 0. -1.
</event>
<event>
 8    1  0.1240174E-006  0.9118800E+02  0.7816164E-02  0.1184000E+00
        -11   -1    0    0    0    0  0.00000000000E+00  0.00000000000E+00  0.45593999997E+02  0.45594000000E+02  0.51100000000E-03 0.  1.
         11   -1    0    0    0    0 -0.00000000000E+00 -0.00000000000E+00 -0.45593999997E+02  0.45594000000E+02  0.51100000000E-03 0. -1.
         23    2    1    2    0    0  0.17763568394E-14  0.00000000000E+00  0.00000000000E+00  0.91188000000E+02  0.91188000000E+02 0.  0.
    9900012    2    3    3    0    0 -0.13322405923E+02 -0.21895259257E+02 -0.26436627263E+02  0.54367025834E+02  0.39999866994E+02 0.  0.
        -12    1    3    3    0    0  0.13322405923E+02  0.21895259257E+02  0.26436627263E+02  0.36820974166E+02  0.00000000000E+00 0.  1.
         11    1    4    4    0    0 -0.15226508545E+01 -0.10731837395E+02  0.15102747576E+01  0.10944027120E+02  0.51100000000E-03 0. -1.
        -11    1    4    4    0    0 -0.33454813596E+01 -0.54786262528E+01  0.55035208845E+01  0.84555504571E+01  0.51100000000E-03 0.  1.
         12    1    4    4    0    0 -0.84542737090E+01 -0.56847956084E+01 -0.33450422905E+02  0.34967448257E+02  0.00000000000E+00 0. -1.
</event>
<event>
 8    1  0.1240174E-006  0.9118800E+02  0.7816164E-02  0.1184000E+00
        -11   -1    0    0    0    0  0.00000000000E+00  0.00000000000E+00  0.45593999997E+02  0.45594000000E+02  0.51100000000E-03 0. -1.
         11   -1    0    0    0    0 -0.00000000000E+00 -0.00000000000E+00 -0.45593999997E+02  0.45594000000E+02  0.51100000000E-03 0.  1.
         23    2    1    2    0    0  0.00000000000E+00  0.88817841970E-15 -0.17763568394E-14  0.91188000000E+02  0.91188000000E+02 0.  0.
    9900012    2    3    3    0    0  0.32864516242E+02  0.51011483024E+01  0.15801368073E+02  0.54367063363E+02  0.39999952549E+02 0.  0.
        -12    1    3    3    0    0 -0.32864516242E+02 -0.51011483024E+01 -0.15801368073E+02  0.36820936637E+02  0.00000000000E+00 0.  1.
         11    1    4    4    0    0  0.11926875121E+02  0.14989127821E+01  0.53189594470E+01  0.13144900895E+02  0.51100000000E-03 0. -1.
        -11    1    4    4    0    0  0.16512541926E+02  0.14093194584E+02 -0.47322271199E+01  0.22218824186E+02  0.51100000000E-03 0.  1.
        -12    1    4    4    0    0  0.44250991954E+01 -0.10490959064E+02  0.15214635746E+02  0.19003338282E+02  0.00000000000E+00 0.  1.
</event>
<event>
 8    1  0.1240174E-006  0.9118800E+02  0.7816164E-02  0.1184000E+00
        -11   -1    0    0    0    0  0.00000000000E+00  0.00000000000E+00  0.45593999997E+02  0.45594000000E+02  0.51100000000E-03 0. -1.
         11   -1    0    0    0    0 -0.00000000000E+00 -0.00000000000E+00 -0.45593999997E+02  0.45594000000E+02  0.51100000000E-03 0.  1.
         23    2    1    2    0    0  0.35527136788E-14  0.00000000000E+00 -0.11102230246E-15  0.91188000000E+02  0.91188000000E+02 0.  0.
    9900012    2    3    3    0    0 -0.24665499631E+02 -0.27331460433E+02  0.61741013624E+00  0.54367125530E+02  0.40000094270E+02 0.  0.
         12    1    3    3    0    0  0.24665499631E+02  0.27331460433E+02 -0.61741013624E+00  0.36820874470E+02  0.00000000000E+00 0. -1.
         11    1    4    4    0    0 -0.31153945175E+01  0.42826248275E+01 -0.64163548675E+01  0.83196255000E+01  0.51100000000E-03 0. -1.
        -11    1    4    4    0    0 -0.18945054602E+02 -0.16179314256E+02 -0.60600414514E+01  0.25639996223E+02  0.51100000000E-03 0.  1.
        -12    1    4    4    0    0 -0.26050505122E+01 -0.15434771005E+02  0.13093806455E+02  0.20407503807E+02  0.00000000000E+00 0.  1.
</event>
<event>
 8    1  0.1240174E-006  0.9118800E+02  0.7816164E-02  0.1184000E+00
        -11   -1    0    0    0    0  0.00000000000E+00  0.00000000000E+00  0.45593999997E+02  0.45594000000E+02  0.51100000000E-03 0. -1.
         11   -1    0    0    0    0 -0.00000000000E+00 -0.00000000000E+00 -0.45593999997E+02  0.45594000000E+02  0.51100000000E-03 0.  1.
         23    2    1    2    0    0 -0.77715611724E-15 -0.71054273576E-14  0.00000000000E+00  0.91188000000E+02  0.91188000000E+02 0.  0.
    9900012    2    3    3    0    0  0.19605535545E+00  0.35947736279E+02  0.79687790242E+01  0.54367087187E+02  0.40000006860E+02 0.  0.
        -12    1    3    3    0    0 -0.19605535545E+00 -0.35947736279E+02 -0.79687790242E+01  0.36820912813E+02  0.00000000000E+00 0.  1.
         11    1    4    4    0    0  0.54466472080E+01  0.13516646305E+02 -0.42808071407E+00  0.14579058491E+02  0.51100000000E-03 0. -1.
        -11    1    4    4    0    0  0.44730334455E+01  0.22908074676E+02 -0.43562892608E+01  0.23743739595E+02  0.51100000000E-03 0.  1.
        -12    1    4    4    0    0 -0.97236252981E+01 -0.47698470243E+00  0.12753148999E+02  0.16044289100E+02  0.00000000000E+00 0.  1.
</event>
<event>
 8    1  0.1240174E-006  0.9118800E+02  0.7816164E-02  0.1184000E+00
        -11   -1    0    0    0    0  0.00000000000E+00  0.00000000000E+00  0.45593999997E+02  0.45594000000E+02  0.51100000000E-03 0. -1.
         11   -1    0    0    0    0 -0.00000000000E+00 -0.00000000000E+00 -0.45593999997E+02  0.45594000000E+02  0.51100000000E-03 0.  1.
         23    2    1    2    0    0  0.00000000000E+00 -0.88817841970E-15 -0.44408920985E-15  0.91188000000E+02  0.91188000000E+02 0.  0.
    9900012    2    3    3    0    0 -0.36643334038E+02 -0.26487538157E+01 -0.24558471649E+01  0.54367068297E+02  0.39999963796E+02 0.  0.
        -12    1    3    3    0    0  0.36643334038E+02  0.26487538157E+01  0.24558471649E+01  0.36820931703E+02  0.00000000000E+00 0.  1.
         11    1    4    4    0    0 -0.30927890374E+02 -0.65750277003E+01 -0.29023920218E+01  0.31751996346E+02  0.51100000000E-03 0. -1.
        -11    1    4    4    0    0 -0.32004125185E+01 -0.68063703580E+01 -0.61962463113E+01  0.97448851379E+01  0.51100000000E-03 0.  1.
         12    1    4    4    0    0 -0.25150311459E+01  0.10732644243E+02  0.66427911681E+01  0.12870186813E+02  0.00000000000E+00 0. -1.
</event>
<event>
 8    1  0.1240174E-006  0.9118800E+02  0.7816164E-02  0.1184000E+00
        -11   -1    0    0    0    0  0.00000000000E+00  0.00000000000E+00  0.45593999997E+02  0.45594000000E+02  0.51100000000E-03 0. -1.
         11   -1    0    0    0    0 -0.00000000000E+00 -0.00000000000E+00 -0.45593999997E+02  0.45594000000E+02  0.51100000000E-03 0.  1.
         23    2    1    2    0    0  0.00000000000E+00  0.00000000000E+00 -0.35527136788E-14  0.91188000000E+02  0.91188000000E+02 0.  0.
    9900012    2    3    3    0    0 -0.23442431170E+02 -0.16750516555E+02  0.22927072859E+02  0.54367108459E+02  0.40000055353E+02 0.  0.
        -12    1    3    3    0    0  0.23442431170E+02  0.16750516555E+02 -0.22927072859E+02  0.36820891541E+02  0.00000000000E+00 0.  1.
         11    1    4    4    0    0 -0.70005501323E+00 -0.68386805914E+01 -0.36100808482E+01  0.77646837182E+01  0.51100000000E-03 0. -1.
        -11    1    4    4    0    0 -0.12063100802E+02 -0.12175460399E+02 -0.80831510680E+00  0.17158485086E+02  0.51100000000E-03 0.  1.
         12    1    4    4    0    0 -0.10679275355E+02  0.22636244360E+01  0.27345468814E+02  0.29443939654E+02  0.00000000000E+00 0. -1.
</event>
<event>
 8    1  0.1240174E-006  0.9118800E+02  0.7816164E-02  0.1184000E+00
        -11   -1    0    0    0    0  0.00000000000E+00  0.00000000000E+00  0.45593999997E+02  0.45594000000E+02  0.51100000000E-03 0.  1.
         11   -1    0    0    0    0 -0.00000000000E+00 -0.00000000000E+00 -0.45593999997E+02  0.45594000000E+02  0.51100000000E-03 0. -1.
         23    2    1    2    0    0  0.00000000000E+00  0.00000000000E+00  0.35527136788E-14  0.91188000000E+02  0.91188000000E+02 0.  0.
    9900012    2    3    3    0    0  0.65179759183E+01 -0.17889194295E+02  0.31516253635E+02  0.54367061313E+02  0.39999947876E+02 0.  0.
         12    1    3    3    0    0 -0.65179759183E+01  0.17889194295E+02 -0.31516253635E+02  0.36820938687E+02  0.00000000000E+00 0. -1.
         11    1    4    4    0    0 -0.29419292752E+01 -0.43643109031E+01 -0.17887003053E+01  0.55589213488E+01  0.51100000000E-03 0. -1.
        -11    1    4    4    0    0  0.11481191259E+01 -0.18405806018E+02  0.52959111701E+01  0.19186936913E+02  0.51100000000E-03 0.  1.
        -12    1    4    4    0    0  0.83117860676E+01  0.48809226266E+01  0.28009042770E+02  0.29621203052E+02  0.00000000000E+00 0.  1.
</event>
<event>
 8    1  0.1240174E-006  0.9118800E+02  0.7816164E-02  0.1184000E+00
        -11   -1    0    0    0    0  0.00000000000E+00  0.00000000000E+00  0.45593999997E+02  0.45594000000E+02  0.51100000000E-03 0. -1.
         11   -1    0    0    0    0 -0.00000000000E+00 -0.00000000000E+00 -0.45593999997E+02  0.45594000000E+02  0.51100000000E-03 0.  1.
         23    2    1    2    0    0  0.17763568394E-14  0.17763568394E-14  0.00000000000E+00  0.91188000000E+02  0.91188000000E+02 0.  0.
    9900012    2    3    3    0    0 -0.12970062845E+02 -0.98600669344E+01  0.33020188925E+02  0.54367131911E+02  0.40000108818E+02 0.  0.
        -12    1    3    3    0    0  0.12970062845E+02  0.98600669344E+01 -0.33020188925E+02  0.36820868089E+02  0.00000000000E+00 0.  1.
         11    1    4    4    0    0 -0.17983049482E+00 -0.63112352889E+01  0.35818372969E+02  0.36370590761E+02  0.51100000000E-03 0. -1.
        -11    1    4    4    0    0 -0.79556672986E+01  0.37625999162E+01 -0.27868141097E+01  0.92312584970E+01  0.51100000000E-03 0.  1.
         12    1    4    4    0    0 -0.48345650519E+01 -0.73114315617E+01 -0.11369934585E-01  0.87652826536E+01  0.00000000000E+00 0. -1.
</event>
<event>
 8    1  0.1240174E-006  0.9118800E+02  0.7816164E-02  0.1184000E+00
        -11   -1    0    0    0    0  0.00000000000E+00  0.00000000000E+00  0.45593999997E+02  0.45594000000E+02  0.51100000000E-03 0. -1.
         11   -1    0    0    0    0 -0.00000000000E+00 -0.00000000000E+00 -0.45593999997E+02  0.45594000000E+02  0.51100000000E-03 0.  1.
         23    2    1    2    0    0  0.00000000000E+00  0.00000000000E+00  0.00000000000E+00  0.91188000000E+02  0.91188000000E+02 0.  0.
    9900012    2    3    3    0    0 -0.14633240343E+01  0.13087886513E+02 -0.34385244955E+02  0.54367093422E+02  0.40000021074E+02 0.  0.
         12    1    3    3    0    0  0.14633240343E+01 -0.13087886513E+02  0.34385244955E+02  0.36820906578E+02  0.00000000000E+00 0. -1.
         11    1    4    4    0    0 -0.10619994020E+02 -0.55732978320E+01 -0.43752401130E+01  0.12766700749E+02  0.51100000000E-03 0. -1.
        -11    1    4    4    0    0  0.70914503561E+01 -0.22982507016E+01 -0.53777416313E+01  0.91918839067E+01  0.51100000000E-03 0.  1.
         12    1    4    4    0    0  0.20652196293E+01  0.20959435047E+02 -0.24632263211E+02  0.32408508767E+02  0.00000000000E+00 0. -1.
</event>
<event>
 8    1  0.1240174E-006  0.9118800E+02  0.7816164E-02  0.1184000E+00
        -11   -1    0    0    0    0  0.00000000000E+00  0.00000000000E+00  0.45593999997E+02  0.45594000000E+02  0.51100000000E-03 0.  1.
         11   -1    0    0    0    0 -0.00000000000E+00 -0.00000000000E+00 -0.45593999997E+02  0.45594000000E+02  0.51100000000E-03 0. -1.
         23    2    1    2    0    0  0.00000000000E+00  0.00000000000E+00  0.17763568394E-14  0.91188000000E+02  0.91188000000E+02 0.  0.
    9900012    2    3    3    0    0 -0.35172724277E+02  0.55853532483E+01  0.93521483963E+01  0.54367090402E+02  0.40000014190E+02 0.  0.
         12    1    3    3    0    0  0.35172724277E+02 -0.55853532483E+01 -0.93521483963E+01  0.36820909598E+02  0.00000000000E+00 0. -1.
         11    1    4    4    0    0 -0.23272101874E+02 -0.19674331240E+01 -0.74402001207E+01  0.24511591071E+02  0.51100000000E-03 0. -1.
        -11    1    4    4    0    0 -0.10115845702E+02  0.14344807806E+02  0.13234375785E+02  0.21983005890E+02  0.51100000000E-03 0.  1.
         12    1    4    4    0    0 -0.17847767015E+01 -0.67920214339E+01  0.35579727317E+01  0.78724934418E+01  0.00000000000E+00 0. -1.
</event>
<event>
 8    1  0.1240174E-006  0.9118800E+02  0.7816164E-02  0.1184000E+00
        -11   -1    0    0    0    0  0.00000000000E+00  0.00000000000E+00  0.45593999997E+02  0.45594000000E+02  0.51100000000E-03 0.  1.
         11   -1    0    0    0    0 -0.00000000000E+00 -0.00000000000E+00 -0.45593999997E+02  0.45594000000E+02  0.51100000000E-03 0. -1.
         23    2    1    2    0    0  0.00000000000E+00  0.17763568394E-14 -0.35527136788E-14  0.91188000000E+02  0.91188000000E+02 0.  0.
    9900012    2    3    3    0    0  0.21612361925E+02 -0.12680377533E+02  0.26979380818E+02  0.54367175027E+02  0.40000207109E+02 0.  0.
         12    1    3    3    0    0 -0.21612361925E+02  0.12680377533E+02 -0.26979380818E+02  0.36820824973E+02  0.00000000000E+00 0. -1.
         11    1    4    4    0    0  0.12381102423E+02 -0.70173602463E+01 -0.44965787218E+01  0.14924954355E+02  0.51100000000E-03 0. -1.
        -11    1    4    4    0    0  0.85939308010E+01  0.58156182300E+01  0.22764932255E+02  0.25018377302E+02  0.51100000000E-03 0.  1.
         12    1    4    4    0    0  0.63732870112E+00 -0.11478635516E+02  0.87110272849E+01  0.14423843370E+02  0.00000000000E+00 0. -1.
</event>
<event>
 8    1  0.1240174E-006  0.9118800E+02  0.7816164E-02  0.1184000E+00
        -11   -1    0    0    0    0  0.00000000000E+00  0.00000000000E+00  0.45593999997E+02  0.45594000000E+02  0.51100000000E-03 0.  1.
         11   -1    0    0    0    0 -0.00000000000E+00 -0.00000000000E+00 -0.45593999997E+02  0.45594000000E+02  0.51100000000E-03 0. -1.
         23    2    1    2    0    0  0.00000000000E+00  0.00000000000E+00 -0.71054273576E-14  0.91188000000E+02  0.91188000000E+02 0.  0.
    9900012    2    3    3    0    0  0.14122764782E+01 -0.82568837331E+01 -0.35855375621E+02  0.54367100843E+02  0.40000037992E+02 0.  0.
        -12    1    3    3    0    0 -0.14122764782E+01  0.82568837331E+01  0.35855375621E+02  0.36820899157E+02  0.00000000000E+00 0.  1.
         11    1    4    4    0    0 -0.43994192921E+00 -0.28393507732E+01 -0.13960028875E+02  0.14252644252E+02  0.51100000000E-03 0. -1.
        -11    1    4    4    0    0  0.14306582346E+02 -0.12314401564E+02 -0.15846622770E+02  0.24646262146E+02  0.51100000000E-03 0.  1.
         12    1    4    4    0    0 -0.12454363939E+02  0.68968686041E+01 -0.60487239755E+01  0.15468194445E+02  0.00000000000E+00 0. -1.
</event>
<event>
 8    1  0.1240174E-006  0.9118800E+02  0.7816164E-02  0.1184000E+00
        -11   -1    0    0    0    0  0.00000000000E+00  0.00000000000E+00  0.45593999997E+02  0.45594000000E+02  0.51100000000E-03 0.  1.
         11   -1    0    0    0    0 -0.00000000000E+00 -0.00000000000E+00 -0.45593999997E+02  0.45594000000E+02  0.51100000000E-03 0. -1.
         23    2    1    2    0    0  0.00000000000E+00 -0.71054273576E-14 -0.88817841970E-15  0.91188000000E+02  0.91188000000E+02 0.  0.
    9900012    2    3    3    0    0 -0.13852907945E+02 -0.33313871175E+02 -0.73528512585E+01  0.54367061761E+02  0.39999948897E+02 0.  0.
        -12    1    3    3    0    0  0.13852907945E+02  0.33313871175E+02  0.73528512585E+01  0.36820938239E+02  0.00000000000E+00 0.  1.
         11    1    4    4    0    0  0.40477133350E+01  0.19069672761E+01 -0.62607580756E+00  0.45180171107E+01  0.51100000000E-03 0. -1.
        -11    1    4    4    0    0 -0.24932232062E+02 -0.32127284631E+02 -0.17670346785E+01  0.40705049137E+02  0.51100000000E-03 0.  1.
        -12    1    4    4    0    0  0.70316107826E+01 -0.30935538192E+01 -0.49597407724E+01  0.91439955140E+01  0.00000000000E+00 0.  1.
</event>
<event>
 8    1  0.1240174E-006  0.9118800E+02  0.7816164E-02  0.1184000E+00
        -11   -1    0    0    0    0  0.00000000000E+00  0.00000000000E+00  0.45593999997E+02  0.45594000000E+02  0.51100000000E-03 0.  1.
         11   -1    0    0    0    0 -0.00000000000E+00 -0.00000000000E+00 -0.45593999997E+02  0.45594000000E+02  0.51100000000E-03 0. -1.
         23    2    1    2    0    0 -0.22204460493E-15  0.00000000000E+00 -0.88817841970E-15  0.91188000000E+02  0.91188000000E+02 0.  0.
    9900012    2    3    3    0    0 -0.14575713065E+01  0.36430260889E+02 -0.51469562376E+01  0.54367087721E+02  0.40000008077E+02 0.  0.
        -12    1    3    3    0    0  0.14575713065E+01 -0.36430260889E+02  0.51469562376E+01  0.36820912279E+02  0.00000000000E+00 0.  1.
         11    1    4    4    0    0  0.86581065716E+01  0.33056777082E+01  0.17796573958E+01  0.94370278808E+01  0.51100000000E-03 0. -1.
        -11    1    4    4    0    0  0.22985758224E+01  0.18048941767E+01  0.76742689246E+01  0.82119119326E+01  0.51100000000E-03 0.  1.
        -12    1    4    4    0    0 -0.12414253701E+02  0.31319689004E+02 -0.14600882558E+02  0.36718147907E+02  0.00000000000E+00 0.  1.
</event>
<event>
 8    1  0.1240174E-006  0.9118800E+02  0.7816164E-02  0.1184000E+00
        -11   -1    0    0    0    0  0.00000000000E+00  0.00000000000E+00  0.45593999997E+02  0.45594000000E+02  0.51100000000E-03 0.  1.
         11   -1    0    0    0    0 -0.00000000000E+00 -0.00000000000E+00 -0.45593999997E+02  0.45594000000E+02  0.51100000000E-03 0. -1.
         23    2    1    2    0    0 -0.35527136788E-14 -0.88817841970E-15  0.00000000000E+00  0.91188000000E+02  0.91188000000E+02 0.  0.
    9900012    2    3    3    0    0  0.23235351615E+02 -0.79797245465E+01 -0.27426938395E+02  0.54366884887E+02  0.39999545673E+02 0.  0.
        -12    1    3    3    0    0 -0.23235351615E+02  0.79797245465E+01  0.27426938395E+02  0.36821115113E+02  0.00000000000E+00 0.  1.
         11    1    4    4    0    0  0.10325942801E+02  0.26289892977E+01 -0.18408913540E+02  0.21270279205E+02  0.51100000000E-03 0. -1.
        -11    1    4    4    0    0  0.69230594202E+01 -0.66527025105E+01  0.93346174646E+01  0.13391127133E+02  0.51100000000E-03 0.  1.
         12    1    4    4    0    0  0.59863493937E+01 -0.39560113337E+01 -0.18352642319E+02  0.19705478549E+02  0.00000000000E+00 0. -1.
</event>
<event>
 8    1  0.1240174E-006  0.9118800E+02  0.7816164E-02  0.1184000E+00
        -11   -1    0    0    0    0  0.00000000000E+00  0.00000000000E+00  0.45593999997E+02  0.45594000000E+02  0.51100000000E-03 0. -1.
         11   -1    0    0    0    0 -0.00000000000E+00 -0.00000000000E+00 -0.45593999997E+02  0.45594000000E+02  0.51100000000E-03 0.  1.
         23    2    1    2    0    0  0.71054273576E-14  0.00000000000E+00 -0.17763568394E-14  0.91188000000E+02  0.91188000000E+02 0.  0.
    9900012    2    3    3    0    0 -0.33265487034E+02  0.71733872044E+01  0.14061598310E+02  0.54367100247E+02  0.40000036634E+02 0.  0.
        -12    1    3    3    0    0  0.33265487034E+02 -0.71733872044E+01 -0.14061598310E+02  0.36820899753E+02  0.00000000000E+00 0.  1.
         11    1    4    4    0    0 -0.21425677688E+02  0.97031176965E+01  0.10331801711E+02  0.25689614328E+02  0.51100000000E-03 0. -1.
        -11    1    4    4    0    0  0.50229316670E+01  0.61661926911E+01 -0.30668638137E+01  0.85239327043E+01  0.51100000000E-03 0.  1.
         12    1    4    4    0    0 -0.16862741012E+02 -0.86959231833E+01  0.67966604120E+01  0.20153553216E+02  0.00000000000E+00 0. -1.
</event>
<event>
 8    1  0.1240174E-006  0.9118800E+02  0.7816164E-02  0.1184000E+00
        -11   -1    0    0    0    0  0.00000000000E+00  0.00000000000E+00  0.45593999997E+02  0.45594000000E+02  0.51100000000E-03 0. -1.
         11   -1    0    0    0    0 -0.00000000000E+00 -0.00000000000E+00 -0.45593999997E+02  0.45594000000E+02  0.51100000000E-03 0.  1.
         23    2    1    2    0    0 -0.17763568394E-14  0.00000000000E+00  0.35527136788E-14  0.91188000000E+02  0.91188000000E+02 0.  0.
    9900012    2    3    3    0    0 -0.72052215956E+01  0.32527641548E+02 -0.15678554392E+02  0.54367085417E+02  0.40000002824E+02 0.  0.
         12    1    3    3    0    0  0.72052215956E+01 -0.32527641548E+02  0.15678554392E+02  0.36820914583E+02  0.00000000000E+00 0. -1.
         11    1    4    4    0    0 -0.16109796126E+02  0.35924827464E+01  0.16330019463E+00  0.16506305787E+02  0.51100000000E-03 0.  1.
        -11    1    4    4    0    0  0.84380994216E-01  0.23773736919E+01  0.32184260130E+01  0.40021609270E+01  0.51100000000E-03 0. -1.
        -12    1    4    4    0    0  0.88201935361E+01  0.26557785110E+02 -0.19060280599E+02  0.33858618703E+02  0.00000000000E+00 0.  1.
</event>
<event>
 8    1  0.1240174E-006  0.9118800E+02  0.7816164E-02  0.1184000E+00
        -11   -1    0    0    0    0  0.00000000000E+00  0.00000000000E+00  0.45593999997E+02  0.45594000000E+02  0.51100000000E-03 0.  1.
         11   -1    0    0    0    0 -0.00000000000E+00 -0.00000000000E+00 -0.45593999997E+02  0.45594000000E+02  0.51100000000E-03 0. -1.
         23    2    1    2    0    0  0.00000000000E+00 -0.17763568394E-14 -0.35527136788E-14  0.91188000000E+02  0.91188000000E+02 0.  0.
    9900012    2    3    3    0    0  0.26401639528E+02  0.12289492150E+02  0.22532228166E+02  0.54367088914E+02  0.40000010797E+02 0.  0.
        -12    1    3    3    0    0 -0.26401639528E+02 -0.12289492150E+02 -0.22532228166E+02  0.36820911086E+02  0.00000000000E+00 0.  1.
         11    1    4    4    0    0  0.55557865471E+01  0.12146374493E+02 -0.91687461816E+00  0.13388122976E+02  0.51100000000E-03 0. -1.
        -11    1    4    4    0    0  0.16038143636E+02 -0.47434639973E+01  0.18503185788E+00  0.16725930139E+02  0.51100000000E-03 0.  1.
        -12    1    4    4    0    0  0.48077093458E+01  0.48865816544E+01  0.23264070926E+02  0.24253035799E+02  0.00000000000E+00 0.  1.
</event>
<event>
 8    1  0.1240174E-006  0.9118800E+02  0.7816164E-02  0.1184000E+00
        -11   -1    0    0    0    0  0.00000000000E+00  0.00000000000E+00  0.45593999997E+02  0.45594000000E+02  0.51100000000E-03 0. -1.
         11   -1    0    0    0    0 -0.00000000000E+00 -0.00000000000E+00 -0.45593999997E+02  0.45594000000E+02  0.51100000000E-03 0.  1.
         23    2    1    2    0    0 -0.17763568394E-14 -0.35527136788E-14 -0.35527136788E-14  0.91188000000E+02  0.91188000000E+02 0.  0.
    9900012    2    3    3    0    0  0.88090440383E+01  0.17769830695E+02  0.31022790412E+02  0.54367086585E+02  0.40000005488E+02 0.  0.
        -12    1    3    3    0    0 -0.88090440383E+01 -0.17769830695E+02 -0.31022790412E+02  0.36820913415E+02  0.00000000000E+00 0.  1.
         11    1    4    4    0    0  0.85896788948E+00 -0.11235322138E+02  0.99869359022E+01  0.15056864825E+02  0.51100000000E-03 0. -1.
        -11    1    4    4    0    0 -0.38374519288E+01  0.11295305979E+02  0.72373333006E+01  0.13953098869E+02  0.51100000000E-03 0.  1.
        -12    1    4    4    0    0  0.11787528078E+02  0.17709846854E+02  0.13798521209E+02  0.25357122891E+02  0.00000000000E+00 0.  1.
</event>
<event>
 8    1  0.1240174E-006  0.9118800E+02  0.7816164E-02  0.1184000E+00
        -11   -1    0    0    0    0  0.00000000000E+00  0.00000000000E+00  0.45593999997E+02  0.45594000000E+02  0.51100000000E-03 0. -1.
         11   -1    0    0    0    0 -0.00000000000E+00 -0.00000000000E+00 -0.45593999997E+02  0.45594000000E+02  0.51100000000E-03 0.  1.
         23    2    1    2    0    0  0.00000000000E+00  0.88817841970E-15  0.00000000000E+00  0.91188000000E+02  0.91188000000E+02 0.  0.
    9900012    2    3    3    0    0 -0.47805689975E+01 -0.75252555118E+01 -0.35725307128E+02  0.54367070085E+02  0.39999967872E+02 0.  0.
         12    1    3    3    0    0  0.47805689975E+01  0.75252555118E+01  0.35725307128E+02  0.36820929915E+02  0.00000000000E+00 0. -1.
         11    1    4    4    0    0 -0.13255138620E+02  0.53440859427E+01 -0.13166272509E+02  0.19432155991E+02  0.51100000000E-03 0. -1.
        -11    1    4    4    0    0 -0.50460963540E+01 -0.38303562121E+01 -0.16335625267E+02  0.17521055056E+02  0.51100000000E-03 0.  1.
        -12    1    4    4    0    0  0.13520665976E+02 -0.90389852424E+01 -0.62234093513E+01  0.17413859038E+02  0.00000000000E+00 0.  1.
</event>
<event>
 8    1  0.1240174E-006  0.9118800E+02  0.7816164E-02  0.1184000E+00
        -11   -1    0    0    0    0  0.00000000000E+00  0.00000000000E+00  0.45593999997E+02  0.45594000000E+02  0.51100000000E-03 0. -1.
         11   -1    0    0    0    0 -0.00000000000E+00 -0.00000000000E+00 -0.45593999997E+02  0.45594000000E+02  0.51100000000E-03 0.  1.
         23    2    1    2    0    0  0.00000000000E+00  0.00000000000E+00  0.00000000000E+00  0.91188000000E+02  0.91188000000E+02 0.  0.
    9900012    2    3    3    0    0  0.17384763630E+02 -0.14469290578E+02 -0.29054937610E+02  0.54367085076E+02  0.40000002047E+02 0.  0.
         12    1    3    3    0    0 -0.17384763630E+02  0.14469290578E+02  0.29054937610E+02  0.36820914924E+02  0.00000000000E+00 0. -1.
         11    1    4    4    0    0  0.75100043979E+01 -0.18177747854E+02 -0.43883655400E+01  0.20151636050E+02  0.51100000000E-03 0. -1.
        -11    1    4    4    0    0  0.37279463483E+01  0.11732879100E+02 -0.18964387490E+02  0.22609865747E+02  0.51100000000E-03 0.  1.
        -12    1    4    4    0    0  0.61468128843E+01 -0.80244218244E+01 -0.57021845799E+01  0.11605583278E+02  0.00000000000E+00 0.  1.
</event>
<event>
 8    1  0.1240174E-006  0.9118800E+02  0.7816164E-02  0.1184000E+00
        -11   -1    0    0    0    0  0.00000000000E+00  0.00000000000E+00  0.45593999997E+02  0.45594000000E+02  0.51100000000E-03 0.  1.
         11   -1    0    0    0    0 -0.00000000000E+00 -0.00000000000E+00 -0.45593999997E+02  0.45594000000E+02  0.51100000000E-03 0. -1.
         23    2    1    2    0    0  0.00000000000E+00  0.17763568394E-14  0.00000000000E+00  0.91188000000E+02  0.91188000000E+02 0.  0.
    9900012    2    3    3    0    0 -0.18816137669E+02 -0.12470115283E+02 -0.29090003847E+02  0.54367093768E+02  0.40000021863E+02 0.  0.
        -12    1    3    3    0    0  0.18816137669E+02  0.12470115283E+02  0.29090003847E+02  0.36820906232E+02  0.00000000000E+00 0.  1.
         11    1    4    4    0    0 -0.11083708926E+02 -0.22116159296E+00  0.23140795326E+01  0.11324861163E+02  0.51100000000E-03 0. -1.
        -11    1    4    4    0    0  0.11833008568E+01 -0.18288979930E+02 -0.22833838136E+02  0.29279193159E+02  0.51100000000E-03 0.  1.
        -12    1    4    4    0    0 -0.89157295993E+01  0.60400262394E+01 -0.85702452437E+01  0.13763039446E+02  0.00000000000E+00 0.  1.
</event>
<event>
 8    1  0.1240174E-006  0.9118800E+02  0.7816164E-02  0.1184000E+00
        -11   -1    0    0    0    0  0.00000000000E+00  0.00000000000E+00  0.45593999997E+02  0.45594000000E+02  0.51100000000E-03 0. -1.
         11   -1    0    0    0    0 -0.00000000000E+00 -0.00000000000E+00 -0.45593999997E+02  0.45594000000E+02  0.51100000000E-03 0.  1.
         23    2    1    2    0    0  0.17763568394E-14  0.17763568394E-14 -0.71054273576E-14  0.91188000000E+02  0.91188000000E+02 0.  0.
    9900012    2    3    3    0    0  0.88640072363E+01  0.58482728449E+01  0.35256310239E+02  0.54367077535E+02  0.39999984856E+02 0.  0.
        -12    1    3    3    0    0 -0.88640072363E+01 -0.58482728449E+01 -0.35256310239E+02  0.36820922465E+02  0.00000000000E+00 0.  1.
         11    1    4    4    0    0  0.75058176948E+01  0.55853579077E+01  0.14677878748E+02  0.17406138200E+02  0.51100000000E-03 0. -1.
        -11    1    4    4    0    0 -0.55283643128E+01 -0.79998895709E+01 -0.37016344600E+01  0.10404957619E+02  0.51100000000E-03 0.  1.
        -12    1    4    4    0    0  0.68865538542E+01  0.82628045081E+01  0.24280065950E+02  0.26555981715E+02  0.00000000000E+00 0.  1.
</event>
<event>
 8    1  0.1240174E-006  0.9118800E+02  0.7816164E-02  0.1184000E+00
        -11   -1    0    0    0    0  0.00000000000E+00  0.00000000000E+00  0.45593999997E+02  0.45594000000E+02  0.51100000000E-03 0.  1.
         11   -1    0    0    0    0 -0.00000000000E+00 -0.00000000000E+00 -0.45593999997E+02  0.45594000000E+02  0.51100000000E-03 0. -1.
         23    2    1    2    0    0  0.00000000000E+00 -0.30531133177E-15  0.35527136788E-14  0.91188000000E+02  0.91188000000E+02 0.  0.
    9900012    2    3    3    0    0  0.21157541775E+02 -0.13152176490E+00 -0.30134858022E+02  0.54367237651E+02  0.40000349872E+02 0.  0.
        -12    1    3    3    0    0 -0.21157541775E+02  0.13152176490E+00  0.30134858022E+02  0.36820762349E+02  0.00000000000E+00 0.  1.
         11    1    4    4    0    0  0.20102678842E+02  0.97906748127E+01 -0.15612406737E+02  0.27271271593E+02  0.51100000000E-03 0. -1.
        -11    1    4    4    0    0  0.90135562145E+01 -0.14287719285E+01 -0.88834405416E+00  0.91692278996E+01  0.51100000000E-03 0.  1.
        -12    1    4    4    0    0 -0.79586932814E+01 -0.84934246491E+01 -0.13634107231E+02  0.17926738158E+02  0.00000000000E+00 0.  1.
</event>
<event>
 8    1  0.1240174E-006  0.9118800E+02  0.7816164E-02  0.1184000E+00
        -11   -1    0    0    0    0  0.00000000000E+00  0.00000000000E+00  0.45593999997E+02  0.45594000000E+02  0.51100000000E-03 0.  1.
         11   -1    0    0    0    0 -0.00000000000E+00 -0.00000000000E+00 -0.45593999997E+02  0.45594000000E+02  0.51100000000E-03 0. -1.
         23    2    1    2    0    0  0.00000000000E+00  0.00000000000E+00 -0.88817841970E-15  0.91188000000E+02  0.91188000000E+02 0.  0.
    9900012    2    3    3    0    0 -0.36185800157E+02 -0.55908789733E+01 -0.38870373128E+01  0.54367093985E+02  0.40000022357E+02 0.  0.
         12    1    3    3    0    0  0.36185800157E+02  0.55908789733E+01  0.38870373128E+01  0.36820906015E+02  0.00000000000E+00 0. -1.
         11    1    4    4    0    0 -0.28957502981E+02  0.25025197607E+01 -0.11062598113E+02  0.31099528314E+02  0.51100000000E-03 0. -1.
        -11    1    4    4    0    0 -0.13150661002E+02 -0.24120984449E+01  0.69248269676E+01  0.15056936358E+02  0.51100000000E-03 0.  1.
         12    1    4    4    0    0  0.59223638258E+01 -0.56813002891E+01  0.25073383234E+00  0.82106293130E+01  0.00000000000E+00 0. -1.
</event>
<event>
 8    1  0.1240174E-006  0.9118800E+02  0.7816164E-02  0.1184000E+00
        -11   -1    0    0    0    0  0.00000000000E+00  0.00000000000E+00  0.45593999997E+02  0.45594000000E+02  0.51100000000E-03 0. -1.
         11   -1    0    0    0    0 -0.00000000000E+00 -0.00000000000E+00 -0.45593999997E+02  0.45594000000E+02  0.51100000000E-03 0.  1.
         23    2    1    2    0    0  0.17763568394E-14 -0.71054273576E-14  0.17763568394E-14  0.91188000000E+02  0.91188000000E+02 0.  0.
    9900012    2    3    3    0    0  0.12774790673E+02 -0.30829168260E+02  0.15561077839E+02  0.54367081545E+02  0.39999993998E+02 0.  0.
        -12    1    3    3    0    0 -0.12774790673E+02  0.30829168260E+02 -0.15561077839E+02  0.36820918455E+02  0.00000000000E+00 0.  1.
         11    1    4    4    0    0  0.21035678511E+02 -0.27592832224E+02  0.19010601764E+02  0.39563457133E+02  0.51100000000E-03 0. -1.
        -11    1    4    4    0    0 -0.22950065694E+01 -0.13642591109E+01 -0.70846423874E+01  0.75710247717E+01  0.51100000000E-03 0.  1.
         12    1    4    4    0    0 -0.59658812685E+01 -0.18720769250E+01  0.36351184621E+01  0.72325996402E+01  0.00000000000E+00 0. -1.
</event>
<event>
 8    1  0.1240174E-006  0.9118800E+02  0.7816164E-02  0.1184000E+00
        -11   -1    0    0    0    0  0.00000000000E+00  0.00000000000E+00  0.45593999997E+02  0.45594000000E+02  0.51100000000E-03 0.  1.
         11   -1    0    0    0    0 -0.00000000000E+00 -0.00000000000E+00 -0.45593999997E+02  0.45594000000E+02  0.51100000000E-03 0. -1.
         23    2    1    2    0    0  0.00000000000E+00 -0.35527136788E-14  0.00000000000E+00  0.91188000000E+02  0.91188000000E+02 0.  0.
    9900012    2    3    3    0    0 -0.17910896658E+02  0.25815604863E+02  0.19197188840E+02  0.54367112818E+02  0.40000065290E+02 0.  0.
         12    1    3    3    0    0  0.17910896658E+02 -0.25815604863E+02 -0.19197188840E+02  0.36820887182E+02  0.00000000000E+00 0. -1.
         11    1    4    4    0    0 -0.11626791231E+02  0.40477199272E+01  0.17569483688E+02  0.21453509463E+02  0.51100000000E-03 0. -1.
        -11    1    4    4    0    0 -0.15199453441E+02  0.10884985662E+02  0.22586013102E+01  0.18831027000E+02  0.51100000000E-03 0.  1.
         12    1    4    4    0    0  0.89153480140E+01  0.10882899274E+02 -0.63089615805E+00  0.14082576355E+02  0.00000000000E+00 0. -1.
</event>
<event>
 8    1  0.1240174E-006  0.9118800E+02  0.7816164E-02  0.1184000E+00
        -11   -1    0    0    0    0  0.00000000000E+00  0.00000000000E+00  0.45593999997E+02  0.45594000000E+02  0.51100000000E-03 0. -1.
         11   -1    0    0    0    0 -0.00000000000E+00 -0.00000000000E+00 -0.45593999997E+02  0.45594000000E+02  0.51100000000E-03 0.  1.
         23    2    1    2    0    0  0.35527136788E-14  0.00000000000E+00  0.35527136788E-14  0.91188000000E+02  0.91188000000E+02 0.  0.
    9900012    2    3    3    0    0  0.14013356476E+02  0.14856254070E+02  0.30638050328E+02  0.54367182890E+02  0.40000225035E+02 0.  0.
        -12    1    3    3    0    0 -0.14013356476E+02 -0.14856254070E+02 -0.30638050328E+02  0.36820817110E+02  0.00000000000E+00 0.  1.
         11    1    4    4    0    0  0.17559865799E+02  0.81498016541E+01  0.18352433153E+02  0.26675456074E+02  0.51100000000E-03 0. -1.
        -11    1    4    4    0    0  0.82361758951E+01  0.38589457331E+01  0.12630952593E+02  0.15564929143E+02  0.51100000000E-03 0.  1.
        -12    1    4    4    0    0 -0.11782685218E+02  0.28475066828E+01 -0.34533541796E+00  0.12126797673E+02  0.00000000000E+00 0.  1.
</event>
<event>
 8    1  0.1240174E-006  0.9118800E+02  0.7816164E-02  0.1184000E+00
        -11   -1    0    0    0    0  0.00000000000E+00  0.00000000000E+00  0.45593999997E+02  0.45594000000E+02  0.51100000000E-03 0. -1.
         11   -1    0    0    0    0 -0.00000000000E+00 -0.00000000000E+00 -0.45593999997E+02  0.45594000000E+02  0.51100000000E-03 0.  1.
         23    2    1    2    0    0 -0.35527136788E-14  0.00000000000E+00  0.00000000000E+00  0.91188000000E+02  0.91188000000E+02 0.  0.
    9900012    2    3    3    0    0 -0.31425582106E+02  0.14258629442E+02  0.12841549724E+02  0.54367066775E+02  0.39999960326E+02 0.  0.
        -12    1    3    3    0    0  0.31425582106E+02 -0.14258629442E+02 -0.12841549724E+02  0.36820933225E+02  0.00000000000E+00 0.  1.
         11    1    4    4    0    0 -0.18665374071E+02  0.31353757523E+01 -0.53319524088E+01  0.19663582762E+02  0.51100000000E-03 0. -1.
        -11    1    4    4    0    0 -0.25848290498E+01  0.97563283607E+01  0.21631284479E+02  0.23870059757E+02  0.51100000000E-03 0.  1.
        -12    1    4    4    0    0 -0.10175378985E+02  0.13669253294E+01 -0.34577823463E+01  0.10833424256E+02  0.00000000000E+00 0.  1.
</event>
<event>
 8    1  0.1240174E-006  0.9118800E+02  0.7816164E-02  0.1184000E+00
        -11   -1    0    0    0    0  0.00000000000E+00  0.00000000000E+00  0.45593999997E+02  0.45594000000E+02  0.51100000000E-03 0.  1.
         11   -1    0    0    0    0 -0.00000000000E+00 -0.00000000000E+00 -0.45593999997E+02  0.45594000000E+02  0.51100000000E-03 0. -1.
         23    2    1    2    0    0 -0.11102230246E-15  0.00000000000E+00  0.00000000000E+00  0.91188000000E+02  0.91188000000E+02 0.  0.
    9900012    2    3    3    0    0 -0.44714791698E+00  0.21838348104E+02  0.29642314985E+02  0.54367078951E+02  0.39999988085E+02 0.  0.
         12    1    3    3    0    0  0.44714791698E+00 -0.21838348104E+02 -0.29642314985E+02  0.36820921049E+02  0.00000000000E+00 0. -1.
         11    1    4    4    0    0  0.12281877497E+02  0.27630359161E+01  0.65551815403E+01  0.14193283186E+02  0.51100000000E-03 0. -1.
        -11    1    4    4    0    0 -0.11251724593E+02  0.49242566309E+00  0.17321472518E+02  0.20661006747E+02  0.51100000000E-03 0.  1.
        -12    1    4    4    0    0 -0.14773008205E+01  0.18582886525E+02  0.57656609271E+01  0.19512789018E+02  0.00000000000E+00 0.  1.
</event>
<event>
 8    1  0.1240174E-006  0.9118800E+02  0.7816164E-02  0.1184000E+00
        -11   -1    0    0    0    0  0.00000000000E+00  0.00000000000E+00  0.45593999997E+02  0.45594000000E+02  0.51100000000E-03 0.  1.
         11   -1    0    0    0    0 -0.00000000000E+00 -0.00000000000E+00 -0.45593999997E+02  0.45594000000E+02  0.51100000000E-03 0. -1.
         23    2    1    2    0    0  0.00000000000E+00  0.00000000000E+00  0.88817841970E-15  0.91188000000E+02  0.91188000000E+02 0.  0.
    9900012    2    3    3    0    0 -0.72675990373E+00  0.36630805630E+02 -0.36654845324E+01  0.54367083690E+02  0.39999998888E+02 0.  0.
        -12    1    3    3    0    0  0.72675990373E+00 -0.36630805630E+02  0.36654845324E+01  0.36820916310E+02  0.00000000000E+00 0.  1.
         11    1    4    4    0    0  0.21357802312E+01  0.22881844040E+02 -0.65603649089E+01  0.23899345846E+02  0.51100000000E-03 0. -1.
        -11    1    4    4    0    0  0.11570932576E+02  0.30385447773E+01  0.35614672008E+01  0.12482118567E+02  0.51100000000E-03 0.  1.
        -12    1    4    4    0    0 -0.14433472711E+02  0.10710416813E+02 -0.66658682427E+00  0.17985619277E+02  0.00000000000E+00 0.  1.
</event>
<event>
 8    1  0.1240174E-006  0.9118800E+02  0.7816164E-02  0.1184000E+00
        -11   -1    0    0    0    0  0.00000000000E+00  0.00000000000E+00  0.45593999997E+02  0.45594000000E+02  0.51100000000E-03 0.  1.
         11   -1    0    0    0    0 -0.00000000000E+00 -0.00000000000E+00 -0.45593999997E+02  0.45594000000E+02  0.51100000000E-03 0. -1.
         23    2    1    2    0    0  0.00000000000E+00  0.00000000000E+00  0.00000000000E+00  0.91188000000E+02  0.91188000000E+02 0.  0.
    9900012    2    3    3    0    0  0.34592204915E+02 -0.56462436158E+01 -0.11281850216E+02  0.54367070460E+02  0.39999968728E+02 0.  0.
        -12    1    3    3    0    0 -0.34592204915E+02  0.56462436158E+01  0.11281850216E+02  0.36820929540E+02  0.00000000000E+00 0.  1.
         11    1    4    4    0    0  0.14387718140E+02  0.28353382952E+01 -0.88871304224E+01  0.17147205718E+02  0.51100000000E-03 0. -1.
        -11    1    4    4    0    0  0.24841020907E+02  0.18564263439E+01 -0.54193129421E+01  0.25492971414E+02  0.51100000000E-03 0.  1.
        -12    1    4    4    0    0 -0.46365341316E+01 -0.10338008255E+02  0.30245931482E+01  0.11726893329E+02  0.00000000000E+00 0.  1.
</event>
<event>
 8    1  0.1240174E-006  0.9118800E+02  0.7816164E-02  0.1184000E+00
        -11   -1    0    0    0    0  0.00000000000E+00  0.00000000000E+00  0.45593999997E+02  0.45594000000E+02  0.51100000000E-03 0. -1.
         11   -1    0    0    0    0 -0.00000000000E+00 -0.00000000000E+00 -0.45593999997E+02  0.45594000000E+02  0.51100000000E-03 0.  1.
         23    2    1    2    0    0  0.00000000000E+00  0.00000000000E+00  0.11102230246E-15  0.91188000000E+02  0.91188000000E+02 0.  0.
    9900012    2    3    3    0    0 -0.18881116280E+02  0.31610572745E+02  0.23173854681E+00  0.54367101531E+02  0.40000039561E+02 0.  0.
        -12    1    3    3    0    0  0.18881116280E+02 -0.31610572745E+02 -0.23173854681E+00  0.36820898469E+02  0.00000000000E+00 0.  1.
         11    1    4    4    0    0 -0.50415354381E+01 -0.26275262777E+01  0.50739548554E+00  0.57077512519E+01  0.51100000000E-03 0. -1.
        -11    1    4    4    0    0  0.83291107177E+01  0.11052891446E+02  0.73740442897E+01  0.15681741744E+02  0.51100000000E-03 0.  1.
         12    1    4    4    0    0 -0.22168691560E+02  0.23185207577E+02 -0.76497012284E+01  0.32977608536E+02  0.00000000000E+00 0. -1.
</event>
<event>
 8    1  0.1240174E-006  0.9118800E+02  0.7816164E-02  0.1184000E+00
        -11   -1    0    0    0    0  0.00000000000E+00  0.00000000000E+00  0.45593999997E+02  0.45594000000E+02  0.51100000000E-03 0.  1.
         11   -1    0    0    0    0 -0.00000000000E+00 -0.00000000000E+00 -0.45593999997E+02  0.45594000000E+02  0.51100000000E-03 0. -1.
         23    2    1    2    0    0  0.00000000000E+00 -0.35527136788E-14  0.00000000000E+00  0.91188000000E+02  0.91188000000E+02 0.  0.
    9900012    2    3    3    0    0  0.15048898568E+02 -0.22110385340E+02 -0.25306932809E+02  0.54367091047E+02  0.40000015659E+02 0.  0.
        -12    1    3    3    0    0 -0.15048898568E+02  0.22110385340E+02  0.25306932809E+02  0.36820908953E+02  0.00000000000E+00 0.  1.
         11    1    4    4    0    0 -0.10322792705E+01 -0.12425562958E+02 -0.28937610093E+02  0.31509450859E+02  0.51100000000E-03 0. -1.
        -11    1    4    4    0    0  0.35369266615E+01 -0.82253312111E+01  0.48277329881E+01  0.10172164460E+02  0.51100000000E-03 0.  1.
         12    1    4    4    0    0  0.12544251177E+02 -0.14594911705E+01 -0.11970557041E+01  0.12685475727E+02  0.00000000000E+00 0. -1.
</event>
<event>
 8    1  0.1240174E-006  0.9118800E+02  0.7816164E-02  0.1184000E+00
        -11   -1    0    0    0    0  0.00000000000E+00  0.00000000000E+00  0.45593999997E+02  0.45594000000E+02  0.51100000000E-03 0.  1.
         11   -1    0    0    0    0 -0.00000000000E+00 -0.00000000000E+00 -0.45593999997E+02  0.45594000000E+02  0.51100000000E-03 0. -1.
         23    2    1    2    0    0 -0.35527136788E-14  0.00000000000E+00  0.00000000000E+00  0.91188000000E+02  0.91188000000E+02 0.  0.
    9900012    2    3    3    0    0  0.30067787211E+02  0.81920002257E+01  0.19611215461E+02  0.54367075687E+02  0.39999980643E+02 0.  0.
         12    1    3    3    0    0 -0.30067787211E+02 -0.81920002257E+01 -0.19611215461E+02  0.36820924313E+02  0.00000000000E+00 0. -1.
         11    1    4    4    0    0  0.13335191231E+02 -0.51903644806E+01  0.16906011949E+02  0.22149050745E+02  0.51100000000E-03 0. -1.
        -11    1    4    4    0    0  0.12875707429E+02  0.32972174832E+01  0.12048403453E+02  0.17939328610E+02  0.51100000000E-03 0.  1.
         12    1    4    4    0    0  0.38568885499E+01  0.10085147223E+02 -0.93431999414E+01  0.14278696332E+02  0.00000000000E+00 0. -1.
</event>
<event>
 8    1  0.1240174E-006  0.9118800E+02  0.7816164E-02  0.1184000E+00
        -11   -1    0    0    0    0  0.00000000000E+00  0.00000000000E+00  0.45593999997E+02  0.45594000000E+02  0.51100000000E-03 0.  1.
         11   -1    0    0    0    0 -0.00000000000E+00 -0.00000000000E+00 -0.45593999997E+02  0.45594000000E+02  0.51100000000E-03 0. -1.
         23    2    1    2    0    0 -0.35527136788E-14 -0.35527136788E-14  0.00000000000E+00  0.91188000000E+02  0.91188000000E+02 0.  0.
    9900012    2    3    3    0    0 -0.18287353804E+02 -0.23993233805E+02  0.21111145488E+02  0.54367040732E+02  0.39999900957E+02 0.  0.
         12    1    3    3    0    0  0.18287353804E+02  0.23993233805E+02 -0.21111145488E+02  0.36820959268E+02  0.00000000000E+00 0. -1.
         11    1    4    4    0    0  0.25414405446E+01  0.95130099317E+01  0.71789436290E+01  0.12185791312E+02  0.51100000000E-03 0. -1.
        -11    1    4    4    0    0 -0.81607440527E+01 -0.87502178053E+01  0.33312938525E+01  0.12420208296E+02  0.51100000000E-03 0.  1.
         12    1    4    4    0    0 -0.12668050295E+02 -0.24756025932E+02  0.10600908007E+02  0.29761041124E+02  0.00000000000E+00 0. -1.
</event>
<event>
 8    1  0.1240174E-006  0.9118800E+02  0.7816164E-02  0.1184000E+00
        -11   -1    0    0    0    0  0.00000000000E+00  0.00000000000E+00  0.45593999997E+02  0.45594000000E+02  0.51100000000E-03 0. -1.
         11   -1    0    0    0    0 -0.00000000000E+00 -0.00000000000E+00 -0.45593999997E+02  0.45594000000E+02  0.51100000000E-03 0.  1.
         23    2    1    2    0    0  0.17763568394E-14  0.88817841970E-15  0.71054273576E-14  0.91188000000E+02  0.91188000000E+02 0.  0.
    9900012    2    3    3    0    0  0.11375049740E+02  0.60903323022E+01  0.34486165787E+02  0.54367088348E+02  0.40000009508E+02 0.  0.
        -12    1    3    3    0    0 -0.11375049740E+02 -0.60903323022E+01 -0.34486165787E+02  0.36820911652E+02  0.00000000000E+00 0.  1.
         11    1    4    4    0    0  0.58933610537E+01 -0.86769635069E+00  0.68351465801E+01  0.90666328093E+01  0.51100000000E-03 0. -1.
        -11    1    4    4    0    0  0.14113511244E+02  0.16699952056E+02  0.22289911281E+02  0.31223704833E+02  0.51100000000E-03 0.  1.
         12    1    4    4    0    0 -0.86318225577E+01 -0.97419234029E+01  0.53611079261E+01  0.14076750706E+02  0.00000000000E+00 0. -1.
</event>
<event>
 8    1  0.1240174E-006  0.9118800E+02  0.7816164E-02  0.1184000E+00
        -11   -1    0    0    0    0  0.00000000000E+00  0.00000000000E+00  0.45593999997E+02  0.45594000000E+02  0.51100000000E-03 0. -1.
         11   -1    0    0    0    0 -0.00000000000E+00 -0.00000000000E+00 -0.45593999997E+02  0.45594000000E+02  0.51100000000E-03 0.  1.
         23    2    1    2    0    0 -0.88817841970E-15  0.00000000000E+00  0.00000000000E+00  0.91188000000E+02  0.91188000000E+02 0.  0.
    9900012    2    3    3    0    0  0.56493038640E+01 -0.33083328312E+02 -0.15144799821E+02  0.54366997732E+02  0.39999802930E+02 0.  0.
         12    1    3    3    0    0 -0.56493038640E+01  0.33083328312E+02  0.15144799821E+02  0.36821002268E+02  0.00000000000E+00 0. -1.
         11    1    4    4    0    0  0.39258837405E+01  0.24827792351E+01 -0.28772201348E+00  0.46539811014E+01  0.51100000000E-03 0. -1.
        -11    1    4    4    0    0  0.10374033084E+02 -0.36241318536E+02 -0.16017793810E+02  0.40958801868E+02  0.51100000000E-03 0.  1.
        -12    1    4    4    0    0 -0.86506129609E+01  0.67521098877E+00  0.11607160022E+01  0.87542147630E+01  0.00000000000E+00 0.  1.
</event>
<event>
 8    1  0.1240174E-006  0.9118800E+02  0.7816164E-02  0.1184000E+00
        -11   -1    0    0    0    0  0.00000000000E+00  0.00000000000E+00  0.45593999997E+02  0.45594000000E+02  0.51100000000E-03 0. -1.
         11   -1    0    0    0    0 -0.00000000000E+00 -0.00000000000E+00 -0.45593999997E+02  0.45594000000E+02  0.51100000000E-03 0.  1.
         23    2    1    2    0    0  0.00000000000E+00 -0.44408920985E-15  0.71054273576E-14  0.91188000000E+02  0.91188000000E+02 0.  0.
    9900012    2    3    3    0    0  0.11176654376E+02 -0.23606801643E+01  0.35004180196E+02  0.54367040682E+02  0.39999900843E+02 0.  0.
        -12    1    3    3    0    0 -0.11176654376E+02  0.23606801643E+01 -0.35004180196E+02  0.36820959318E+02  0.00000000000E+00 0.  1.
         11    1    4    4    0    0  0.87608848568E+01  0.65308544006E+01  0.89369764175E+01  0.14116469474E+02  0.51100000000E-03 0. -1.
        -11    1    4    4    0    0 -0.50403287992E+01 -0.10561505619E+02 -0.13577783961E+01  0.11781081350E+02  0.51100000000E-03 0.  1.
         12    1    4    4    0    0  0.74560983180E+01  0.16699710541E+01  0.27424982175E+02  0.28469489858E+02  0.00000000000E+00 0. -1.
</event>
<event>
 8    1  0.1240174E-006  0.9118800E+02  0.7816164E-02  0.1184000E+00
        -11   -1    0    0    0    0  0.00000000000E+00  0.00000000000E+00  0.45593999997E+02  0.45594000000E+02  0.51100000000E-03 0. -1.
         11   -1    0    0    0    0 -0.00000000000E+00 -0.00000000000E+00 -0.45593999997E+02  0.45594000000E+02  0.51100000000E-03 0.  1.
         23    2    1    2    0    0  0.35527136788E-14 -0.16653345369E-14  0.00000000000E+00  0.91188000000E+02  0.91188000000E+02 0.  0.
    9900012    2    3    3    0    0  0.19695993144E+02 -0.90447851691E+00  0.31097105743E+02  0.54367079141E+02  0.39999988517E+02 0.  0.
         12    1    3    3    0    0 -0.19695993144E+02  0.90447851691E+00 -0.31097105743E+02  0.36820920859E+02  0.00000000000E+00 0. -1.
         11    1    4    4    0    0  0.16836068184E+01  0.30527458318E+01  0.12771068407E+02  0.13238352524E+02  0.51100000000E-03 0. -1.
        -11    1    4    4    0    0  0.26124991987E+02 -0.84253366608E+01  0.12303882752E+02  0.30081340316E+02  0.51100000000E-03 0.  1.
        -12    1    4    4    0    0 -0.81126056610E+01  0.44681123121E+01  0.60221545837E+01  0.11047386301E+02  0.00000000000E+00 0.  1.
</event>
<event>
 8    1  0.1240174E-006  0.9118800E+02  0.7816164E-02  0.1184000E+00
        -11   -1    0    0    0    0  0.00000000000E+00  0.00000000000E+00  0.45593999997E+02  0.45594000000E+02  0.51100000000E-03 0.  1.
         11   -1    0    0    0    0 -0.00000000000E+00 -0.00000000000E+00 -0.45593999997E+02  0.45594000000E+02  0.51100000000E-03 0. -1.
         23    2    1    2    0    0 -0.35527136788E-14  0.35527136788E-14 -0.17763568394E-14  0.91188000000E+02  0.91188000000E+02 0.  0.
    9900012    2    3    3    0    0  0.27564203226E+02 -0.22249107868E+02 -0.10048452469E+02  0.54367088857E+02  0.40000010667E+02 0.  0.
        -12    1    3    3    0    0 -0.27564203226E+02  0.22249107868E+02  0.10048452469E+02  0.36820911143E+02  0.00000000000E+00 0.  1.
         11    1    4    4    0    0  0.40665194527E+01 -0.85784961514E+01  0.54968794633E+01  0.10970089369E+02  0.51100000000E-03 0. -1.
        -11    1    4    4    0    0  0.24545565843E+01 -0.16750705932E+02 -0.14184001066E+02  0.22086124236E+02  0.51100000000E-03 0.  1.
         12    1    4    4    0    0  0.21043127189E+02  0.30800942158E+01 -0.13613308656E+01  0.21310875252E+02  0.00000000000E+00 0. -1.
</event>
<event>
 8    1  0.1240174E-006  0.9118800E+02  0.7816164E-02  0.1184000E+00
        -11   -1    0    0    0    0  0.00000000000E+00  0.00000000000E+00  0.45593999997E+02  0.45594000000E+02  0.51100000000E-03 0. -1.
         11   -1    0    0    0    0 -0.00000000000E+00 -0.00000000000E+00 -0.45593999997E+02  0.45594000000E+02  0.51100000000E-03 0.  1.
         23    2    1    2    0    0  0.00000000000E+00  0.00000000000E+00  0.00000000000E+00  0.91188000000E+02  0.91188000000E+02 0.  0.
    9900012    2    3    3    0    0  0.33662031659E+02 -0.12566198756E+02  0.80460520944E+01  0.54367072785E+02  0.39999974029E+02 0.  0.
         12    1    3    3    0    0 -0.33662031659E+02  0.12566198756E+02 -0.80460520944E+01  0.36820927215E+02  0.00000000000E+00 0. -1.
         11    1    4    4    0    0  0.34387783256E+02 -0.14289585229E+01 -0.20369537827E+01  0.34477684677E+02  0.51100000000E-03 0.  1.
        -11    1    4    4    0    0  0.23944913241E+01  0.22977123056E+01  0.24556058061E+01  0.41283254082E+01  0.51100000000E-03 0. -1.
        -12    1    4    4    0    0 -0.31202429201E+01 -0.13434952539E+02  0.76274000711E+01  0.15761062701E+02  0.00000000000E+00 0.  1.
</event>
<event>
 8    1  0.1240174E-006  0.9118800E+02  0.7816164E-02  0.1184000E+00
        -11   -1    0    0    0    0  0.00000000000E+00  0.00000000000E+00  0.45593999997E+02  0.45594000000E+02  0.51100000000E-03 0.  1.
         11   -1    0    0    0    0 -0.00000000000E+00 -0.00000000000E+00 -0.45593999997E+02  0.45594000000E+02  0.51100000000E-03 0. -1.
         23    2    1    2    0    0  0.44408920985E-15  0.71054273576E-14  0.35527136788E-14  0.91188000000E+02  0.91188000000E+02 0.  0.
    9900012    2    3    3    0    0  0.28183054455E+01  0.33358565634E+02  0.15331161966E+02  0.54367064732E+02  0.39999955670E+02 0.  0.
         12    1    3    3    0    0 -0.28183054455E+01 -0.33358565634E+02 -0.15331161966E+02  0.36820935268E+02  0.00000000000E+00 0. -1.
         11    1    4    4    0    0  0.31884250382E+01  0.10387274011E+02 -0.64098944408E+01  0.12615397838E+02  0.51100000000E-03 0. -1.
        -11    1    4    4    0    0  0.12354508193E+02  0.66935441022E+01  0.42468171496E+01  0.14678993886E+02  0.51100000000E-03 0.  1.
        -12    1    4    4    0    0 -0.12724627786E+02  0.16277747521E+02  0.17494239257E+02  0.27072673009E+02  0.00000000000E+00 0.  1.
</event>
<event>
 8    1  0.1240174E-006  0.9118800E+02  0.7816164E-02  0.1184000E+00
        -11   -1    0    0    0    0  0.00000000000E+00  0.00000000000E+00  0.45593999997E+02  0.45594000000E+02  0.51100000000E-03 0.  1.
         11   -1    0    0    0    0 -0.00000000000E+00 -0.00000000000E+00 -0.45593999997E+02  0.45594000000E+02  0.51100000000E-03 0. -1.
         23    2    1    2    0    0  0.17763568394E-14 -0.88817841970E-15  0.71054273576E-14  0.91188000000E+02  0.91188000000E+02 0.  0.
    9900012    2    3    3    0    0 -0.96734422415E+01  0.71059650304E+01 -0.34809616223E+02  0.54367087390E+02  0.40000007324E+02 0.  0.
        -12    1    3    3    0    0  0.96734422415E+01 -0.71059650304E+01  0.34809616223E+02  0.36820912610E+02  0.00000000000E+00 0.  1.
         11    1    4    4    0    0 -0.63031126254E+01  0.11663295501E+02 -0.19658243206E+02  0.23710930326E+02  0.51100000000E-03 0. -1.
        -11    1    4    4    0    0  0.12443281406E+01 -0.63164242203E+01  0.60817602819E+01  0.88562619564E+01  0.51100000000E-03 0.  1.
        -12    1    4    4    0    0 -0.46146577567E+01  0.17590937499E+01 -0.21233133299E+02  0.21799895108E+02  0.00000000000E+00 0.  1.
</event>
<event>
 8    1  0.1240174E-006  0.9118800E+02  0.7816164E-02  0.1184000E+00
        -11   -1    0    0    0    0  0.00000000000E+00  0.00000000000E+00  0.45593999997E+02  0.45594000000E+02  0.51100000000E-03 0.  1.
         11   -1    0    0    0    0 -0.00000000000E+00 -0.00000000000E+00 -0.45593999997E+02  0.45594000000E+02  0.51100000000E-03 0. -1.
         23    2    1    2    0    0  0.00000000000E+00  0.00000000000E+00  0.18873791419E-14  0.91188000000E+02  0.91188000000E+02 0.  0.
    9900012    2    3    3    0    0 -0.32344992555E+02 -0.17580283832E+02  0.72041363297E+00  0.54367028817E+02  0.39999873795E+02 0.  0.
         12    1    3    3    0    0  0.32344992555E+02  0.17580283832E+02 -0.72041363297E+00  0.36820971183E+02  0.00000000000E+00 0. -1.
         11    1    4    4    0    0 -0.57507940022E+01 -0.11931119921E+01  0.17061349035E+02  0.18043967940E+02  0.51100000000E-03 0. -1.
        -11    1    4    4    0    0 -0.58836091430E+01 -0.58593753023E+01 -0.73630247489E+00  0.83361428177E+01  0.51100000000E-03 0.  1.
         12    1    4    4    0    0 -0.20710589410E+02 -0.10527796538E+02 -0.15604632927E+02  0.27986918059E+02  0.00000000000E+00 0. -1.
</event>
<event>
 8    1  0.1240174E-006  0.9118800E+02  0.7816164E-02  0.1184000E+00
        -11   -1    0    0    0    0  0.00000000000E+00  0.00000000000E+00  0.45593999997E+02  0.45594000000E+02  0.51100000000E-03 0.  1.
         11   -1    0    0    0    0 -0.00000000000E+00 -0.00000000000E+00 -0.45593999997E+02  0.45594000000E+02  0.51100000000E-03 0. -1.
         23    2    1    2    0    0  0.00000000000E+00 -0.88817841970E-15  0.00000000000E+00  0.91188000000E+02  0.91188000000E+02 0.  0.
    9900012    2    3    3    0    0  0.14212618724E+02 -0.42200659150E+01 -0.33704184662E+02  0.54367088129E+02  0.40000009007E+02 0.  0.
        -12    1    3    3    0    0 -0.14212618724E+02  0.42200659150E+01  0.33704184662E+02  0.36820911871E+02  0.00000000000E+00 0.  1.
         11    1    4    4    0    0  0.11284772406E+02 -0.53934350035E+01 -0.69390037279E+01  0.14303321376E+02  0.51100000000E-03 0. -1.
        -11    1    4    4    0    0  0.82334399173E+01  0.75310096757E+01  0.89176684706E+00  0.11193787919E+02  0.51100000000E-03 0.  1.
        -12    1    4    4    0    0 -0.53055935993E+01 -0.63576405872E+01 -0.27656947781E+02  0.28869978833E+02  0.00000000000E+00 0.  1.
</event>
<event>
 8    1  0.1240174E-006  0.9118800E+02  0.7816164E-02  0.1184000E+00
        -11   -1    0    0    0    0  0.00000000000E+00  0.00000000000E+00  0.45593999997E+02  0.45594000000E+02  0.51100000000E-03 0. -1.
         11   -1    0    0    0    0 -0.00000000000E+00 -0.00000000000E+00 -0.45593999997E+02  0.45594000000E+02  0.51100000000E-03 0.  1.
         23    2    1    2    0    0 -0.88817841970E-15 -0.35527136788E-14  0.00000000000E+00  0.91188000000E+02  0.91188000000E+02 0.  0.
    9900012    2    3    3    0    0 -0.50563844744E+01  0.25793541007E+02 -0.25785780761E+02  0.54367078351E+02  0.39999986716E+02 0.  0.
         12    1    3    3    0    0  0.50563844744E+01 -0.25793541007E+02  0.25785780761E+02  0.36820921649E+02  0.00000000000E+00 0. -1.
         11    1    4    4    0    0 -0.74367150529E+01  0.59578199178E+01 -0.23239747989E+01  0.98082214533E+01  0.51100000000E-03 0.  1.
        -11    1    4    4    0    0 -0.94396413566E+01 -0.41638598328E+01 -0.26160123853E+01  0.10643687270E+02  0.51100000000E-03 0. -1.
        -12    1    4    4    0    0  0.11819971935E+02  0.23999580922E+02 -0.20845793577E+02  0.33915169627E+02  0.00000000000E+00 0.  1.
</event>
<event>
 8    1  0.1240174E-006  0.9118800E+02  0.7816164E-02  0.1184000E+00
        -11   -1    0    0    0    0  0.00000000000E+00  0.00000000000E+00  0.45593999997E+02  0.45594000000E+02  0.51100000000E-03 0.  1.
         11   -1    0    0    0    0 -0.00000000000E+00 -0.00000000000E+00 -0.45593999997E+02  0.45594000000E+02  0.51100000000E-03 0. -1.
         23    2    1    2    0    0  0.17763568394E-14  0.00000000000E+00  0.00000000000E+00  0.91188000000E+02  0.91188000000E+02 0.  0.
    9900012    2    3    3    0    0  0.14470074598E+02  0.76258788553E+01 -0.32988791116E+02  0.54366845395E+02  0.39999455642E+02 0.  0.
        -12    1    3    3    0    0 -0.14470074598E+02 -0.76258788553E+01  0.32988791116E+02  0.36821154605E+02  0.00000000000E+00 0.  1.
         11    1    4    4    0    0  0.12682222984E+02 -0.29432663842E+01 -0.35514190965E+02  0.37825379799E+02  0.51100000000E-03 0. -1.
        -11    1    4    4    0    0 -0.48107066513E+01  0.21478866721E+01  0.25265722277E+01  0.58429344617E+01  0.51100000000E-03 0.  1.
         12    1    4    4    0    0  0.65985582652E+01  0.84212585673E+01 -0.11723788976E-02  0.10698531133E+02  0.00000000000E+00 0. -1.
</event>
<event>
 8    1  0.1240174E-006  0.9118800E+02  0.7816164E-02  0.1184000E+00
        -11   -1    0    0    0    0  0.00000000000E+00  0.00000000000E+00  0.45593999997E+02  0.45594000000E+02  0.51100000000E-03 0.  1.
         11   -1    0    0    0    0 -0.00000000000E+00 -0.00000000000E+00 -0.45593999997E+02  0.45594000000E+02  0.51100000000E-03 0. -1.
         23    2    1    2    0    0  0.00000000000E+00  0.35527136788E-14 -0.17763568394E-14  0.91188000000E+02  0.91188000000E+02 0.  0.
    9900012    2    3    3    0    0 -0.32412377526E+02 -0.14053347881E+02  0.10378852051E+02  0.54367090541E+02  0.40000014505E+02 0.  0.
         12    1    3    3    0    0  0.32412377526E+02  0.14053347881E+02 -0.10378852051E+02  0.36820909459E+02  0.00000000000E+00 0. -1.
         11    1    4    4    0    0 -0.17639742388E+02 -0.42974534745E+01 -0.40677819758E+01  0.18605791258E+02  0.51100000000E-03 0. -1.
        -11    1    4    4    0    0 -0.12063514922E+02 -0.84158113687E+01 -0.54127066850E+01  0.15673278763E+02  0.51100000000E-03 0.  1.
        -12    1    4    4    0    0 -0.27091202162E+01 -0.13400830375E+01  0.19859340712E+02  0.20088020520E+02  0.00000000000E+00 0.  1.
</event>
<event>
 8    1  0.1240174E-006  0.9118800E+02  0.7816164E-02  0.1184000E+00
        -11   -1    0    0    0    0  0.00000000000E+00  0.00000000000E+00  0.45593999997E+02  0.45594000000E+02  0.51100000000E-03 0.  1.
         11   -1    0    0    0    0 -0.00000000000E+00 -0.00000000000E+00 -0.45593999997E+02  0.45594000000E+02  0.51100000000E-03 0. -1.
         23    2    1    2    0    0  0.88817841970E-15  0.88817841970E-15 -0.14210854715E-13  0.91188000000E+02  0.91188000000E+02 0.  0.
    9900012    2    3    3    0    0  0.74204857858E+01 -0.67082268087E+01  0.35436079401E+02  0.54367086927E+02  0.40000006267E+02 0.  0.
         12    1    3    3    0    0 -0.74204857858E+01  0.67082268087E+01 -0.35436079401E+02  0.36820913073E+02  0.00000000000E+00 0. -1.
         11    1    4    4    0    0 -0.12853446121E+01  0.17806731771E+01  0.24122056251E+01  0.32621532727E+01  0.51100000000E-03 0.  1.
        -11    1    4    4    0    0  0.52979627046E+00 -0.83079169333E+01  0.39690356820E+02  0.40553996013E+02  0.51100000000E-03 0. -1.
         12    1    4    4    0    0  0.81760341275E+01 -0.18098305250E+00 -0.66664830442E+01  0.10550937641E+02  0.00000000000E+00 0. -1.
</event>
<event>
 8    1  0.1240174E-006  0.9118800E+02  0.7816164E-02  0.1184000E+00
        -11   -1    0    0    0    0  0.00000000000E+00  0.00000000000E+00  0.45593999997E+02  0.45594000000E+02  0.51100000000E-03 0. -1.
         11   -1    0    0    0    0 -0.00000000000E+00 -0.00000000000E+00 -0.45593999997E+02  0.45594000000E+02  0.51100000000E-03 0.  1.
         23    2    1    2    0    0 -0.35527136788E-14 -0.35527136788E-14 -0.35527136788E-14  0.91188000000E+02  0.91188000000E+02 0.  0.
    9900012    2    3    3    0    0  0.28175006275E+02  0.20725964444E+02  0.11505800947E+02  0.54367081541E+02  0.39999993989E+02 0.  0.
        -12    1    3    3    0    0 -0.28175006275E+02 -0.20725964444E+02 -0.11505800947E+02  0.36820918459E+02  0.00000000000E+00 0.  1.
         11    1    4    4    0    0 -0.14778603081E+00  0.33868833228E+01 -0.85952932599E+01  0.92396907870E+01  0.51100000000E-03 0.  1.
        -11    1    4    4    0    0  0.25113242927E+02  0.13441982044E+02  0.46361640756E+01  0.28859242353E+02  0.51100000000E-03 0. -1.
         12    1    4    4    0    0  0.32095493787E+01  0.38970990773E+01  0.15464930131E+02  0.16268148401E+02  0.00000000000E+00 0. -1.
</event>
<event>
 8    1  0.1240174E-006  0.9118800E+02  0.7816164E-02  0.1184000E+00
        -11   -1    0    0    0    0  0.00000000000E+00  0.00000000000E+00  0.45593999997E+02  0.45594000000E+02  0.51100000000E-03 0. -1.
         11   -1    0    0    0    0 -0.00000000000E+00 -0.00000000000E+00 -0.45593999997E+02  0.45594000000E+02  0.51100000000E-03 0.  1.
         23    2    1    2    0    0 -0.17763568394E-14  0.88817841970E-15  0.00000000000E+00  0.91188000000E+02  0.91188000000E+02 0.  0.
    9900012    2    3    3    0    0  0.12830281811E+02  0.60591302515E+01 -0.33977273964E+02  0.54367023142E+02  0.39999860857E+02 0.  0.
         12    1    3    3    0    0 -0.12830281811E+02 -0.60591302515E+01  0.33977273964E+02  0.36820976858E+02  0.00000000000E+00 0. -1.
         11    1    4    4    0    0  0.33039365397E+01  0.13914594684E+02 -0.91513548231E+01  0.16978787861E+02  0.51100000000E-03 0. -1.
        -11    1    4    4    0    0  0.63982491702E+01  0.72529615859E+01 -0.18172383121E+02  0.20585882365E+02  0.51100000000E-03 0.  1.
         12    1    4    4    0    0  0.31280961013E+01 -0.15108426018E+02 -0.66535360197E+01  0.16802352916E+02  0.00000000000E+00 0. -1.
</event>
<event>
 8    1  0.1240174E-006  0.9118800E+02  0.7816164E-02  0.1184000E+00
        -11   -1    0    0    0    0  0.00000000000E+00  0.00000000000E+00  0.45593999997E+02  0.45594000000E+02  0.51100000000E-03 0.  1.
         11   -1    0    0    0    0 -0.00000000000E+00 -0.00000000000E+00 -0.45593999997E+02  0.45594000000E+02  0.51100000000E-03 0. -1.
         23    2    1    2    0    0  0.00000000000E+00  0.88817841970E-15  0.00000000000E+00  0.91188000000E+02  0.91188000000E+02 0.  0.
    9900012    2    3    3    0    0  0.28354523310E+02  0.59087999257E+01 -0.22735163676E+02  0.54367074209E+02  0.39999977275E+02 0.  0.
         12    1    3    3    0    0 -0.28354523310E+02 -0.59087999257E+01  0.22735163676E+02  0.36820925791E+02  0.00000000000E+00 0. -1.
         11    1    4    4    0    0  0.19873364049E+02  0.63026366380E+01 -0.12262401038E+02  0.24187606469E+02  0.51100000000E-03 0. -1.
        -11    1    4    4    0    0  0.13063120229E+02 -0.10358090760E+02 -0.30807764491E+01  0.16953652648E+02  0.51100000000E-03 0.  1.
         12    1    4    4    0    0 -0.45819609683E+01  0.99642540474E+01 -0.73919861886E+01  0.13225815092E+02  0.00000000000E+00 0. -1.
</event>
<event>
 8    1  0.1240174E-006  0.9118800E+02  0.7816164E-02  0.1184000E+00
        -11   -1    0    0    0    0  0.00000000000E+00  0.00000000000E+00  0.45593999997E+02  0.45594000000E+02  0.51100000000E-03 0. -1.
         11   -1    0    0    0    0 -0.00000000000E+00 -0.00000000000E+00 -0.45593999997E+02  0.45594000000E+02  0.51100000000E-03 0.  1.
         23    2    1    2    0    0  0.00000000000E+00 -0.88817841970E-15  0.00000000000E+00  0.91188000000E+02  0.91188000000E+02 0.  0.
    9900012    2    3    3    0    0  0.56628280732E+01 -0.56608528262E+01 -0.35939841544E+02  0.54367012958E+02  0.39999837640E+02 0.  0.
         12    1    3    3    0    0 -0.56628280732E+01  0.56608528262E+01  0.35939841544E+02  0.36820987042E+02  0.00000000000E+00 0. -1.
         11    1    4    4    0    0  0.61954642346E+01  0.11948136433E+02 -0.22788334355E+01  0.13650451399E+02  0.51100000000E-03 0. -1.
        -11    1    4    4    0    0 -0.46713009024E+01 -0.17942378335E+02 -0.29469581857E+02  0.34816752398E+02  0.51100000000E-03 0.  1.
        -12    1    4    4    0    0  0.41386647410E+01  0.33338907600E+00 -0.41914262522E+01  0.58998091615E+01  0.00000000000E+00 0.  1.
</event>
<event>
 8    1  0.1240174E-006  0.9118800E+02  0.7816164E-02  0.1184000E+00
        -11   -1    0    0    0    0  0.00000000000E+00  0.00000000000E+00  0.45593999997E+02  0.45594000000E+02  0.51100000000E-03 0.  1.
         11   -1    0    0    0    0 -0.00000000000E+00 -0.00000000000E+00 -0.45593999997E+02  0.45594000000E+02  0.51100000000E-03 0. -1.
         23    2    1    2    0    0 -0.55511151231E-15 -0.71054273576E-14  0.17763568394E-14  0.91188000000E+02  0.91188000000E+02 0.  0.
    9900012    2    3    3    0    0 -0.89303345386E+00 -0.35200436012E+02  0.10766204873E+02  0.54367090566E+02  0.40000014563E+02 0.  0.
        -12    1    3    3    0    0  0.89303345386E+00  0.35200436012E+02 -0.10766204873E+02  0.36820909434E+02  0.00000000000E+00 0.  1.
         11    1    4    4    0    0 -0.16977320600E+01 -0.13513843374E+02  0.89345049195E+01  0.16289003509E+02  0.51100000000E-03 0. -1.
        -11    1    4    4    0    0  0.34186475660E+01 -0.27749547294E+02 -0.51931272524E+01  0.28437529729E+02  0.51100000000E-03 0.  1.
        -12    1    4    4    0    0 -0.26139489599E+01  0.60629546557E+01  0.70248272058E+01  0.96405573279E+01  0.00000000000E+00 0.  1.
</event>
<event>
 8    1  0.1240174E-006  0.9118800E+02  0.7816164E-02  0.1184000E+00
        -11   -1    0    0    0    0  0.00000000000E+00  0.00000000000E+00  0.45593999997E+02  0.45594000000E+02  0.51100000000E-03 0. -1.
         11   -1    0    0    0    0 -0.00000000000E+00 -0.00000000000E+00 -0.45593999997E+02  0.45594000000E+02  0.51100000000E-03 0.  1.
         23    2    1    2    0    0  0.17763568394E-14  0.00000000000E+00 -0.35527136788E-14  0.91188000000E+02  0.91188000000E+02 0.  0.
    9900012    2    3    3    0    0 -0.98555990239E+01 -0.16892028909E+02  0.31197835223E+02  0.54367103822E+02  0.40000044783E+02 0.  0.
        -12    1    3    3    0    0  0.98555990239E+01  0.16892028909E+02 -0.31197835223E+02  0.36820896178E+02  0.00000000000E+00 0.  1.
         11    1    4    4    0    0 -0.42984156919E+01 -0.16548881811E+01  0.18950200659E+02  0.19501926511E+02  0.51100000000E-03 0. -1.
        -11    1    4    4    0    0 -0.29383793608E+01  0.70354125196E+01 -0.25009287194E+01  0.80240729876E+01  0.51100000000E-03 0.  1.
        -12    1    4    4    0    0 -0.26188039712E+01 -0.22272553247E+02  0.14748563283E+02  0.26841104323E+02  0.00000000000E+00 0.  1.
</event>
<event>
 8    1  0.1240174E-006  0.9118800E+02  0.7816164E-02  0.1184000E+00
        -11   -1    0    0    0    0  0.00000000000E+00  0.00000000000E+00  0.45593999997E+02  0.45594000000E+02  0.51100000000E-03 0. -1.
         11   -1    0    0    0    0 -0.00000000000E+00 -0.00000000000E+00 -0.45593999997E+02  0.45594000000E+02  0.51100000000E-03 0.  1.
         23    2    1    2    0    0  0.35527136788E-14  0.35527136788E-14 -0.16653345369E-15  0.91188000000E+02  0.91188000000E+02 0.  0.
    9900012    2    3    3    0    0  0.21285117846E+02 -0.30044133577E+02 -0.27135507591E+00  0.54367084236E+02  0.40000000132E+02 0.  0.
        -12    1    3    3    0    0 -0.21285117846E+02  0.30044133577E+02  0.27135507591E+00  0.36820915764E+02  0.00000000000E+00 0.  1.
         11    1    4    4    0    0  0.75890632003E+01 -0.19414363448E+02  0.17708595436E+02  0.27351521730E+02  0.51100000000E-03 0. -1.
        -11    1    4    4    0    0  0.11516852863E+02 -0.12308542596E+02 -0.17356879211E+02  0.24195027938E+02  0.51100000000E-03 0.  1.
         12    1    4    4    0    0  0.21792017829E+01  0.16787724667E+01 -0.62307130048E+00  0.28205345684E+01  0.00000000000E+00 0. -1.
</event>
<event>
 8    1  0.1240174E-006  0.9118800E+02  0.7816164E-02  0.1184000E+00
        -11   -1    0    0    0    0  0.00000000000E+00  0.00000000000E+00  0.45593999997E+02  0.45594000000E+02  0.51100000000E-03 0. -1.
         11   -1    0    0    0    0 -0.00000000000E+00 -0.00000000000E+00 -0.45593999997E+02  0.45594000000E+02  0.51100000000E-03 0.  1.
         23    2    1    2    0    0  0.00000000000E+00  0.88817841970E-15  0.00000000000E+00  0.91188000000E+02  0.91188000000E+02 0.  0.
    9900012    2    3    3    0    0  0.30789544972E+02  0.44554728482E+01 -0.19696014203E+02  0.54367078048E+02  0.39999986027E+02 0.  0.
         12    1    3    3    0    0 -0.30789544972E+02 -0.44554728482E+01  0.19696014203E+02  0.36820921952E+02  0.00000000000E+00 0. -1.
         11    1    4    4    0    0  0.96036863408E+01 -0.12041692704E+02 -0.95756613784E+01  0.18136329441E+02  0.51100000000E-03 0. -1.
        -11    1    4    4    0    0  0.62870275847E+01  0.13588960350E+02 -0.14068931765E+02  0.20545593214E+02  0.51100000000E-03 0.  1.
        -12    1    4    4    0    0  0.14898831047E+02  0.29082052022E+01  0.39485789405E+01  0.15685155393E+02  0.00000000000E+00 0.  1.
</event>
<event>
 8    1  0.1240174E-006  0.9118800E+02  0.7816164E-02  0.1184000E+00
        -11   -1    0    0    0    0  0.00000000000E+00  0.00000000000E+00  0.45593999997E+02  0.45594000000E+02  0.51100000000E-03 0. -1.
         11   -1    0    0    0    0 -0.00000000000E+00 -0.00000000000E+00 -0.45593999997E+02  0.45594000000E+02  0.51100000000E-03 0.  1.
         23    2    1    2    0    0  0.00000000000E+00 -0.17763568394E-14  0.00000000000E+00  0.91188000000E+02  0.91188000000E+02 0.  0.
    9900012    2    3    3    0    0 -0.77107023871E+01  0.13939681485E+02 -0.33196590343E+02  0.54367037742E+02  0.39999894141E+02 0.  0.
         12    1    3    3    0    0  0.77107023871E+01 -0.13939681485E+02  0.33196590343E+02  0.36820962258E+02  0.00000000000E+00 0. -1.
         11    1    4    4    0    0 -0.25765445355E+01  0.16426276707E+02 -0.11571043603E+01  0.16667334489E+02  0.51100000000E-03 0. -1.
        -11    1    4    4    0    0 -0.57211309409E+01  0.23769377899E+01 -0.32207566149E+02  0.32797995213E+02  0.51100000000E-03 0.  1.
        -12    1    4    4    0    0  0.58697308935E+00 -0.48635330122E+01  0.16808016660E+00  0.49017080402E+01  0.00000000000E+00 0.  1.
</event>
<event>
 8    1  0.1240174E-006  0.9118800E+02  0.7816164E-02  0.1184000E+00
        -11   -1    0    0    0    0  0.00000000000E+00  0.00000000000E+00  0.45593999997E+02  0.45594000000E+02  0.51100000000E-03 0.  1.
         11   -1    0    0    0    0 -0.00000000000E+00 -0.00000000000E+00 -0.45593999997E+02  0.45594000000E+02  0.51100000000E-03 0. -1.
         23    2    1    2    0    0  0.35527136788E-14  0.00000000000E+00  0.88817841970E-15  0.91188000000E+02  0.91188000000E+02 0.  0.
    9900012    2    3    3    0    0  0.31853230179E+02 -0.17837964131E+02  0.47917392754E+01  0.54367054840E+02  0.39999933119E+02 0.  0.
         12    1    3    3    0    0 -0.31853230179E+02  0.17837964131E+02 -0.47917392754E+01  0.36820945160E+02  0.00000000000E+00 0. -1.
         11    1    4    4    0    0  0.20344888966E+02 -0.22596774247E+01 -0.39947742587E+01  0.20856147074E+02  0.51100000000E-03 0. -1.
        -11    1    4    4    0    0  0.17528407841E+02 -0.13958728892E+02 -0.39747446810E+00  0.22410916535E+02  0.51100000000E-03 0.  1.
        -12    1    4    4    0    0 -0.60200666281E+01 -0.16195578139E+01  0.91839880022E+01  0.11099991232E+02  0.00000000000E+00 0.  1.
</event>
<event>
 8    1  0.1240174E-006  0.9118800E+02  0.7816164E-02  0.1184000E+00
        -11   -1    0    0    0    0  0.00000000000E+00  0.00000000000E+00  0.45593999997E+02  0.45594000000E+02  0.51100000000E-03 0.  1.
         11   -1    0    0    0    0 -0.00000000000E+00 -0.00000000000E+00 -0.45593999997E+02  0.45594000000E+02  0.51100000000E-03 0. -1.
         23    2    1    2    0    0  0.00000000000E+00 -0.72164496601E-15  0.00000000000E+00  0.91188000000E+02  0.91188000000E+02 0.  0.
    9900012    2    3    3    0    0  0.18251144140E+02 -0.14738101065E+00  0.31978961154E+02  0.54367082846E+02  0.39999996964E+02 0.  0.
         12    1    3    3    0    0 -0.18251144140E+02  0.14738101065E+00 -0.31978961154E+02  0.36820917154E+02  0.00000000000E+00 0. -1.
         11    1    4    4    0    0 -0.53438121661E+01 -0.71609654944E+01 -0.17565114139E+01  0.91061016845E+01  0.51100000000E-03 0. -1.
        -11    1    4    4    0    0  0.79601403019E+01 -0.40640185631E+01  0.19304896650E+02  0.21273436851E+02  0.51100000000E-03 0.  1.
         12    1    4    4    0    0  0.15634816005E+02  0.11077603047E+02  0.14430575917E+02  0.23987544311E+02  0.00000000000E+00 0. -1.
</event>
<event>
 8    1  0.1240174E-006  0.9118800E+02  0.7816164E-02  0.1184000E+00
        -11   -1    0    0    0    0  0.00000000000E+00  0.00000000000E+00  0.45593999997E+02  0.45594000000E+02  0.51100000000E-03 0.  1.
         11   -1    0    0    0    0 -0.00000000000E+00 -0.00000000000E+00 -0.45593999997E+02  0.45594000000E+02  0.51100000000E-03 0. -1.
         23    2    1    2    0    0  0.00000000000E+00  0.00000000000E+00 -0.35527136788E-14  0.91188000000E+02  0.91188000000E+02 0.  0.
    9900012    2    3    3    0    0 -0.16685792618E+02  0.10665031596E+02 -0.31042231383E+02  0.54367099638E+02  0.40000035245E+02 0.  0.
        -12    1    3    3    0    0  0.16685792618E+02 -0.10665031596E+02  0.31042231383E+02  0.36820900362E+02  0.00000000000E+00 0.  1.
         11    1    4    4    0    0 -0.11106350048E+02 -0.51265484181E+01 -0.19556948850E-01  0.12232452444E+02  0.51100000000E-03 0. -1.
        -11    1    4    4    0    0 -0.45473408284E+01  0.25105630469E+01  0.27158814828E+01  0.58615056011E+01  0.51100000000E-03 0.  1.
         12    1    4    4    0    0 -0.10321017419E+01  0.13281016967E+02 -0.33738555917E+02  0.36273141593E+02  0.00000000000E+00 0. -1.
</event>
<event>
 8    1  0.1240174E-006  0.9118800E+02  0.7816164E-02  0.1184000E+00
        -11   -1    0    0    0    0  0.00000000000E+00  0.00000000000E+00  0.45593999997E+02  0.45594000000E+02  0.51100000000E-03 0. -1.
         11   -1    0    0    0    0 -0.00000000000E+00 -0.00000000000E+00 -0.45593999997E+02  0.45594000000E+02  0.51100000000E-03 0.  1.
         23    2    1    2    0    0 -0.17763568394E-14 -0.17763568394E-14 -0.71054273576E-14  0.91188000000E+02  0.91188000000E+02 0.  0.
    9900012    2    3    3    0    0  0.81448216295E+01 -0.14880395555E+02 -0.32680526923E+02  0.54367066671E+02  0.39999960090E+02 0.  0.
         12    1    3    3    0    0 -0.81448216295E+01  0.14880395555E+02  0.32680526923E+02  0.36820933329E+02  0.00000000000E+00 0. -1.
         11    1    4    4    0    0  0.10667000670E+02 -0.35268505958E+01 -0.76482892337E+01  0.13591170181E+02  0.51100000000E-03 0. -1.
        -11    1    4    4    0    0  0.13359537914E+01 -0.11981347399E+02 -0.31214438936E+02  0.33461599729E+02  0.51100000000E-03 0.  1.
        -12    1    4    4    0    0 -0.38581328323E+01  0.62780243982E+00  0.61822012470E+01  0.73142967614E+01  0.00000000000E+00 0.  1.
</event>
<event>
 8    1  0.1240174E-006  0.9118800E+02  0.7816164E-02  0.1184000E+00
        -11   -1    0    0    0    0  0.00000000000E+00  0.00000000000E+00  0.45593999997E+02  0.45594000000E+02  0.51100000000E-03 0. -1.
         11   -1    0    0    0    0 -0.00000000000E+00 -0.00000000000E+00 -0.45593999997E+02  0.45594000000E+02  0.51100000000E-03 0.  1.
         23    2    1    2    0    0 -0.44408920985E-15 -0.35527136788E-14 -0.35527136788E-14  0.91188000000E+02  0.91188000000E+02 0.  0.
    9900012    2    3    3    0    0 -0.29491987166E+01 -0.27552157353E+02 -0.24247896038E+02  0.54367087326E+02  0.40000007178E+02 0.  0.
         12    1    3    3    0    0  0.29491987166E+01  0.27552157353E+02  0.24247896038E+02  0.36820912674E+02  0.00000000000E+00 0. -1.
         11    1    4    4    0    0  0.31060648603E+01 -0.42178635139E+01 -0.51515989400E+01  0.73469029828E+01  0.51100000000E-03 0. -1.
        -11    1    4    4    0    0 -0.10939262775E+02 -0.25967682881E+02 -0.25877991337E+02  0.38257789536E+02  0.51100000000E-03 0.  1.
         12    1    4    4    0    0  0.48839991978E+01  0.26333890428E+01  0.67816942386E+01  0.87623948074E+01  0.00000000000E+00 0. -1.
</event>
<event>
 8    1  0.1240174E-006  0.9118800E+02  0.7816164E-02  0.1184000E+00
        -11   -1    0    0    0    0  0.00000000000E+00  0.00000000000E+00  0.45593999997E+02  0.45594000000E+02  0.51100000000E-03 0. -1.
         11   -1    0    0    0    0 -0.00000000000E+00 -0.00000000000E+00 -0.45593999997E+02  0.45594000000E+02  0.51100000000E-03 0.  1.
         23    2    1    2    0    0  0.35527136788E-14  0.00000000000E+00 -0.17763568394E-14  0.91188000000E+02  0.91188000000E+02 0.  0.
    9900012    2    3    3    0    0 -0.24589591292E+02 -0.22736906558E+02 -0.15302447702E+02  0.54367084403E+02  0.40000000513E+02 0.  0.
         12    1    3    3    0    0  0.24589591292E+02  0.22736906558E+02  0.15302447702E+02  0.36820915597E+02  0.00000000000E+00 0. -1.
         11    1    4    4    0    0 -0.73876613359E+01 -0.61255764575E+01  0.57156793991E+01  0.11170014244E+02  0.51100000000E-03 0. -1.
        -11    1    4    4    0    0  0.72853765335E+00  0.58793814066E+01  0.21095856626E+01  0.62887395212E+01  0.51100000000E-03 0.  1.
        -12    1    4    4    0    0 -0.17930467609E+02 -0.22490711507E+02 -0.23127712764E+02  0.36908330638E+02  0.00000000000E+00 0.  1.
</event>
<event>
 8    1  0.1240174E-006  0.9118800E+02  0.7816164E-02  0.1184000E+00
        -11   -1    0    0    0    0  0.00000000000E+00  0.00000000000E+00  0.45593999997E+02  0.45594000000E+02  0.51100000000E-03 0.  1.
         11   -1    0    0    0    0 -0.00000000000E+00 -0.00000000000E+00 -0.45593999997E+02  0.45594000000E+02  0.51100000000E-03 0. -1.
         23    2    1    2    0    0 -0.88817841970E-15 -0.71054273576E-14 -0.35527136788E-14  0.91188000000E+02  0.91188000000E+02 0.  0.
    9900012    2    3    3    0    0  0.45581494247E+01  0.33242091054E+02  0.15164605800E+02  0.54367100868E+02  0.40000038049E+02 0.  0.
         12    1    3    3    0    0 -0.45581494247E+01 -0.33242091054E+02 -0.15164605800E+02  0.36820899132E+02  0.00000000000E+00 0. -1.
         11    1    4    4    0    0  0.45392530661E+01 -0.54036179901E+01  0.64313151215E+00  0.70864324017E+01  0.51100000000E-03 0. -1.
        -11    1    4    4    0    0 -0.88154402078E+01  0.91317279734E+01 -0.10972856402E+01  0.12739877467E+02  0.51100000000E-03 0.  1.
        -12    1    4    4    0    0  0.88343365664E+01  0.29513981070E+02  0.15618759928E+02  0.34540791000E+02  0.00000000000E+00 0.  1.
</event>
<event>
 8    1  0.1240174E-006  0.9118800E+02  0.7816164E-02  0.1184000E+00
        -11   -1    0    0    0    0  0.00000000000E+00  0.00000000000E+00  0.45593999997E+02  0.45594000000E+02  0.51100000000E-03 0. -1.
         11   -1    0    0    0    0 -0.00000000000E+00 -0.00000000000E+00 -0.45593999997E+02  0.45594000000E+02  0.51100000000E-03 0.  1.
         23    2    1    2    0    0  0.71054273576E-14  0.00000000000E+00 -0.22204460493E-15  0.91188000000E+02  0.91188000000E+02 0.  0.
    9900012    2    3    3    0    0 -0.32553390511E+02 -0.17171591303E+02  0.10921612556E+01  0.54367087493E+02  0.40000007559E+02 0.  0.
         12    1    3    3    0    0  0.32553390511E+02  0.17171591303E+02 -0.10921612556E+01  0.36820912507E+02  0.00000000000E+00 0. -1.
         11    1    4    4    0    0 -0.15159364972E+02  0.11390648587E+02 -0.29633886856E+01  0.19192052896E+02  0.51100000000E-03 0. -1.
        -11    1    4    4    0    0 -0.59611078468E+01 -0.15530430546E+02 -0.21246172339E+01  0.16770303466E+02  0.51100000000E-03 0.  1.
         12    1    4    4    0    0 -0.11432917692E+02 -0.13031809343E+02  0.61801671751E+01  0.18404731131E+02  0.00000000000E+00 0. -1.
</event>
<event>
 8    1  0.1240174E-006  0.9118800E+02  0.7816164E-02  0.1184000E+00
        -11   -1    0    0    0    0  0.00000000000E+00  0.00000000000E+00  0.45593999997E+02  0.45594000000E+02  0.51100000000E-03 0.  1.
         11   -1    0    0    0    0 -0.00000000000E+00 -0.00000000000E+00 -0.45593999997E+02  0.45594000000E+02  0.51100000000E-03 0. -1.
         23    2    1    2    0    0  0.00000000000E+00  0.00000000000E+00  0.71054273576E-14  0.91188000000E+02  0.91188000000E+02 0.  0.
    9900012    2    3    3    0    0 -0.96763423008E+01  0.63310049955E+01  0.34958097609E+02  0.54367057412E+02  0.39999938983E+02 0.  0.
         12    1    3    3    0    0  0.96763423008E+01 -0.63310049955E+01 -0.34958097609E+02  0.36820942588E+02  0.00000000000E+00 0. -1.
         11    1    4    4    0    0 -0.70459356847E-01 -0.20097369593E+01 -0.25615679615E+01  0.32566298299E+01  0.51100000000E-03 0. -1.
        -11    1    4    4    0    0 -0.42245839104E+01 -0.67507892017E+01  0.33714819407E+02  0.34642593898E+02  0.51100000000E-03 0.  1.
        -12    1    4    4    0    0 -0.53812990336E+01  0.15091531156E+02  0.38048461636E+01  0.16467833685E+02  0.00000000000E+00 0.  1.
</event>
<event>
 8    1  0.1240174E-006  0.9118800E+02  0.7816164E-02  0.1184000E+00
        -11   -1    0    0    0    0  0.00000000000E+00  0.00000000000E+00  0.45593999997E+02  0.45594000000E+02  0.51100000000E-03 0.  1.
         11   -1    0    0    0    0 -0.00000000000E+00 -0.00000000000E+00 -0.45593999997E+02  0.45594000000E+02  0.51100000000E-03 0. -1.
         23    2    1    2    0    0  0.00000000000E+00  0.00000000000E+00  0.00000000000E+00  0.91188000000E+02  0.91188000000E+02 0.  0.
    9900012    2    3    3    0    0  0.18341573113E+02  0.11887005301E+02  0.29632167872E+02  0.54367087843E+02  0.40000008356E+02 0.  0.
         12    1    3    3    0    0 -0.18341573113E+02 -0.11887005301E+02 -0.29632167872E+02  0.36820912157E+02  0.00000000000E+00 0. -1.
         11    1    4    4    0    0 -0.51844052826E+01  0.48685561246E+01  0.46750095680E+01  0.85109700736E+01  0.51100000000E-03 0.  1.
        -11    1    4    4    0    0 -0.77815371217E+00  0.47527532206E+01 -0.51805275589E+01  0.70733338975E+01  0.51100000000E-03 0. -1.
         12    1    4    4    0    0  0.24304132108E+02  0.22656959554E+01  0.30137685863E+02  0.38782783872E+02  0.00000000000E+00 0. -1.
</event>
<event>
 8    1  0.1240174E-006  0.9118800E+02  0.7816164E-02  0.1184000E+00
        -11   -1    0    0    0    0  0.00000000000E+00  0.00000000000E+00  0.45593999997E+02  0.45594000000E+02  0.51100000000E-03 0. -1.
         11   -1    0    0    0    0 -0.00000000000E+00 -0.00000000000E+00 -0.45593999997E+02  0.45594000000E+02  0.51100000000E-03 0.  1.
         23    2    1    2    0    0  0.00000000000E+00  0.00000000000E+00 -0.71054273576E-14  0.91188000000E+02  0.91188000000E+02 0.  0.
    9900012    2    3    3    0    0 -0.44471247380E+01  0.11306004955E+02 -0.34758842044E+02  0.54367085199E+02  0.40000002329E+02 0.  0.
         12    1    3    3    0    0  0.44471247380E+01 -0.11306004955E+02  0.34758842044E+02  0.36820914801E+02  0.00000000000E+00 0. -1.
         11    1    4    4    0    0  0.28216077058E+01  0.63835073244E+01 -0.21876594364E+01  0.73141294682E+01  0.51100000000E-03 0. -1.
        -11    1    4    4    0    0 -0.92538615299E+01  0.13253524727E+02 -0.32255399077E+01  0.16483142263E+02  0.51100000000E-03 0.  1.
         12    1    4    4    0    0  0.19851290861E+01 -0.83310270962E+01 -0.29345642700E+02  0.30569813468E+02  0.00000000000E+00 0. -1.
</event>
<event>
 8    1  0.1240174E-006  0.9118800E+02  0.7816164E-02  0.1184000E+00
        -11   -1    0    0    0    0  0.00000000000E+00  0.00000000000E+00  0.45593999997E+02  0.45594000000E+02  0.51100000000E-03 0.  1.
         11   -1    0    0    0    0 -0.00000000000E+00 -0.00000000000E+00 -0.45593999997E+02  0.45594000000E+02  0.51100000000E-03 0. -1.
         23    2    1    2    0    0 -0.35527136788E-14  0.00000000000E+00 -0.17763568394E-14  0.91188000000E+02  0.91188000000E+02 0.  0.
    9900012    2    3    3    0    0  0.18465074132E+02  0.30136757780E+02  0.10324484164E+02  0.54367107759E+02  0.40000053757E+02 0.  0.
        -12    1    3    3    0    0 -0.18465074132E+02 -0.30136757780E+02 -0.10324484164E+02  0.36820892241E+02  0.00000000000E+00 0.  1.
         11    1    4    4    0    0  0.61448219655E+01 -0.40950803612E+01 -0.26150399537E+01  0.78337062987E+01  0.51100000000E-03 0. -1.
        -11    1    4    4    0    0  0.12442905679E+02  0.17660070941E+02  0.19117008842E+02  0.28847253504E+02  0.51100000000E-03 0.  1.
         12    1    4    4    0    0 -0.12265351184E+00  0.16571767200E+02 -0.61774847246E+01  0.17686147956E+02  0.00000000000E+00 0. -1.
</event>
<event>
 8    1  0.1240174E-006  0.9118800E+02  0.7816164E-02  0.1184000E+00
        -11   -1    0    0    0    0  0.00000000000E+00  0.00000000000E+00  0.45593999997E+02  0.45594000000E+02  0.51100000000E-03 0.  1.
         11   -1    0    0    0    0 -0.00000000000E+00 -0.00000000000E+00 -0.45593999997E+02  0.45594000000E+02  0.51100000000E-03 0. -1.
         23    2    1    2    0    0 -0.71054273576E-14  0.53290705182E-14  0.17763568394E-14  0.91188000000E+02  0.91188000000E+02 0.  0.
    9900012    2    3    3    0    0 -0.32060852235E+02  0.15862727280E+02  0.87322942637E+01  0.54367118344E+02  0.40000077890E+02 0.  0.
        -12    1    3    3    0    0  0.32060852235E+02 -0.15862727280E+02 -0.87322942637E+01  0.36820881656E+02  0.00000000000E+00 0.  1.
         11    1    4    4    0    0 -0.17604802686E+02 -0.42399052260E+00  0.10321860889E+01  0.17640131915E+02  0.51100000000E-03 0. -1.
        -11    1    4    4    0    0 -0.10764110888E+02  0.21643080030E+02  0.13778869283E+02  0.27823483523E+02  0.51100000000E-03 0.  1.
         12    1    4    4    0    0 -0.36919386611E+01 -0.53563622276E+01 -0.60787611085E+01  0.89035029064E+01  0.00000000000E+00 0. -1.
</event>
<event>
 8    1  0.1240174E-006  0.9118800E+02  0.7816164E-02  0.1184000E+00
        -11   -1    0    0    0    0  0.00000000000E+00  0.00000000000E+00  0.45593999997E+02  0.45594000000E+02  0.51100000000E-03 0. -1.
         11   -1    0    0    0    0 -0.00000000000E+00 -0.00000000000E+00 -0.45593999997E+02  0.45594000000E+02  0.51100000000E-03 0.  1.
         23    2    1    2    0    0 -0.88817841970E-15  0.71054273576E-14  0.53290705182E-14  0.91188000000E+02  0.91188000000E+02 0.  0.
    9900012    2    3    3    0    0 -0.59851704605E+01 -0.33880026426E+02 -0.13118745500E+02  0.54367082852E+02  0.39999996979E+02 0.  0.
         12    1    3    3    0    0  0.59851704605E+01  0.33880026426E+02  0.13118745500E+02  0.36820917148E+02  0.00000000000E+00 0. -1.
         11    1    4    4    0    0  0.72899260991E+00 -0.14504374492E+02  0.10155267141E+02  0.17721110592E+02  0.51100000000E-03 0. -1.
        -11    1    4    4    0    0 -0.53871224973E+01 -0.20549452153E+02 -0.25887694950E+02  0.33488413260E+02  0.51100000000E-03 0.  1.
         12    1    4    4    0    0 -0.13270405731E+01  0.11738002187E+01  0.26136823083E+01  0.31575590010E+01  0.00000000000E+00 0. -1.
</event>
<event>
 8    1  0.1240174E-006  0.9118800E+02  0.7816164E-02  0.1184000E+00
        -11   -1    0    0    0    0  0.00000000000E+00  0.00000000000E+00  0.45593999997E+02  0.45594000000E+02  0.51100000000E-03 0. -1.
         11   -1    0    0    0    0 -0.00000000000E+00 -0.00000000000E+00 -0.45593999997E+02  0.45594000000E+02  0.51100000000E-03 0.  1.
         23    2    1    2    0    0 -0.17763568394E-14  0.00000000000E+00  0.00000000000E+00  0.91188000000E+02  0.91188000000E+02 0.  0.
    9900012    2    3    3    0    0  0.13523284535E+02 -0.23422294689E+02 -0.24985863419E+02  0.54367129778E+02  0.40000103954E+02 0.  0.
         12    1    3    3    0    0 -0.13523284535E+02  0.23422294689E+02  0.24985863419E+02  0.36820870222E+02  0.00000000000E+00 0. -1.
         11    1    4    4    0    0  0.25174998097E+01 -0.49104907556E+01  0.20295646280E-01  0.55182548806E+01  0.51100000000E-03 0. -1.
        -11    1    4    4    0    0  0.83719785918E+01 -0.13436845722E+02  0.62895241135E+01  0.17035168398E+02  0.51100000000E-03 0.  1.
        -12    1    4    4    0    0  0.26338061330E+01 -0.50749582113E+01 -0.31295683179E+02  0.31813706499E+02  0.00000000000E+00 0.  1.
</event>
<event>
 8    1  0.1240174E-006  0.9118800E+02  0.7816164E-02  0.1184000E+00
        -11   -1    0    0    0    0  0.00000000000E+00  0.00000000000E+00  0.45593999997E+02  0.45594000000E+02  0.51100000000E-03 0.  1.
         11   -1    0    0    0    0 -0.00000000000E+00 -0.00000000000E+00 -0.45593999997E+02  0.45594000000E+02  0.51100000000E-03 0. -1.
         23    2    1    2    0    0 -0.17763568394E-14  0.00000000000E+00 -0.17763568394E-14  0.91188000000E+02  0.91188000000E+02 0.  0.
    9900012    2    3    3    0    0 -0.15313119255E+02  0.31584441148E+02 -0.11122568747E+02  0.54367080953E+02  0.39999992648E+02 0.  0.
         12    1    3    3    0    0  0.15313119255E+02 -0.31584441148E+02  0.11122568747E+02  0.36820919047E+02  0.00000000000E+00 0. -1.
         11    1    4    4    0    0  0.78045791816E+01  0.16533087390E+02 -0.15457850564E+02  0.23941586814E+02  0.51100000000E-03 0. -1.
        -11    1    4    4    0    0  0.88786707788E+00  0.32005295399E+01  0.84758569828E+00  0.34278417497E+01  0.51100000000E-03 0.  1.
         12    1    4    4    0    0 -0.24005565515E+02  0.11850824218E+02  0.34876961186E+01  0.26997652390E+02  0.00000000000E+00 0. -1.
</event>
<event>
 8    1  0.1240174E-006  0.9118800E+02  0.7816164E-02  0.1184000E+00
        -11   -1    0    0    0    0  0.00000000000E+00  0.00000000000E+00  0.45593999997E+02  0.45594000000E+02  0.51100000000E-03 0.  1.
         11   -1    0    0    0    0 -0.00000000000E+00 -0.00000000000E+00 -0.45593999997E+02  0.45594000000E+02  0.51100000000E-03 0. -1.
         23    2    1    2    0    0  0.66613381478E-15 -0.17763568394E-14  0.00000000000E+00  0.91188000000E+02  0.91188000000E+02 0.  0.
    9900012    2    3    3    0    0  0.16643834987E+01 -0.71220904794E+01  0.36087191951E+02  0.54367085181E+02  0.40000002286E+02 0.  0.
         12    1    3    3    0    0 -0.16643834987E+01  0.71220904794E+01 -0.36087191951E+02  0.36820914819E+02  0.00000000000E+00 0. -1.
         11    1    4    4    0    0  0.10923830951E+02  0.27396625442E+01  0.20911444738E+02  0.23751302170E+02  0.51100000000E-03 0.  1.
        -11    1    4    4    0    0  0.22263639730E-01  0.61613057483E+01  0.93615763571E+01  0.11207198416E+02  0.51100000000E-03 0. -1.
         12    1    4    4    0    0 -0.92817110919E+01 -0.16023058772E+02  0.58141708562E+01  0.19408584594E+02  0.00000000000E+00 0. -1.
</event>
<event>
 8    1  0.1240174E-006  0.9118800E+02  0.7816164E-02  0.1184000E+00
        -11   -1    0    0    0    0  0.00000000000E+00  0.00000000000E+00  0.45593999997E+02  0.45594000000E+02  0.51100000000E-03 0.  1.
         11   -1    0    0    0    0 -0.00000000000E+00 -0.00000000000E+00 -0.45593999997E+02  0.45594000000E+02  0.51100000000E-03 0. -1.
         23    2    1    2    0    0  0.00000000000E+00  0.26645352591E-14  0.35527136788E-14  0.91188000000E+02  0.91188000000E+02 0.  0.
    9900012    2    3    3    0    0  0.31566019309E+02  0.18798105082E+01 -0.18863551944E+02  0.54367070429E+02  0.39999968656E+02 0.  0.
         12    1    3    3    0    0 -0.31566019309E+02 -0.18798105082E+01  0.18863551944E+02  0.36820929571E+02  0.00000000000E+00 0. -1.
         11    1    4    4    0    0 -0.60356602100E+01  0.34210000899E+01 -0.57171849872E+01  0.89899188108E+01  0.51100000000E-03 0. -1.
        -11    1    4    4    0    0  0.14035013231E+02  0.97193253377E+01 -0.28791756085E+01  0.17312900793E+02  0.51100000000E-03 0.  1.
        -12    1    4    4    0    0  0.23566666288E+02 -0.11260514919E+02 -0.10267191348E+02  0.28064250825E+02  0.00000000000E+00 0.  1.
</event>
<event>
 8    1  0.1240174E-006  0.9118800E+02  0.7816164E-02  0.1184000E+00
        -11   -1    0    0    0    0  0.00000000000E+00  0.00000000000E+00  0.45593999997E+02  0.45594000000E+02  0.51100000000E-03 0. -1.
         11   -1    0    0    0    0 -0.00000000000E+00 -0.00000000000E+00 -0.45593999997E+02  0.45594000000E+02  0.51100000000E-03 0.  1.
         23    2    1    2    0    0  0.00000000000E+00 -0.17763568394E-14  0.00000000000E+00  0.91188000000E+02  0.91188000000E+02 0.  0.
    9900012    2    3    3    0    0  0.16323013074E+02 -0.13652239453E+02 -0.30049193637E+02  0.54367103268E+02  0.40000043521E+02 0.  0.
         12    1    3    3    0    0 -0.16323013074E+02  0.13652239453E+02  0.30049193637E+02  0.36820896732E+02  0.00000000000E+00 0. -1.
         11    1    4    4    0    0 -0.47308834018E+00 -0.18187051717E+02 -0.75755321769E+01  0.19707393302E+02  0.51100000000E-03 0. -1.
        -11    1    4    4    0    0  0.74011172068E+01 -0.69618047319E+01 -0.14784925264E+02  0.17939823755E+02  0.51100000000E-03 0.  1.
         12    1    4    4    0    0  0.93949842078E+01  0.11496616996E+02 -0.76887361961E+01  0.16719886211E+02  0.00000000000E+00 0. -1.
</event>
<event>
 8    1  0.1240174E-006  0.9118800E+02  0.7816164E-02  0.1184000E+00
        -11   -1    0    0    0    0  0.00000000000E+00  0.00000000000E+00  0.45593999997E+02  0.45594000000E+02  0.51100000000E-03 0. -1.
         11   -1    0    0    0    0 -0.00000000000E+00 -0.00000000000E+00 -0.45593999997E+02  0.45594000000E+02  0.51100000000E-03 0.  1.
         23    2    1    2    0    0 -0.17763568394E-14 -0.35527136788E-14 -0.17763568394E-14  0.91188000000E+02  0.91188000000E+02 0.  0.
    9900012    2    3    3    0    0 -0.14378596139E+02 -0.30139482706E+02 -0.15512802588E+02  0.54367088974E+02  0.40000010933E+02 0.  0.
         12    1    3    3    0    0  0.14378596139E+02  0.30139482706E+02  0.15512802588E+02  0.36820911026E+02  0.00000000000E+00 0. -1.
         11    1    4    4    0    0 -0.38920218113E+01 -0.24171764807E+02  0.77900456798E+01  0.25692544825E+02  0.51100000000E-03 0.  1.
        -11    1    4    4    0    0 -0.76406338390E+00 -0.60663280154E+01 -0.13730126658E+02  0.15029986918E+02  0.51100000000E-03 0. -1.
        -12    1    4    4    0    0 -0.97225109435E+01  0.98610116269E-01 -0.95727216096E+01  0.13644557230E+02  0.00000000000E+00 0.  1.
</event>
<event>
 8    1  0.1240174E-006  0.9118800E+02  0.7816164E-02  0.1184000E+00
        -11   -1    0    0    0    0  0.00000000000E+00  0.00000000000E+00  0.45593999997E+02  0.45594000000E+02  0.51100000000E-03 0. -1.
         11   -1    0    0    0    0 -0.00000000000E+00 -0.00000000000E+00 -0.45593999997E+02  0.45594000000E+02  0.51100000000E-03 0.  1.
         23    2    1    2    0    0 -0.22204460493E-15  0.00000000000E+00 -0.71054273576E-14  0.91188000000E+02  0.91188000000E+02 0.  0.
    9900012    2    3    3    0    0 -0.15841507099E+01  0.17705304617E+02  0.32245803617E+02  0.54367092950E+02  0.40000019999E+02 0.  0.
        -12    1    3    3    0    0  0.15841507099E+01 -0.17705304617E+02 -0.32245803617E+02  0.36820907050E+02  0.00000000000E+00 0.  1.
         11    1    4    4    0    0  0.62610049235E+00  0.21109817501E+02  0.27439253636E+02  0.34625554683E+02  0.51100000000E-03 0. -1.
        -11    1    4    4    0    0 -0.72691733347E+01  0.89748326721E+00 -0.42828717308E+01  0.84846536588E+01  0.51100000000E-03 0.  1.
        -12    1    4    4    0    0  0.50589221325E+01 -0.43019961511E+01  0.90894217122E+01  0.11256884608E+02  0.00000000000E+00 0.  1.
</event>
<event>
 8    1  0.1240174E-006  0.9118800E+02  0.7816164E-02  0.1184000E+00
        -11   -1    0    0    0    0  0.00000000000E+00  0.00000000000E+00  0.45593999997E+02  0.45594000000E+02  0.51100000000E-03 0. -1.
         11   -1    0    0    0    0 -0.00000000000E+00 -0.00000000000E+00 -0.45593999997E+02  0.45594000000E+02  0.51100000000E-03 0.  1.
         23    2    1    2    0    0 -0.35527136788E-14  0.00000000000E+00  0.88817841970E-15  0.91188000000E+02  0.91188000000E+02 0.  0.
    9900012    2    3    3    0    0 -0.23880459150E+02 -0.27864247135E+02 -0.30145248695E+01  0.54367082605E+02  0.39999996414E+02 0.  0.
         12    1    3    3    0    0  0.23880459150E+02  0.27864247135E+02  0.30145248695E+01  0.36820917395E+02  0.00000000000E+00 0. -1.
         11    1    4    4    0    0  0.59365704405E+01  0.47220030091E+01 -0.48237492285E+01  0.89893680475E+01  0.51100000000E-03 0. -1.
        -11    1    4    4    0    0 -0.22368660717E+02 -0.17251847045E+02  0.21114072703E+01  0.28327393979E+02  0.51100000000E-03 0.  1.
         12    1    4    4    0    0 -0.74483688740E+01 -0.15334403099E+02 -0.30218291128E+00  0.17050320578E+02  0.00000000000E+00 0. -1.
</event>
<event>
 8    1  0.1240174E-006  0.9118800E+02  0.7816164E-02  0.1184000E+00
        -11   -1    0    0    0    0  0.00000000000E+00  0.00000000000E+00  0.45593999997E+02  0.45594000000E+02  0.51100000000E-03 0.  1.
         11   -1    0    0    0    0 -0.00000000000E+00 -0.00000000000E+00 -0.45593999997E+02  0.45594000000E+02  0.51100000000E-03 0. -1.
         23    2    1    2    0    0  0.00000000000E+00  0.00000000000E+00  0.00000000000E+00  0.91188000000E+02  0.91188000000E+02 0.  0.
    9900012    2    3    3    0    0  0.16403325803E+02 -0.46225059830E+01 -0.32639596160E+02  0.54367083438E+02  0.39999998313E+02 0.  0.
        -12    1    3    3    0    0 -0.16403325803E+02  0.46225059830E+01  0.32639596160E+02  0.36820916562E+02  0.00000000000E+00 0.  1.
         11    1    4    4    0    0  0.36534096489E+01 -0.34529156198E+01 -0.16837873656E+02  0.17572251360E+02  0.51100000000E-03 0. -1.
        -11    1    4    4    0    0  0.13252209082E+02 -0.59231404851E+01  0.50754673479E+01  0.15377418764E+02  0.51100000000E-03 0.  1.
        -12    1    4    4    0    0 -0.50229292809E+00  0.47535501219E+01 -0.20877189852E+02  0.21417413314E+02  0.00000000000E+00 0.  1.
</event>
<event>
 8    1  0.1240174E-006  0.9118800E+02  0.7816164E-02  0.1184000E+00
        -11   -1    0    0    0    0  0.00000000000E+00  0.00000000000E+00  0.45593999997E+02  0.45594000000E+02  0.51100000000E-03 0.  1.
         11   -1    0    0    0    0 -0.00000000000E+00 -0.00000000000E+00 -0.45593999997E+02  0.45594000000E+02  0.51100000000E-03 0. -1.
         23    2    1    2    0    0  0.35527136788E-14  0.00000000000E+00 -0.44408920985E-15  0.91188000000E+02  0.91188000000E+02 0.  0.
    9900012    2    3    3    0    0  0.28594741931E+02 -0.22989086621E+02  0.31019496917E+01  0.54367089342E+02  0.40000011773E+02 0.  0.
         12    1    3    3    0    0 -0.28594741931E+02  0.22989086621E+02 -0.31019496917E+01  0.36820910658E+02  0.00000000000E+00 0. -1.
         11    1    4    4    0    0  0.17663644888E+02 -0.30186692675E+02  0.87947555238E+01  0.36063672724E+02  0.51100000000E-03 0. -1.
        -11    1    4    4    0    0 -0.51442440369E+00  0.57247945789E+01 -0.28639789598E+01  0.64218596357E+01  0.51100000000E-03 0.  1.
         12    1    4    4    0    0  0.11445521447E+02  0.14728114747E+01 -0.28288268723E+01  0.11881556982E+02  0.00000000000E+00 0. -1.
</event>
<event>
 8    1  0.1240174E-006  0.9118800E+02  0.7816164E-02  0.1184000E+00
        -11   -1    0    0    0    0  0.00000000000E+00  0.00000000000E+00  0.45593999997E+02  0.45594000000E+02  0.51100000000E-03 0.  1.
         11   -1    0    0    0    0 -0.00000000000E+00 -0.00000000000E+00 -0.45593999997E+02  0.45594000000E+02  0.51100000000E-03 0. -1.
         23    2    1    2    0    0  0.00000000000E+00  0.17763568394E-14  0.00000000000E+00  0.91188000000E+02  0.91188000000E+02 0.  0.
    9900012    2    3    3    0    0  0.28056473054E+02 -0.44662544165E+01  0.23423522720E+02  0.54367156373E+02  0.40000164584E+02 0.  0.
         12    1    3    3    0    0 -0.28056473054E+02  0.44662544165E+01 -0.23423522720E+02  0.36820843627E+02  0.00000000000E+00 0. -1.
         11    1    4    4    0    0  0.11176218812E+01 -0.17377297831E+02  0.14958263048E+02  0.22955809554E+02  0.51100000000E-03 0. -1.
        -11    1    4    4    0    0  0.16685298943E+02  0.96135217008E+01  0.72333640513E+01  0.20570380552E+02  0.51100000000E-03 0.  1.
         12    1    4    4    0    0  0.10253552230E+02  0.32975217139E+01  0.12318956206E+01  0.10840966267E+02  0.00000000000E+00 0. -1.
</event>
<event>
 8    1  0.1240174E-006  0.9118800E+02  0.7816164E-02  0.1184000E+00
        -11   -1    0    0    0    0  0.00000000000E+00  0.00000000000E+00  0.45593999997E+02  0.45594000000E+02  0.51100000000E-03 0.  1.
         11   -1    0    0    0    0 -0.00000000000E+00 -0.00000000000E+00 -0.45593999997E+02  0.45594000000E+02  0.51100000000E-03 0. -1.
         23    2    1    2    0    0 -0.35527136788E-14 -0.88817841970E-15  0.35527136788E-14  0.91188000000E+02  0.91188000000E+02 0.  0.
    9900012    2    3    3    0    0 -0.24457117021E+02 -0.54631430768E+01 -0.26977427550E+02  0.54367107799E+02  0.40000053849E+02 0.  0.
        -12    1    3    3    0    0  0.24457117021E+02  0.54631430768E+01  0.26977427550E+02  0.36820892201E+02  0.00000000000E+00 0.  1.
         11    1    4    4    0    0  0.29278647886E+01  0.38602733848E+01 -0.27253549009E+01  0.55589263732E+01  0.51100000000E-03 0. -1.
        -11    1    4    4    0    0 -0.21862143680E+02  0.40194364777E+01 -0.20498776850E+01  0.22322884999E+02  0.51100000000E-03 0.  1.
        -12    1    4    4    0    0 -0.55228381290E+01 -0.13342852939E+02 -0.22202194965E+02  0.26485296427E+02  0.00000000000E+00 0.  1.
</event>
<event>
 8    1  0.1240174E-006  0.9118800E+02  0.7816164E-02  0.1184000E+00
        -11   -1    0    0    0    0  0.00000000000E+00  0.00000000000E+00  0.45593999997E+02  0.45594000000E+02  0.51100000000E-03 0.  1.
         11   -1    0    0    0    0 -0.00000000000E+00 -0.00000000000E+00 -0.45593999997E+02  0.45594000000E+02  0.51100000000E-03 0. -1.
         23    2    1    2    0    0  0.35527136788E-14  0.35527136788E-14  0.88817841970E-15  0.91188000000E+02  0.91188000000E+02 0.  0.
    9900012    2    3    3    0    0 -0.23391235970E+02 -0.28308753126E+02 -0.26949563110E+01  0.54366834711E+02  0.39999431286E+02 0.  0.
        -12    1    3    3    0    0  0.23391235970E+02  0.28308753126E+02  0.26949563110E+01  0.36821165289E+02  0.00000000000E+00 0.  1.
         11    1    4    4    0    0 -0.27480741402E+01 -0.60207284500E+01 -0.11202342949E+02  0.13011286268E+02  0.51100000000E-03 0. -1.
        -11    1    4    4    0    0 -0.12046039464E+02 -0.75301768349E+01  0.17104461551E+02  0.22234505507E+02  0.51100000000E-03 0.  1.
         12    1    4    4    0    0 -0.85971223656E+01 -0.14757847841E+02 -0.85970749136E+01  0.19121042935E+02  0.00000000000E+00 0. -1.
</event>
<event>
 8    1  0.1240174E-006  0.9118800E+02  0.7816164E-02  0.1184000E+00
        -11   -1    0    0    0    0  0.00000000000E+00  0.00000000000E+00  0.45593999997E+02  0.45594000000E+02  0.51100000000E-03 0.  1.
         11   -1    0    0    0    0 -0.00000000000E+00 -0.00000000000E+00 -0.45593999997E+02  0.45594000000E+02  0.51100000000E-03 0. -1.
         23    2    1    2    0    0 -0.35527136788E-14  0.00000000000E+00  0.00000000000E+00  0.91188000000E+02  0.91188000000E+02 0.  0.
    9900012    2    3    3    0    0 -0.22376081610E+02  0.86187811519E+01 -0.27942838383E+02  0.54367154903E+02  0.40000161233E+02 0.  0.
        -12    1    3    3    0    0  0.22376081610E+02 -0.86187811519E+01  0.27942838383E+02  0.36820845097E+02  0.00000000000E+00 0.  1.
         11    1    4    4    0    0 -0.63116735455E+01  0.72091459400E+01 -0.59700015430E+01  0.11289372295E+02  0.51100000000E-03 0. -1.
        -11    1    4    4    0    0 -0.18137103218E+01  0.88945905259E+01  0.59455122887E+01  0.10851377903E+02  0.51100000000E-03 0.  1.
         12    1    4    4    0    0 -0.14250697742E+02 -0.74849553140E+01 -0.27918349128E+02  0.32226404706E+02  0.00000000000E+00 0. -1.
</event>
<event>
 8    1  0.1240174E-006  0.9118800E+02  0.7816164E-02  0.1184000E+00
        -11   -1    0    0    0    0  0.00000000000E+00  0.00000000000E+00  0.45593999997E+02  0.45594000000E+02  0.51100000000E-03 0. -1.
         11   -1    0    0    0    0 -0.00000000000E+00 -0.00000000000E+00 -0.45593999997E+02  0.45594000000E+02  0.51100000000E-03 0.  1.
         23    2    1    2    0    0 -0.71054273576E-14  0.00000000000E+00 -0.88817841970E-15  0.91188000000E+02  0.91188000000E+02 0.  0.
    9900012    2    3    3    0    0  0.35336513728E+02  0.95782111830E+01  0.39211156290E+01  0.54366994042E+02  0.39999794518E+02 0.  0.
        -12    1    3    3    0    0 -0.35336513728E+02 -0.95782111830E+01 -0.39211156290E+01  0.36821005958E+02  0.00000000000E+00 0.  1.
         11    1    4    4    0    0  0.30391811724E+02  0.32997422649E+00 -0.89070724364E+01  0.31671865157E+02  0.51100000000E-03 0. -1.
        -11    1    4    4    0    0  0.45506156420E+00  0.99564650817E+01  0.99181749063E+00  0.10016086069E+02  0.51100000000E-03 0.  1.
         12    1    4    4    0    0  0.44896404403E+01 -0.70822812521E+00  0.11836370575E+02  0.12679042817E+02  0.00000000000E+00 0. -1.
</event>
<event>
 8    1  0.1240174E-006  0.9118800E+02  0.7816164E-02  0.1184000E+00
        -11   -1    0    0    0    0  0.00000000000E+00  0.00000000000E+00  0.45593999997E+02  0.45594000000E+02  0.51100000000E-03 0.  1.
         11   -1    0    0    0    0 -0.00000000000E+00 -0.00000000000E+00 -0.45593999997E+02  0.45594000000E+02  0.51100000000E-03 0. -1.
         23    2    1    2    0    0  0.35527136788E-14 -0.35527136788E-14 -0.44408920985E-15  0.91188000000E+02  0.91188000000E+02 0.  0.
    9900012    2    3    3    0    0 -0.21323958304E+02  0.29908658501E+02 -0.25574939102E+01  0.54367084392E+02  0.40000000489E+02 0.  0.
        -12    1    3    3    0    0  0.21323958304E+02 -0.29908658501E+02  0.25574939102E+01  0.36820915608E+02  0.00000000000E+00 0.  1.
         11    1    4    4    0    0  0.99462821247E+00  0.67319561208E+01  0.64377464952E+01  0.93676623920E+01  0.51100000000E-03 0. -1.
        -11    1    4    4    0    0  0.71624463312E+01  0.75082537908E+01  0.17040515250E+00  0.10378032117E+02  0.51100000000E-03 0.  1.
         12    1    4    4    0    0 -0.29481032848E+02  0.15668448590E+02 -0.91656455579E+01  0.34621389884E+02  0.00000000000E+00 0. -1.
</event>
<event>
 8    1  0.1240174E-006  0.9118800E+02  0.7816164E-02  0.1184000E+00
        -11   -1    0    0    0    0  0.00000000000E+00  0.00000000000E+00  0.45593999997E+02  0.45594000000E+02  0.51100000000E-03 0. -1.
         11   -1    0    0    0    0 -0.00000000000E+00 -0.00000000000E+00 -0.45593999997E+02  0.45594000000E+02  0.51100000000E-03 0.  1.
         23    2    1    2    0    0  0.17763568394E-14  0.88817841970E-15  0.00000000000E+00  0.91188000000E+02  0.91188000000E+02 0.  0.
    9900012    2    3    3    0    0  0.12062460432E+02  0.44370713565E+01  0.34504916299E+02  0.54367084711E+02  0.40000001216E+02 0.  0.
        -12    1    3    3    0    0 -0.12062460432E+02 -0.44370713565E+01 -0.34504916299E+02  0.36820915289E+02  0.00000000000E+00 0.  1.
         11    1    4    4    0    0  0.20192138958E+02  0.36123553090E+01  0.97436517184E+01  0.22709256607E+02  0.51100000000E-03 0. -1.
        -11    1    4    4    0    0 -0.36666727394E+01 -0.73659920327E+01  0.18972393303E+02  0.20679797763E+02  0.51100000000E-03 0.  1.
        -12    1    4    4    0    0 -0.44630057862E+01  0.81907080802E+01  0.57888712776E+01  0.10978030341E+02  0.00000000000E+00 0.  1.
</event>
<event>
 8    1  0.1240174E-006  0.9118800E+02  0.7816164E-02  0.1184000E+00
        -11   -1    0    0    0    0  0.00000000000E+00  0.00000000000E+00  0.45593999997E+02  0.45594000000E+02  0.51100000000E-03 0.  1.
         11   -1    0    0    0    0 -0.00000000000E+00 -0.00000000000E+00 -0.45593999997E+02  0.45594000000E+02  0.51100000000E-03 0. -1.
         23    2    1    2    0    0  0.00000000000E+00  0.00000000000E+00  0.00000000000E+00  0.91188000000E+02  0.91188000000E+02 0.  0.
    9900012    2    3    3    0    0 -0.21398713740E+02 -0.23269191710E+02  0.18879101009E+02  0.54367072697E+02  0.39999973828E+02 0.  0.
         12    1    3    3    0    0  0.21398713740E+02  0.23269191710E+02 -0.18879101009E+02  0.36820927303E+02  0.00000000000E+00 0. -1.
         11    1    4    4    0    0 -0.34212076950E+01 -0.10941418810E+02  0.85178221058E+01  0.14281897681E+02  0.51100000000E-03 0. -1.
        -11    1    4    4    0    0 -0.69118575197E+01 -0.18657013686E+02  0.16582265176E+02  0.25900375531E+02  0.51100000000E-03 0.  1.
        -12    1    4    4    0    0 -0.11065648526E+02  0.63292407864E+01 -0.62209862732E+01  0.14184799485E+02  0.00000000000E+00 0.  1.
</event>
<event>
 8    1  0.1240174E-006  0.9118800E+02  0.7816164E-02  0.1184000E+00
        -11   -1    0    0    0    0  0.00000000000E+00  0.00000000000E+00  0.45593999997E+02  0.45594000000E+02  0.51100000000E-03 0.  1.
         11   -1    0    0    0    0 -0.00000000000E+00 -0.00000000000E+00 -0.45593999997E+02  0.45594000000E+02  0.51100000000E-03 0. -1.
         23    2    1    2    0    0 -0.26645352591E-14  0.00000000000E+00  0.17763568394E-14  0.91188000000E+02  0.91188000000E+02 0.  0.
    9900012    2    3    3    0    0  0.33723133191E+01  0.34434353264E+02 -0.12597018038E+02  0.54367054259E+02  0.39999931795E+02 0.  0.
        -12    1    3    3    0    0 -0.33723133191E+01 -0.34434353264E+02  0.12597018038E+02  0.36820945741E+02  0.00000000000E+00 0.  1.
         11    1    4    4    0    0 -0.66187184293E+01  0.20546445425E+02 -0.64733055956E+01  0.22535916641E+02  0.51100000000E-03 0. -1.
        -11    1    4    4    0    0  0.11934636019E+02  0.18967844847E+02  0.15065673389E+01  0.22460730631E+02  0.51100000000E-03 0.  1.
         12    1    4    4    0    0 -0.19436042704E+01 -0.50799370089E+01 -0.76302797811E+01  0.93704069876E+01  0.00000000000E+00 0. -1.
</event>
<event>
 8    1  0.1240174E-006  0.9118800E+02  0.7816164E-02  0.1184000E+00
        -11   -1    0    0    0    0  0.00000000000E+00  0.00000000000E+00  0.45593999997E+02  0.45594000000E+02  0.51100000000E-03 0.  1.
         11   -1    0    0    0    0 -0.00000000000E+00 -0.00000000000E+00 -0.45593999997E+02  0.45594000000E+02  0.51100000000E-03 0. -1.
         23    2    1    2    0    0 -0.35527136788E-14  0.35527136788E-14  0.00000000000E+00  0.91188000000E+02  0.91188000000E+02 0.  0.
    9900012    2    3    3    0    0  0.19193833049E+02 -0.20968561759E+02 -0.23402900301E+02  0.54367088118E+02  0.40000008982E+02 0.  0.
        -12    1    3    3    0    0 -0.19193833049E+02  0.20968561759E+02  0.23402900301E+02  0.36820911882E+02  0.00000000000E+00 0.  1.
         11    1    4    4    0    0  0.70072279264E+01 -0.11714605273E+02 -0.13151341379E+02  0.18954972969E+02  0.51100000000E-03 0.  1.
        -11    1    4    4    0    0  0.84878485641E+01 -0.19798968650E+02 -0.11046786013E+02  0.24208969708E+02  0.51100000000E-03 0. -1.
        -12    1    4    4    0    0  0.36987565587E+01  0.10545012165E+02  0.79522709200E+00  0.11203145440E+02  0.00000000000E+00 0.  1.
</event>
<event>
 8    1  0.1240174E-006  0.9118800E+02  0.7816164E-02  0.1184000E+00
        -11   -1    0    0    0    0  0.00000000000E+00  0.00000000000E+00  0.45593999997E+02  0.45594000000E+02  0.51100000000E-03 0. -1.
         11   -1    0    0    0    0 -0.00000000000E+00 -0.00000000000E+00 -0.45593999997E+02  0.45594000000E+02  0.51100000000E-03 0.  1.
         23    2    1    2    0    0  0.00000000000E+00 -0.88817841970E-15  0.35527136788E-14  0.91188000000E+02  0.91188000000E+02 0.  0.
    9900012    2    3    3    0    0  0.33040854363E+02 -0.31198873357E+01 -0.15948295331E+02  0.54367083689E+02  0.39999998885E+02 0.  0.
        -12    1    3    3    0    0 -0.33040854363E+02  0.31198873357E+01  0.15948295331E+02  0.36820916311E+02  0.00000000000E+00 0.  1.
         11    1    4    4    0    0  0.12685879257E+02  0.24229160266E+01  0.88649746661E+01  0.15664923577E+02  0.51100000000E-03 0.  1.
        -11    1    4    4    0    0  0.22952651545E+02  0.65259202301E+00 -0.19800313073E+02  0.30320001441E+02  0.51100000000E-03 0. -1.
         12    1    4    4    0    0 -0.25976764391E+01 -0.61953953853E+01 -0.50129569238E+01  0.83821586708E+01  0.00000000000E+00 0. -1.
</event>
<event>
 8    1  0.1240174E-006  0.9118800E+02  0.7816164E-02  0.1184000E+00
        -11   -1    0    0    0    0  0.00000000000E+00  0.00000000000E+00  0.45593999997E+02  0.45594000000E+02  0.51100000000E-03 0.  1.
         11   -1    0    0    0    0 -0.00000000000E+00 -0.00000000000E+00 -0.45593999997E+02  0.45594000000E+02  0.51100000000E-03 0. -1.
         23    2    1    2    0    0  0.00000000000E+00  0.00000000000E+00  0.00000000000E+00  0.91188000000E+02  0.91188000000E+02 0.  0.
    9900012    2    3    3    0    0  0.33585947336E+02 -0.64935404816E+01  0.13623125924E+02  0.54367197641E+02  0.40000258662E+02 0.  0.
         12    1    3    3    0    0 -0.33585947336E+02  0.64935404816E+01 -0.13623125924E+02  0.36820802359E+02  0.00000000000E+00 0. -1.
         11    1    4    4    0    0  0.14545018895E+01  0.34367538551E+01 -0.11306525849E+02  0.11906484781E+02  0.51100000000E-03 0. -1.
        -11    1    4    4    0    0  0.29210572612E+02 -0.75272878886E+01  0.19781548392E+02  0.36072527945E+02  0.51100000000E-03 0.  1.
         12    1    4    4    0    0  0.29208728341E+01 -0.24030064481E+01  0.51481033804E+01  0.63881849157E+01  0.00000000000E+00 0. -1.
</event>
<event>
 8    1  0.1240174E-006  0.9118800E+02  0.7816164E-02  0.1184000E+00
        -11   -1    0    0    0    0  0.00000000000E+00  0.00000000000E+00  0.45593999997E+02  0.45594000000E+02  0.51100000000E-03 0.  1.
         11   -1    0    0    0    0 -0.00000000000E+00 -0.00000000000E+00 -0.45593999997E+02  0.45594000000E+02  0.51100000000E-03 0. -1.
         23    2    1    2    0    0 -0.71054273576E-14  0.35527136788E-14 -0.88817841970E-15  0.91188000000E+02  0.91188000000E+02 0.  0.
    9900012    2    3    3    0    0 -0.29408486225E+02 -0.22123709981E+02  0.12099452476E+01  0.54367060674E+02  0.39999946418E+02 0.  0.
         12    1    3    3    0    0  0.29408486225E+02  0.22123709981E+02 -0.12099452476E+01  0.36820939326E+02  0.00000000000E+00 0. -1.
         11    1    4    4    0    0  0.15289912061E+01 -0.44661958819E+01 -0.83613343782E+01  0.96019077589E+01  0.51100000000E-03 0. -1.
        -11    1    4    4    0    0  0.13901589496E+01 -0.76768021481E+01  0.75732966771E+01  0.10872932261E+02  0.51100000000E-03 0.  1.
        -12    1    4    4    0    0 -0.32327636381E+02 -0.99807119507E+01  0.19979829487E+01  0.33892220654E+02  0.00000000000E+00 0.  1.
</event>
<event>
 8    1  0.1240174E-006  0.9118800E+02  0.7816164E-02  0.1184000E+00
        -11   -1    0    0    0    0  0.00000000000E+00  0.00000000000E+00  0.45593999997E+02  0.45594000000E+02  0.51100000000E-03 0. -1.
         11   -1    0    0    0    0 -0.00000000000E+00 -0.00000000000E+00 -0.45593999997E+02  0.45594000000E+02  0.51100000000E-03 0.  1.
         23    2    1    2    0    0 -0.13322676296E-14 -0.71054273576E-14  0.00000000000E+00  0.91188000000E+02  0.91188000000E+02 0.  0.
    9900012    2    3    3    0    0  0.79606404174E+00 -0.36772402316E+02 -0.17137306167E+01  0.54367079823E+02  0.39999990072E+02 0.  0.
         12    1    3    3    0    0 -0.79606404174E+00  0.36772402316E+02  0.17137306167E+01  0.36820920177E+02  0.00000000000E+00 0. -1.
         11    1    4    4    0    0 -0.10120713430E+02 -0.55093377069E+01  0.28493293742E+01  0.11870144078E+02  0.51100000000E-03 0. -1.
        -11    1    4    4    0    0 -0.54521032318E+01 -0.11814705661E+02  0.67667168797E+01  0.14666327322E+02  0.51100000000E-03 0.  1.
         12    1    4    4    0    0  0.16368880703E+02 -0.19448358948E+02 -0.11329776871E+02  0.27830608423E+02  0.00000000000E+00 0. -1.
</event>
<event>
 8    1  0.1240174E-006  0.9118800E+02  0.7816164E-02  0.1184000E+00
        -11   -1    0    0    0    0  0.00000000000E+00  0.00000000000E+00  0.45593999997E+02  0.45594000000E+02  0.51100000000E-03 0.  1.
         11   -1    0    0    0    0 -0.00000000000E+00 -0.00000000000E+00 -0.45593999997E+02  0.45594000000E+02  0.51100000000E-03 0. -1.
         23    2    1    2    0    0  0.00000000000E+00  0.17763568394E-14  0.17763568394E-14  0.91188000000E+02  0.91188000000E+02 0.  0.
    9900012    2    3    3    0    0  0.32336127098E+02 -0.91196722186E+01 -0.15066089968E+02  0.54367073831E+02  0.39999976412E+02 0.  0.
        -12    1    3    3    0    0 -0.32336127098E+02  0.91196722186E+01  0.15066089968E+02  0.36820926169E+02  0.00000000000E+00 0.  1.
         11    1    4    4    0    0  0.16464441527E+02  0.16912166788E+00 -0.51836044873E+01  0.17261986927E+02  0.51100000000E-03 0. -1.
        -11    1    4    4    0    0  0.95902834659E+01 -0.44747387885E+00  0.10369718118E+02  0.14131695720E+02  0.51100000000E-03 0.  1.
         12    1    4    4    0    0  0.62814021046E+01 -0.88413200076E+01 -0.20252203598E+02  0.22973391183E+02  0.00000000000E+00 0. -1.
</event>
<event>
 8    1  0.1240174E-006  0.9118800E+02  0.7816164E-02  0.1184000E+00
        -11   -1    0    0    0    0  0.00000000000E+00  0.00000000000E+00  0.45593999997E+02  0.45594000000E+02  0.51100000000E-03 0.  1.
         11   -1    0    0    0    0 -0.00000000000E+00 -0.00000000000E+00 -0.45593999997E+02  0.45594000000E+02  0.51100000000E-03 0. -1.
         23    2    1    2    0    0  0.00000000000E+00  0.00000000000E+00  0.00000000000E+00  0.91188000000E+02  0.91188000000E+02 0.  0.
    9900012    2    3    3    0    0  0.92021793654E+01 -0.30348069079E+02  0.18710908712E+02  0.54367034413E+02  0.39999886552E+02 0.  0.
         12    1    3    3    0    0 -0.92021793654E+01  0.30348069079E+02 -0.18710908712E+02  0.36820965587E+02  0.00000000000E+00 0. -1.
         11    1    4    4    0    0 -0.82236353393E+00 -0.93252468641E+01 -0.93229543291E+01  0.13211888152E+02  0.51100000000E-03 0. -1.
        -11    1    4    4    0    0  0.14136529411E+02 -0.20276238928E+02  0.18916465399E+02  0.31125552081E+02  0.51100000000E-03 0.  1.
        -12    1    4    4    0    0 -0.41119865114E+01 -0.74658328682E+00  0.91173976418E+01  0.10029594181E+02  0.00000000000E+00 0.  1.
</event>
<event>
 8    1  0.1240174E-006  0.9118800E+02  0.7816164E-02  0.1184000E+00
        -11   -1    0    0    0    0  0.00000000000E+00  0.00000000000E+00  0.45593999997E+02  0.45594000000E+02  0.51100000000E-03 0. -1.
         11   -1    0    0    0    0 -0.00000000000E+00 -0.00000000000E+00 -0.45593999997E+02  0.45594000000E+02  0.51100000000E-03 0.  1.
         23    2    1    2    0    0  0.00000000000E+00  0.88817841970E-15  0.00000000000E+00  0.91188000000E+02  0.91188000000E+02 0.  0.
    9900012    2    3    3    0    0 -0.29532575801E+02 -0.79296231244E+01  0.20511642099E+02  0.54367089936E+02  0.40000013127E+02 0.  0.
        -12    1    3    3    0    0  0.29532575801E+02  0.79296231244E+01 -0.20511642099E+02  0.36820910064E+02  0.00000000000E+00 0.  1.
         11    1    4    4    0    0 -0.18555877617E+02  0.16144902425E+01  0.17704807440E+02  0.25698003417E+02  0.51100000000E-03 0. -1.
        -11    1    4    4    0    0 -0.18092652927E+02 -0.10833176329E+02  0.55654651738E+00  0.21095296718E+02  0.51100000000E-03 0.  1.
        -12    1    4    4    0    0  0.71159547433E+01  0.12890629619E+01  0.22502881414E+01  0.75737898009E+01  0.00000000000E+00 0.  1.
</event>
<event>
 8    1  0.1240174E-006  0.9118800E+02  0.7816164E-02  0.1184000E+00
        -11   -1    0    0    0    0  0.00000000000E+00  0.00000000000E+00  0.45593999997E+02  0.45594000000E+02  0.51100000000E-03 0.  1.
         11   -1    0    0    0    0 -0.00000000000E+00 -0.00000000000E+00 -0.45593999997E+02  0.45594000000E+02  0.51100000000E-03 0. -1.
         23    2    1    2    0    0  0.00000000000E+00 -0.17763568394E-14  0.00000000000E+00  0.91188000000E+02  0.91188000000E+02 0.  0.
    9900012    2    3    3    0    0  0.30997788157E+02 -0.65273145176E+01  0.18769952151E+02  0.54367084623E+02  0.40000001016E+02 0.  0.
         12    1    3    3    0    0 -0.30997788157E+02  0.65273145176E+01 -0.18769952151E+02  0.36820915377E+02  0.00000000000E+00 0. -1.
         11    1    4    4    0    0  0.35894418787E+01  0.11638449011E+02 -0.15262070787E+00  0.12180348177E+02  0.51100000000E-03 0. -1.
        -11    1    4    4    0    0  0.16814002910E+02 -0.26979058831E+01  0.15703098232E+02  0.23164124943E+02  0.51100000000E-03 0.  1.
         12    1    4    4    0    0  0.10594343368E+02 -0.15467857645E+02  0.32194746272E+01  0.19022611503E+02  0.00000000000E+00 0. -1.
</event>
<event>
 8    1  0.1240174E-006  0.9118800E+02  0.7816164E-02  0.1184000E+00
        -11   -1    0    0    0    0  0.00000000000E+00  0.00000000000E+00  0.45593999997E+02  0.45594000000E+02  0.51100000000E-03 0. -1.
         11   -1    0    0    0    0 -0.00000000000E+00 -0.00000000000E+00 -0.45593999997E+02  0.45594000000E+02  0.51100000000E-03 0.  1.
         23    2    1    2    0    0  0.35527136788E-14  0.00000000000E+00 -0.26645352591E-14  0.91188000000E+02  0.91188000000E+02 0.  0.
    9900012    2    3    3    0    0 -0.24463412091E+02  0.27128499831E+02  0.46222683979E+01  0.54367090189E+02  0.40000013703E+02 0.  0.
        -12    1    3    3    0    0  0.24463412091E+02 -0.27128499831E+02 -0.46222683979E+01  0.36820909811E+02  0.00000000000E+00 0.  1.
         11    1    4    4    0    0  0.10809900411E+01  0.88358197943E+00  0.37764422836E+01  0.40262604443E+01  0.51100000000E-03 0. -1.
        -11    1    4    4    0    0 -0.12854879378E+02  0.16069528494E+02 -0.16636379873E+02  0.26462176883E+02  0.51100000000E-03 0.  1.
        -12    1    4    4    0    0 -0.12689522754E+02  0.10175389358E+02  0.17482205987E+02  0.23878652862E+02  0.00000000000E+00 0.  1.
</event>
<event>
 8    1  0.1240174E-006  0.9118800E+02  0.7816164E-02  0.1184000E+00
        -11   -1    0    0    0    0  0.00000000000E+00  0.00000000000E+00  0.45593999997E+02  0.45594000000E+02  0.51100000000E-03 0.  1.
         11   -1    0    0    0    0 -0.00000000000E+00 -0.00000000000E+00 -0.45593999997E+02  0.45594000000E+02  0.51100000000E-03 0. -1.
         23    2    1    2    0    0  0.17763568394E-14 -0.71054273576E-14  0.00000000000E+00  0.91188000000E+02  0.91188000000E+02 0.  0.
    9900012    2    3    3    0    0 -0.12519353033E+02  0.31607637600E+02 -0.14142288346E+02  0.54367064723E+02  0.39999955648E+02 0.  0.
        -12    1    3    3    0    0  0.12519353033E+02 -0.31607637600E+02  0.14142288346E+02  0.36820935277E+02  0.00000000000E+00 0.  1.
         11    1    4    4    0    0 -0.81904119819E+01  0.46401647295E+01 -0.28625596963E+00  0.94178511292E+01  0.51100000000E-03 0. -1.
        -11    1    4    4    0    0  0.30536798535E+01  0.27465394821E+01  0.95948216250E+01  0.10436907686E+02  0.51100000000E-03 0.  1.
         12    1    4    4    0    0 -0.73826209043E+01  0.24220933389E+02 -0.23450854002E+02  0.34512305907E+02  0.00000000000E+00 0. -1.
</event>
<event>
 8    1  0.1240174E-006  0.9118800E+02  0.7816164E-02  0.1184000E+00
        -11   -1    0    0    0    0  0.00000000000E+00  0.00000000000E+00  0.45593999997E+02  0.45594000000E+02  0.51100000000E-03 0.  1.
         11   -1    0    0    0    0 -0.00000000000E+00 -0.00000000000E+00 -0.45593999997E+02  0.45594000000E+02  0.51100000000E-03 0. -1.
         23    2    1    2    0    0  0.00000000000E+00  0.00000000000E+00 -0.26645352591E-14  0.91188000000E+02  0.91188000000E+02 0.  0.
    9900012    2    3    3    0    0 -0.93015568486E+01 -0.34847564234E+02 -0.74100128874E+01  0.54367082251E+02  0.39999995608E+02 0.  0.
        -12    1    3    3    0    0  0.93015568486E+01  0.34847564234E+02  0.74100128874E+01  0.36820917749E+02  0.00000000000E+00 0.  1.
         11    1    4    4    0    0 -0.70138012027E+01 -0.28802868234E+02 -0.17051278980E+02  0.34198607295E+02  0.51100000000E-03 0. -1.
        -11    1    4    4    0    0  0.71561159818E+00 -0.58289120494E+01  0.13821078689E+02  0.15017008092E+02  0.51100000000E-03 0.  1.
        -12    1    4    4    0    0 -0.30033672440E+01 -0.21578395135E+00 -0.41798125965E+01  0.51514668647E+01  0.00000000000E+00 0.  1.
</event>
<event>
 8    1  0.1240174E-006  0.9118800E+02  0.7816164E-02  0.1184000E+00
        -11   -1    0    0    0    0  0.00000000000E+00  0.00000000000E+00  0.45593999997E+02  0.45594000000E+02  0.51100000000E-03 0. -1.
         11   -1    0    0    0    0 -0.00000000000E+00 -0.00000000000E+00 -0.45593999997E+02  0.45594000000E+02  0.51100000000E-03 0.  1.
         23    2    1    2    0    0  0.00000000000E+00  0.00000000000E+00 -0.35527136788E-14  0.91188000000E+02  0.91188000000E+02 0.  0.
    9900012    2    3    3    0    0  0.82591649550E+01 -0.23574930082E+02  0.27051594199E+02  0.54367083623E+02  0.39999998735E+02 0.  0.
        -12    1    3    3    0    0 -0.82591649550E+01  0.23574930082E+02 -0.27051594199E+02  0.36820916377E+02  0.00000000000E+00 0.  1.
         11    1    4    4    0    0  0.81335597309E+01  0.27273304579E+01 -0.47160316374E+01  0.97894882394E+01  0.51100000000E-03 0. -1.
        -11    1    4    4    0    0  0.33339792295E+01 -0.10710690224E+02  0.28591600493E+01  0.11576229914E+02  0.51100000000E-03 0.  1.
         12    1    4    4    0    0 -0.32083740054E+01 -0.15591570316E+02  0.28908465787E+02  0.33001365469E+02  0.00000000000E+00 0. -1.
</event>
<event>
 8    1  0.1240174E-006  0.9118800E+02  0.7816164E-02  0.1184000E+00
        -11   -1    0    0    0    0  0.00000000000E+00  0.00000000000E+00  0.45593999997E+02  0.45594000000E+02  0.51100000000E-03 0. -1.
         11   -1    0    0    0    0 -0.00000000000E+00 -0.00000000000E+00 -0.45593999997E+02  0.45594000000E+02  0.51100000000E-03 0.  1.
         23    2    1    2    0    0  0.00000000000E+00  0.00000000000E+00  0.71054273576E-14  0.91188000000E+02  0.91188000000E+02 0.  0.
    9900012    2    3    3    0    0  0.99683822049E+01  0.21673397534E+02 -0.28047772304E+02  0.54367050315E+02  0.39999922803E+02 0.  0.
         12    1    3    3    0    0 -0.99683822049E+01 -0.21673397534E+02  0.28047772304E+02  0.36820949685E+02  0.00000000000E+00 0. -1.
         11    1    4    4    0    0  0.15340969752E+02  0.12548293812E+02 -0.69269532964E+01  0.20994944933E+02  0.51100000000E-03 0. -1.
        -11    1    4    4    0    0  0.73545657209E+01  0.10648555035E+02 -0.93097690814E+01  0.15942181842E+02  0.51100000000E-03 0.  1.
        -12    1    4    4    0    0 -0.12727153268E+02 -0.15234513129E+01 -0.11811049927E+02  0.17429923539E+02  0.00000000000E+00 0.  1.
</event>
<event>
 8    1  0.1240174E-006  0.9118800E+02  0.7816164E-02  0.1184000E+00
        -11   -1    0    0    0    0  0.00000000000E+00  0.00000000000E+00  0.45593999997E+02  0.45594000000E+02  0.51100000000E-03 0. -1.
         11   -1    0    0    0    0 -0.00000000000E+00 -0.00000000000E+00 -0.45593999997E+02  0.45594000000E+02  0.51100000000E-03 0.  1.
         23    2    1    2    0    0  0.00000000000E+00  0.35527136788E-14  0.00000000000E+00  0.91188000000E+02  0.91188000000E+02 0.  0.
    9900012    2    3    3    0    0 -0.11824522688E+01 -0.23808023622E+02 -0.28063495932E+02  0.54367082221E+02  0.39999995540E+02 0.  0.
         12    1    3    3    0    0  0.11824522688E+01  0.23808023622E+02  0.28063495932E+02  0.36820917779E+02  0.00000000000E+00 0. -1.
         11    1    4    4    0    0 -0.14510738515E+01 -0.18688228063E-01 -0.33205169917E+01  0.36237822680E+01  0.51100000000E-03 0. -1.
        -11    1    4    4    0    0  0.60799099964E+01 -0.17421436769E+02  0.55332048280E+01  0.19263647645E+02  0.51100000000E-03 0.  1.
        -12    1    4    4    0    0 -0.58112884137E+01 -0.63678986253E+01 -0.30276183768E+02  0.31479652309E+02  0.00000000000E+00 0.  1.
</event>
<event>
 8    1  0.1240174E-006  0.9118800E+02  0.7816164E-02  0.1184000E+00
        -11   -1    0    0    0    0  0.00000000000E+00  0.00000000000E+00  0.45593999997E+02  0.45594000000E+02  0.51100000000E-03 0. -1.
         11   -1    0    0    0    0 -0.00000000000E+00 -0.00000000000E+00 -0.45593999997E+02  0.45594000000E+02  0.51100000000E-03 0.  1.
         23    2    1    2    0    0 -0.35527136788E-14  0.35527136788E-14 -0.88817841970E-15  0.91188000000E+02  0.91188000000E+02 0.  0.
    9900012    2    3    3    0    0 -0.29334390297E+02  0.21396277598E+02  0.61214953003E+01  0.54367084016E+02  0.39999999632E+02 0.  0.
        -12    1    3    3    0    0  0.29334390297E+02 -0.21396277598E+02 -0.61214953003E+01  0.36820915984E+02  0.00000000000E+00 0.  1.
         11    1    4    4    0    0  0.36846401711E+01  0.68254948897E+01 -0.12326042005E+01  0.78538695594E+01  0.51100000000E-03 0. -1.
        -11    1    4    4    0    0 -0.79923452206E+01  0.18705639386E+02  0.10134164877E+01  0.20366775401E+02  0.51100000000E-03 0.  1.
         12    1    4    4    0    0 -0.25026685248E+02 -0.41348566778E+01  0.63406830130E+01  0.26146439056E+02  0.00000000000E+00 0. -1.
</event>
<event>
 8    1  0.1240174E-006  0.9118800E+02  0.7816164E-02  0.1184000E+00
        -11   -1    0    0    0    0  0.00000000000E+00  0.00000000000E+00  0.45593999997E+02  0.45594000000E+02  0.51100000000E-03 0.  1.
         11   -1    0    0    0    0 -0.00000000000E+00 -0.00000000000E+00 -0.45593999997E+02  0.45594000000E+02  0.51100000000E-03 0. -1.
         23    2    1    2    0    0 -0.17763568394E-14  0.71054273576E-14  0.17763568394E-14  0.91188000000E+02  0.91188000000E+02 0.  0.
    9900012    2    3    3    0    0 -0.12989248917E+02  0.33656161720E+02  0.73703789579E+01  0.54367078024E+02  0.39999985972E+02 0.  0.
         12    1    3    3    0    0  0.12989248917E+02 -0.33656161720E+02 -0.73703789579E+01  0.36820921976E+02  0.00000000000E+00 0. -1.
         11    1    4    4    0    0  0.36547137230E+01  0.54873225764E+01  0.33492336647E+01  0.73949312273E+01  0.51100000000E-03 0. -1.
        -11    1    4    4    0    0 -0.19544244977E+02  0.84520365494E+01 -0.90522189549E+01  0.23137785154E+02  0.51100000000E-03 0.  1.
         12    1    4    4    0    0  0.29002823367E+01  0.19716802594E+02  0.13073364248E+02  0.23834361643E+02  0.00000000000E+00 0. -1.
</event>
<event>
 8    1  0.1240174E-006  0.9118800E+02  0.7816164E-02  0.1184000E+00
        -11   -1    0    0    0    0  0.00000000000E+00  0.00000000000E+00  0.45593999997E+02  0.45594000000E+02  0.51100000000E-03 0.  1.
         11   -1    0    0    0    0 -0.00000000000E+00 -0.00000000000E+00 -0.45593999997E+02  0.45594000000E+02  0.51100000000E-03 0. -1.
         23    2    1    2    0    0  0.00000000000E+00  0.00000000000E+00  0.00000000000E+00  0.91188000000E+02  0.91188000000E+02 0.  0.
    9900012    2    3    3    0    0  0.28155579918E+02  0.40024193419E+01 -0.23388542099E+02  0.54367082812E+02  0.39999996886E+02 0.  0.
        -12    1    3    3    0    0 -0.28155579918E+02 -0.40024193419E+01  0.23388542099E+02  0.36820917188E+02  0.00000000000E+00 0.  1.
         11    1    4    4    0    0  0.11557570399E+02 -0.32178429590E-01 -0.19487680757E+02  0.22657188054E+02  0.51100000000E-03 0. -1.
        -11    1    4    4    0    0  0.35746937136E+01 -0.10767580991E+02  0.10142721151E+01  0.11390697245E+02  0.51100000000E-03 0.  1.
         12    1    4    4    0    0  0.13023315805E+02  0.14802178762E+02 -0.49151334569E+01  0.20319197513E+02  0.00000000000E+00 0. -1.
</event>
<event>
 8    1  0.1240174E-006  0.9118800E+02  0.7816164E-02  0.1184000E+00
        -11   -1    0    0    0    0  0.00000000000E+00  0.00000000000E+00  0.45593999997E+02  0.45594000000E+02  0.51100000000E-03 0.  1.
         11   -1    0    0    0    0 -0.00000000000E+00 -0.00000000000E+00 -0.45593999997E+02  0.45594000000E+02  0.51100000000E-03 0. -1.
         23    2    1    2    0    0  0.35527136788E-14  0.00000000000E+00  0.00000000000E+00  0.91188000000E+02  0.91188000000E+02 0.  0.
    9900012    2    3    3    0    0 -0.29961339692E+02 -0.18071414144E+02  0.11468564989E+02  0.54367002346E+02  0.39999813449E+02 0.  0.
         12    1    3    3    0    0  0.29961339692E+02  0.18071414144E+02 -0.11468564989E+02  0.36820997654E+02  0.00000000000E+00 0. -1.
         11    1    4    4    0    0  0.12695807817E+01 -0.92426275325E+01 -0.14039438922E+01  0.94344611812E+01  0.51100000000E-03 0. -1.
        -11    1    4    4    0    0 -0.15549969894E+02 -0.12689429040E+02  0.19021653400E+02  0.27652241706E+02  0.51100000000E-03 0.  1.
        -12    1    4    4    0    0 -0.15680950580E+02  0.38606424293E+01 -0.61491445189E+01  0.17280299459E+02  0.00000000000E+00 0.  1.
</event>
<event>
 8    1  0.1240174E-006  0.9118800E+02  0.7816164E-02  0.1184000E+00
        -11   -1    0    0    0    0  0.00000000000E+00  0.00000000000E+00  0.45593999997E+02  0.45594000000E+02  0.51100000000E-03 0.  1.
         11   -1    0    0    0    0 -0.00000000000E+00 -0.00000000000E+00 -0.45593999997E+02  0.45594000000E+02  0.51100000000E-03 0. -1.
         23    2    1    2    0    0 -0.17763568394E-14  0.00000000000E+00  0.00000000000E+00  0.91188000000E+02  0.91188000000E+02 0.  0.
    9900012    2    3    3    0    0  0.71638495632E+01 -0.21190995038E+02 -0.29247267564E+02  0.54367059338E+02  0.39999943372E+02 0.  0.
        -12    1    3    3    0    0 -0.71638495632E+01  0.21190995038E+02  0.29247267564E+02  0.36820940662E+02  0.00000000000E+00 0.  1.
         11    1    4    4    0    0  0.73511130567E+01 -0.73293412625E+01 -0.10861787425E+02  0.15024531036E+02  0.51100000000E-03 0. -1.
        -11    1    4    4    0    0 -0.45053453725E+01  0.90599117898E+01 -0.10837933243E+02  0.14827033952E+02  0.51100000000E-03 0.  1.
        -12    1    4    4    0    0  0.43180818790E+01 -0.22921565566E+02 -0.75475468963E+01  0.24515494350E+02  0.00000000000E+00 0.  1.
</event>
<event>
 8    1  0.1240174E-006  0.9118800E+02  0.7816164E-02  0.1184000E+00
        -11   -1    0    0    0    0  0.00000000000E+00  0.00000000000E+00  0.45593999997E+02  0.45594000000E+02  0.51100000000E-03 0.  1.
         11   -1    0    0    0    0 -0.00000000000E+00 -0.00000000000E+00 -0.45593999997E+02  0.45594000000E+02  0.51100000000E-03 0. -1.
         23    2    1    2    0    0 -0.35527136788E-14 -0.17763568394E-14  0.00000000000E+00  0.91188000000E+02  0.91188000000E+02 0.  0.
    9900012    2    3    3    0    0 -0.18136310909E+02 -0.15108403943E+02  0.28259341925E+02  0.54367081365E+02  0.39999993589E+02 0.  0.
         12    1    3    3    0    0  0.18136310909E+02  0.15108403943E+02 -0.28259341925E+02  0.36820918635E+02  0.00000000000E+00 0. -1.
         11    1    4    4    0    0  0.80933070328E+01 -0.13938857922E+02  0.40898091599E+01  0.16628888060E+02  0.51100000000E-03 0. -1.
        -11    1    4    4    0    0 -0.21452810998E+02 -0.30042955524E+01  0.12533528623E+02  0.25026750318E+02  0.51100000000E-03 0.  1.
        -12    1    4    4    0    0 -0.47768069440E+01  0.18347495318E+01  0.11636004142E+02  0.12711442987E+02  0.00000000000E+00 0.  1.
</event>
<event>
 8    1  0.1240174E-006  0.9118800E+02  0.7816164E-02  0.1184000E+00
        -11   -1    0    0    0    0  0.00000000000E+00  0.00000000000E+00  0.45593999997E+02  0.45594000000E+02  0.51100000000E-03 0. -1.
         11   -1    0    0    0    0 -0.00000000000E+00 -0.00000000000E+00 -0.45593999997E+02  0.45594000000E+02  0.51100000000E-03 0.  1.
         23    2    1    2    0    0  0.35527136788E-14  0.00000000000E+00 -0.35527136788E-14  0.91188000000E+02  0.91188000000E+02 0.  0.
    9900012    2    3    3    0    0 -0.18603319975E+02 -0.12540037385E+02  0.29196633692E+02  0.54367089220E+02  0.40000011494E+02 0.  0.
        -12    1    3    3    0    0  0.18603319975E+02  0.12540037385E+02 -0.29196633692E+02  0.36820910780E+02  0.00000000000E+00 0.  1.
         11    1    4    4    0    0 -0.15627227793E+02 -0.75420633667E+01  0.29763495020E+02  0.34452265592E+02  0.51100000000E-03 0. -1.
        -11    1    4    4    0    0 -0.77722152577E+01  0.50099516237E+00 -0.67840191520E+01  0.10328661205E+02  0.51100000000E-03 0.  1.
        -12    1    4    4    0    0  0.47961230752E+01 -0.54989691808E+01  0.62171578240E+01  0.95861624237E+01  0.00000000000E+00 0.  1.
</event>
<event>
 8    1  0.1240174E-006  0.9118800E+02  0.7816164E-02  0.1184000E+00
        -11   -1    0    0    0    0  0.00000000000E+00  0.00000000000E+00  0.45593999997E+02  0.45594000000E+02  0.51100000000E-03 0.  1.
         11   -1    0    0    0    0 -0.00000000000E+00 -0.00000000000E+00 -0.45593999997E+02  0.45594000000E+02  0.51100000000E-03 0. -1.
         23    2    1    2    0    0  0.35527136788E-14 -0.35527136788E-14 -0.35527136788E-14  0.91188000000E+02  0.91188000000E+02 0.  0.
    9900012    2    3    3    0    0  0.19400461930E+02 -0.10537631717E+02 -0.29467968685E+02  0.54367071390E+02  0.39999970848E+02 0.  0.
        -12    1    3    3    0    0 -0.19400461930E+02  0.10537631717E+02  0.29467968685E+02  0.36820928610E+02  0.00000000000E+00 0.  1.
         11    1    4    4    0    0  0.11682477268E+01 -0.16138846207E+01 -0.61217444548E+01  0.64377932362E+01  0.51100000000E-03 0. -1.
        -11    1    4    4    0    0  0.10792674083E+01  0.12118850943E+02 -0.15431589185E+02  0.19651089317E+02  0.51100000000E-03 0.  1.
        -12    1    4    4    0    0  0.17152946795E+02 -0.21042598039E+02 -0.79146350444E+01  0.28278188836E+02  0.00000000000E+00 0.  1.
</event>
<event>
 8    1  0.1240174E-006  0.9118800E+02  0.7816164E-02  0.1184000E+00
        -11   -1    0    0    0    0  0.00000000000E+00  0.00000000000E+00  0.45593999997E+02  0.45594000000E+02  0.51100000000E-03 0. -1.
         11   -1    0    0    0    0 -0.00000000000E+00 -0.00000000000E+00 -0.45593999997E+02  0.45594000000E+02  0.51100000000E-03 0.  1.
         23    2    1    2    0    0  0.00000000000E+00 -0.17763568394E-14  0.00000000000E+00  0.91188000000E+02  0.91188000000E+02 0.  0.
    9900012    2    3    3    0    0  0.30056946744E+02  0.62049512864E+00  0.21259642719E+02  0.54367116384E+02  0.40000073419E+02 0.  0.
        -12    1    3    3    0    0 -0.30056946744E+02 -0.62049512864E+00 -0.21259642719E+02  0.36820883616E+02  0.00000000000E+00 0.  1.
         11    1    4    4    0    0  0.32204278165E+02  0.12239711113E+02  0.64934158010E+01  0.35058387146E+02  0.51100000000E-03 0. -1.
        -11    1    4    4    0    0 -0.10781582518E+01 -0.75077765602E+01  0.63937119396E+01  0.99201152575E+01  0.51100000000E-03 0.  1.
         12    1    4    4    0    0 -0.10691731693E+01 -0.41114394242E+01  0.83725149786E+01  0.93886139803E+01  0.00000000000E+00 0. -1.
</event>
<event>
 8    1  0.1240174E-006  0.9118800E+02  0.7816164E-02  0.1184000E+00
        -11   -1    0    0    0    0  0.00000000000E+00  0.00000000000E+00  0.45593999997E+02  0.45594000000E+02  0.51100000000E-03 0. -1.
         11   -1    0    0    0    0 -0.00000000000E+00 -0.00000000000E+00 -0.45593999997E+02  0.45594000000E+02  0.51100000000E-03 0.  1.
         23    2    1    2    0    0  0.00000000000E+00  0.00000000000E+00 -0.17763568394E-14  0.91188000000E+02  0.91188000000E+02 0.  0.
    9900012    2    3    3    0    0  0.16498576470E+02 -0.30480043115E+02 -0.12431624050E+02  0.54367063967E+02  0.39999953927E+02 0.  0.
         12    1    3    3    0    0 -0.16498576470E+02  0.30480043115E+02  0.12431624050E+02  0.36820936033E+02  0.00000000000E+00 0. -1.
         11    1    4    4    0    0  0.18117914994E+02 -0.58018396815E+01 -0.11182764709E+01  0.19057038856E+02  0.51100000000E-03 0. -1.
        -11    1    4    4    0    0  0.39597410392E+00 -0.25152940718E+01  0.63863670342E+01  0.68752588253E+01  0.51100000000E-03 0.  1.
        -12    1    4    4    0    0 -0.20153126288E+01 -0.22162909361E+02 -0.17699714613E+02  0.28434766286E+02  0.00000000000E+00 0.  1.
</event>
<event>
 8    1  0.1240174E-006  0.9118800E+02  0.7816164E-02  0.1184000E+00
        -11   -1    0    0    0    0  0.00000000000E+00  0.00000000000E+00  0.45593999997E+02  0.45594000000E+02  0.51100000000E-03 0. -1.
         11   -1    0    0    0    0 -0.00000000000E+00 -0.00000000000E+00 -0.45593999997E+02  0.45594000000E+02  0.51100000000E-03 0.  1.
         23    2    1    2    0    0  0.00000000000E+00  0.44408920985E-14  0.17763568394E-14  0.91188000000E+02  0.91188000000E+02 0.  0.
    9900012    2    3    3    0    0 -0.34734185914E+02  0.40270242246E+01  0.11536840752E+02  0.54367091677E+02  0.40000017096E+02 0.  0.
        -12    1    3    3    0    0  0.34734185914E+02 -0.40270242246E+01 -0.11536840752E+02  0.36820908323E+02  0.00000000000E+00 0.  1.
         11    1    4    4    0    0 -0.15751605342E+02  0.13735747584E+02  0.11389661285E+02  0.23801433087E+02  0.51100000000E-03 0. -1.
        -11    1    4    4    0    0 -0.97031205588E+01 -0.14084618936E+02 -0.65489195247E+01  0.18314349193E+02  0.51100000000E-03 0.  1.
        -12    1    4    4    0    0 -0.92794600133E+01  0.43758955768E+01  0.66960989919E+01  0.12251309397E+02  0.00000000000E+00 0.  1.
</event>
<event>
 8    1  0.1240174E-006  0.9118800E+02  0.7816164E-02  0.1184000E+00
        -11   -1    0    0    0    0  0.00000000000E+00  0.00000000000E+00  0.45593999997E+02  0.45594000000E+02  0.51100000000E-03 0. -1.
         11   -1    0    0    0    0 -0.00000000000E+00 -0.00000000000E+00 -0.45593999997E+02  0.45594000000E+02  0.51100000000E-03 0.  1.
         23    2    1    2    0    0 -0.35527136788E-14  0.17763568394E-14 -0.71054273576E-14  0.91188000000E+02  0.91188000000E+02 0.  0.
    9900012    2    3    3    0    0 -0.25059430606E+02 -0.10278106466E+02 -0.24943252983E+02  0.54367076543E+02  0.39999982595E+02 0.  0.
        -12    1    3    3    0    0  0.25059430606E+02  0.10278106466E+02  0.24943252983E+02  0.36820923457E+02  0.00000000000E+00 0.  1.
         11    1    4    4    0    0 -0.24645922504E+01  0.69421714626E+01 -0.20194441896E+02  0.21496126240E+02  0.51100000000E-03 0.  1.
        -11    1    4    4    0    0 -0.80337511887E+01 -0.12311475847E+00  0.37402013557E+01  0.88625855058E+01  0.51100000000E-03 0. -1.
        -12    1    4    4    0    0 -0.14561087167E+02 -0.17097163171E+02 -0.84890124429E+01  0.24008364797E+02  0.00000000000E+00 0.  1.
</event>
<event>
 8    1  0.1240174E-006  0.9118800E+02  0.7816164E-02  0.1184000E+00
        -11   -1    0    0    0    0  0.00000000000E+00  0.00000000000E+00  0.45593999997E+02  0.45594000000E+02  0.51100000000E-03 0. -1.
         11   -1    0    0    0    0 -0.00000000000E+00 -0.00000000000E+00 -0.45593999997E+02  0.45594000000E+02  0.51100000000E-03 0.  1.
         23    2    1    2    0    0  0.00000000000E+00  0.35527136788E-14  0.35527136788E-14  0.91188000000E+02  0.91188000000E+02 0.  0.
    9900012    2    3    3    0    0  0.25083790721E+02 -0.24449724306E+02 -0.11348734129E+02  0.54367090969E+02  0.40000015482E+02 0.  0.
         12    1    3    3    0    0 -0.25083790721E+02  0.24449724306E+02  0.11348734129E+02  0.36820909031E+02  0.00000000000E+00 0. -1.
         11    1    4    4    0    0  0.11129609560E+02 -0.49984973210E+01  0.48442226746E+01  0.13127059001E+02  0.51100000000E-03 0. -1.
        -11    1    4    4    0    0  0.10423161474E+02  0.43247336152E+01  0.15133276052E+01  0.11385770798E+02  0.51100000000E-03 0.  1.
         12    1    4    4    0    0  0.35310196863E+01 -0.23775960600E+02 -0.17706284409E+02  0.29854261170E+02  0.00000000000E+00 0. -1.
</event>
<event>
 8    1  0.1240174E-006  0.9118800E+02  0.7816164E-02  0.1184000E+00
        -11   -1    0    0    0    0  0.00000000000E+00  0.00000000000E+00  0.45593999997E+02  0.45594000000E+02  0.51100000000E-03 0. -1.
         11   -1    0    0    0    0 -0.00000000000E+00 -0.00000000000E+00 -0.45593999997E+02  0.45594000000E+02  0.51100000000E-03 0.  1.
         23    2    1    2    0    0  0.00000000000E+00 -0.13322676296E-14 -0.17763568394E-14  0.91188000000E+02  0.91188000000E+02 0.  0.
    9900012    2    3    3    0    0 -0.35605289776E+02 -0.25790369052E+01 -0.90217294624E+01  0.54367086189E+02  0.40000004586E+02 0.  0.
         12    1    3    3    0    0  0.35605289776E+02  0.25790369052E+01  0.90217294624E+01  0.36820913811E+02  0.00000000000E+00 0. -1.
         11    1    4    4    0    0  0.17423887586E+01  0.11070444211E+02  0.30964367539E+01  0.11626632119E+02  0.51100000000E-03 0. -1.
        -11    1    4    4    0    0 -0.32503266892E+02 -0.14397700264E+02 -0.12816441942E+02  0.37789116368E+02  0.51100000000E-03 0.  1.
         12    1    4    4    0    0 -0.48444116419E+01  0.74821914821E+00  0.69827572594E+00  0.49513377020E+01  0.00000000000E+00 0. -1.
</event>
<event>
 8    1  0.1240174E-006  0.9118800E+02  0.7816164E-02  0.1184000E+00
        -11   -1    0    0    0    0  0.00000000000E+00  0.00000000000E+00  0.45593999997E+02  0.45594000000E+02  0.51100000000E-03 0. -1.
         11   -1    0    0    0    0 -0.00000000000E+00 -0.00000000000E+00 -0.45593999997E+02  0.45594000000E+02  0.51100000000E-03 0.  1.
         23    2    1    2    0    0  0.00000000000E+00  0.00000000000E+00  0.00000000000E+00  0.91188000000E+02  0.91188000000E+02 0.  0.
    9900012    2    3    3    0    0  0.87012764051E+01 -0.14130605818E+02 -0.32869371029E+02  0.54367057811E+02  0.39999939891E+02 0.  0.
         12    1    3    3    0    0 -0.87012764051E+01  0.14130605818E+02  0.32869371029E+02  0.36820942189E+02  0.00000000000E+00 0. -1.
         11    1    4    4    0    0  0.16516084217E+02 -0.34950741876E+01 -0.12589714631E+02  0.21059380242E+02  0.51100000000E-03 0. -1.
        -11    1    4    4    0    0 -0.73392148788E+01 -0.15390618175E+02 -0.22340052781E+02  0.28103614738E+02  0.51100000000E-03 0.  1.
        -12    1    4    4    0    0 -0.47559293318E+00  0.47550865443E+01  0.20603963833E+01  0.52040628299E+01  0.00000000000E+00 0.  1.
</event>
<event>
 8    1  0.1240174E-006  0.9118800E+02  0.7816164E-02  0.1184000E+00
        -11   -1    0    0    0    0  0.00000000000E+00  0.00000000000E+00  0.45593999997E+02  0.45594000000E+02  0.51100000000E-03 0. -1.
         11   -1    0    0    0    0 -0.00000000000E+00 -0.00000000000E+00 -0.45593999997E+02  0.45594000000E+02  0.51100000000E-03 0.  1.
         23    2    1    2    0    0  0.35527136788E-14  0.13322676296E-14  0.00000000000E+00  0.91188000000E+02  0.91188000000E+02 0.  0.
    9900012    2    3    3    0    0  0.29093058316E+02  0.26738294952E+01 -0.22410361278E+02  0.54367086120E+02  0.40000004427E+02 0.  0.
         12    1    3    3    0    0 -0.29093058316E+02 -0.26738294952E+01  0.22410361278E+02  0.36820913880E+02  0.00000000000E+00 0. -1.
         11    1    4    4    0    0  0.45425298753E+01  0.81630837748E+01  0.64098178695E+01  0.11329443047E+02  0.51100000000E-03 0. -1.
        -11    1    4    4    0    0  0.12620259633E+01 -0.49127137247E+01 -0.15264211751E+02  0.16084888135E+02  0.51100000000E-03 0.  1.
        -12    1    4    4    0    0  0.23288502477E+02 -0.57654055492E+00 -0.13555967397E+02  0.26952754937E+02  0.00000000000E+00 0.  1.
</event>
<event>
 8    1  0.1240174E-006  0.9118800E+02  0.7816164E-02  0.1184000E+00
        -11   -1    0    0    0    0  0.00000000000E+00  0.00000000000E+00  0.45593999997E+02  0.45594000000E+02  0.51100000000E-03 0.  1.
         11   -1    0    0    0    0 -0.00000000000E+00 -0.00000000000E+00 -0.45593999997E+02  0.45594000000E+02  0.51100000000E-03 0. -1.
         23    2    1    2    0    0 -0.17763568394E-14  0.00000000000E+00 -0.71054273576E-14  0.91188000000E+02  0.91188000000E+02 0.  0.
    9900012    2    3    3    0    0  0.13154087285E+02  0.28066365465E+01 -0.34276334101E+02  0.54367159428E+02  0.40000171548E+02 0.  0.
        -12    1    3    3    0    0 -0.13154087285E+02 -0.28066365465E+01  0.34276334101E+02  0.36820840572E+02  0.00000000000E+00 0.  1.
         11    1    4    4    0    0  0.35654614126E+01 -0.43390993147E+01 -0.11636687036E+02  0.12921020989E+02  0.51100000000E-03 0. -1.
        -11    1    4    4    0    0  0.18507861105E+02 -0.43684860123E+01 -0.17936761010E+02  0.26141002056E+02  0.51100000000E-03 0.  1.
        -12    1    4    4    0    0 -0.89192352318E+01  0.11514221873E+02 -0.47028860543E+01  0.15305136383E+02  0.00000000000E+00 0.  1.
</event>
<event>
 8    1  0.1240174E-006  0.9118800E+02  0.7816164E-02  0.1184000E+00
        -11   -1    0    0    0    0  0.00000000000E+00  0.00000000000E+00  0.45593999997E+02  0.45594000000E+02  0.51100000000E-03 0. -1.
         11   -1    0    0    0    0 -0.00000000000E+00 -0.00000000000E+00 -0.45593999997E+02  0.45594000000E+02  0.51100000000E-03 0.  1.
         23    2    1    2    0    0  0.88817841970E-15 -0.17763568394E-14  0.00000000000E+00  0.91188000000E+02  0.91188000000E+02 0.  0.
    9900012    2    3    3    0    0 -0.57564674415E+01 -0.14285508966E+02  0.33444977127E+02  0.54367093183E+02  0.40000020529E+02 0.  0.
        -12    1    3    3    0    0  0.57564674415E+01  0.14285508966E+02 -0.33444977127E+02  0.36820906817E+02  0.00000000000E+00 0.  1.
         11    1    4    4    0    0 -0.61295568042E+01 -0.61900332669E+00  0.36331559308E+01  0.71522341973E+01  0.51100000000E-03 0. -1.
        -11    1    4    4    0    0  0.12600124932E+02 -0.70291074957E+01  0.12380969026E+00  0.14428680798E+02  0.51100000000E-03 0.  1.
         12    1    4    4    0    0 -0.12227035569E+02 -0.66373981434E+01  0.29688011506E+02  0.32786178187E+02  0.00000000000E+00 0. -1.
</event>
<event>
 8    1  0.1240174E-006  0.9118800E+02  0.7816164E-02  0.1184000E+00
        -11   -1    0    0    0    0  0.00000000000E+00  0.00000000000E+00  0.45593999997E+02  0.45594000000E+02  0.51100000000E-03 0.  1.
         11   -1    0    0    0    0 -0.00000000000E+00 -0.00000000000E+00 -0.45593999997E+02  0.45594000000E+02  0.51100000000E-03 0. -1.
         23    2    1    2    0    0  0.00000000000E+00  0.35527136788E-14  0.88817841970E-15  0.91188000000E+02  0.91188000000E+02 0.  0.
    9900012    2    3    3    0    0  0.23317682400E+02 -0.27368961033E+02  0.79375969774E+01  0.54367084934E+02  0.40000001723E+02 0.  0.
         12    1    3    3    0    0 -0.23317682400E+02  0.27368961033E+02 -0.79375969774E+01  0.36820915066E+02  0.00000000000E+00 0. -1.
         11    1    4    4    0    0 -0.76959200958E+01 -0.12566782862E+02  0.24480370796E+01  0.14938008683E+02  0.51100000000E-03 0.  1.
        -11    1    4    4    0    0  0.14090429066E+02 -0.14978004264E+02  0.84780476443E+01  0.22243158389E+02  0.51100000000E-03 0. -1.
         12    1    4    4    0    0  0.16923173430E+02  0.17582609172E+00 -0.29884877465E+01  0.17185917862E+02  0.00000000000E+00 0. -1.
</event>
<event>
 8    1  0.1240174E-006  0.9118800E+02  0.7816164E-02  0.1184000E+00
        -11   -1    0    0    0    0  0.00000000000E+00  0.00000000000E+00  0.45593999997E+02  0.45594000000E+02  0.51100000000E-03 0. -1.
         11   -1    0    0    0    0 -0.00000000000E+00 -0.00000000000E+00 -0.45593999997E+02  0.45594000000E+02  0.51100000000E-03 0.  1.
         23    2    1    2    0    0 -0.35527136788E-14  0.35527136788E-14  0.00000000000E+00  0.91188000000E+02  0.91188000000E+02 0.  0.
    9900012    2    3    3    0    0  0.18209821178E+02 -0.18994729002E+02 -0.25756232846E+02  0.54367070523E+02  0.39999968870E+02 0.  0.
         12    1    3    3    0    0 -0.18209821178E+02  0.18994729002E+02  0.25756232846E+02  0.36820929477E+02  0.00000000000E+00 0. -1.
         11    1    4    4    0    0  0.32626143911E+01  0.25034135927E+01  0.49921070735E+01  0.64678331438E+01  0.51100000000E-03 0. -1.
        -11    1    4    4    0    0 -0.65306388076E+01 -0.42047936453E+01 -0.19086256449E+01  0.79982738731E+01  0.51100000000E-03 0.  1.
        -12    1    4    4    0    0  0.21477845594E+02 -0.17293348949E+02 -0.28839714274E+02  0.39900963506E+02  0.00000000000E+00 0.  1.
</event>
<event>
 8    1  0.1240174E-006  0.9118800E+02  0.7816164E-02  0.1184000E+00
        -11   -1    0    0    0    0  0.00000000000E+00  0.00000000000E+00  0.45593999997E+02  0.45594000000E+02  0.51100000000E-03 0. -1.
         11   -1    0    0    0    0 -0.00000000000E+00 -0.00000000000E+00 -0.45593999997E+02  0.45594000000E+02  0.51100000000E-03 0.  1.
         23    2    1    2    0    0  0.00000000000E+00  0.00000000000E+00  0.00000000000E+00  0.91188000000E+02  0.91188000000E+02 0.  0.
    9900012    2    3    3    0    0 -0.88435259615E+01  0.30324179078E+02 -0.18921295260E+02  0.54367092862E+02  0.40000019796E+02 0.  0.
         12    1    3    3    0    0  0.88435259615E+01 -0.30324179078E+02  0.18921295260E+02  0.36820907138E+02  0.00000000000E+00 0. -1.
         11    1    4    4    0    0 -0.93128964137E+01 -0.48942029188E+01 -0.43270243167E+00  0.10529505852E+02  0.51100000000E-03 0. -1.
        -11    1    4    4    0    0 -0.14220822444E+01  0.10614926455E+02 -0.15699291208E+02  0.19004387026E+02  0.51100000000E-03 0.  1.
         12    1    4    4    0    0  0.18914526966E+01  0.24603455542E+02 -0.27893016204E+01  0.24833199984E+02  0.00000000000E+00 0. -1.
</event>
<event>
 8    1  0.1240174E-006  0.9118800E+02  0.7816164E-02  0.1184000E+00
        -11   -1    0    0    0    0  0.00000000000E+00  0.00000000000E+00  0.45593999997E+02  0.45594000000E+02  0.51100000000E-03 0.  1.
         11   -1    0    0    0    0 -0.00000000000E+00 -0.00000000000E+00 -0.45593999997E+02  0.45594000000E+02  0.51100000000E-03 0. -1.
         23    2    1    2    0    0  0.00000000000E+00  0.00000000000E+00  0.00000000000E+00  0.91188000000E+02  0.91188000000E+02 0.  0.
    9900012    2    3    3    0    0  0.29523236877E+02  0.49655528841E+01  0.21435962211E+02  0.54367099589E+02  0.40000035134E+02 0.  0.
         12    1    3    3    0    0 -0.29523236877E+02 -0.49655528841E+01 -0.21435962211E+02  0.36820900411E+02  0.00000000000E+00 0. -1.
         11    1    4    4    0    0  0.86239721919E+01 -0.10717014551E+02  0.20183489463E+01  0.13903274074E+02  0.51100000000E-03 0. -1.
        -11    1    4    4    0    0  0.24653195828E+02  0.16312151947E+02  0.21082862845E+02  0.36309137578E+02  0.51100000000E-03 0.  1.
        -12    1    4    4    0    0 -0.37539311435E+01 -0.62958451230E+00 -0.16652495794E+01  0.41546879365E+01  0.00000000000E+00 0.  1.
</event>
<event>
 8    1  0.1240174E-006  0.9118800E+02  0.7816164E-02  0.1184000E+00
        -11   -1    0    0    0    0  0.00000000000E+00  0.00000000000E+00  0.45593999997E+02  0.45594000000E+02  0.51100000000E-03 0.  1.
         11   -1    0    0    0    0 -0.00000000000E+00 -0.00000000000E+00 -0.45593999997E+02  0.45594000000E+02  0.51100000000E-03 0. -1.
         23    2    1    2    0    0  0.00000000000E+00  0.00000000000E+00  0.71054273576E-14  0.91188000000E+02  0.91188000000E+02 0.  0.
    9900012    2    3    3    0    0 -0.15022820435E+02 -0.36317449266E+01 -0.33420124682E+02  0.54367089653E+02  0.40000012481E+02 0.  0.
        -12    1    3    3    0    0  0.15022820435E+02  0.36317449266E+01  0.33420124682E+02  0.36820910347E+02  0.00000000000E+00 0.  1.
         11    1    4    4    0    0  0.43304925367E-01 -0.28595008116E+01 -0.86636020249E+01  0.91234105748E+01  0.51100000000E-03 0. -1.
        -11    1    4    4    0    0 -0.54398424726E+01 -0.15168097530E+02 -0.14103568582E+01  0.16175666155E+02  0.51100000000E-03 0.  1.
         12    1    4    4    0    0 -0.96262828875E+01  0.14395853415E+02 -0.23346165799E+02  0.29068012923E+02  0.00000000000E+00 0. -1.
</event>
<event>
 8    1  0.1240174E-006  0.9118800E+02  0.7816164E-02  0.1184000E+00
        -11   -1    0    0    0    0  0.00000000000E+00  0.00000000000E+00  0.45593999997E+02  0.45594000000E+02  0.51100000000E-03 0.  1.
         11   -1    0    0    0    0 -0.00000000000E+00 -0.00000000000E+00 -0.45593999997E+02  0.45594000000E+02  0.51100000000E-03 0. -1.
         23    2    1    2    0    0  0.35527136788E-14  0.00000000000E+00  0.00000000000E+00  0.91188000000E+02  0.91188000000E+02 0.  0.
    9900012    2    3    3    0    0  0.20886194906E+02 -0.25870331391E+02  0.15819993807E+02  0.54367090342E+02  0.40000014054E+02 0.  0.
        -12    1    3    3    0    0 -0.20886194906E+02  0.25870331391E+02 -0.15819993807E+02  0.36820909658E+02  0.00000000000E+00 0.  1.
         11    1    4    4    0    0  0.17244393767E+02 -0.47167485274E+01  0.13301485300E+02  0.22283319872E+02  0.51100000000E-03 0. -1.
        -11    1    4    4    0    0  0.32365237364E+01 -0.25602787759E+02  0.59100636198E+01  0.26474642191E+02  0.51100000000E-03 0.  1.
        -12    1    4    4    0    0  0.40527740254E+00  0.44492048946E+01 -0.33915551129E+01  0.56091282791E+01  0.00000000000E+00 0.  1.
</event>
<event>
 8    1  0.1240174E-006  0.9118800E+02  0.7816164E-02  0.1184000E+00
        -11   -1    0    0    0    0  0.00000000000E+00  0.00000000000E+00  0.45593999997E+02  0.45594000000E+02  0.51100000000E-03 0. -1.
         11   -1    0    0    0    0 -0.00000000000E+00 -0.00000000000E+00 -0.45593999997E+02  0.45594000000E+02  0.51100000000E-03 0.  1.
         23    2    1    2    0    0  0.00000000000E+00  0.00000000000E+00 -0.44408920985E-14  0.91188000000E+02  0.91188000000E+02 0.  0.
    9900012    2    3    3    0    0  0.12017260586E+02  0.33913805410E+02  0.78242723522E+01  0.54367082206E+02  0.39999995505E+02 0.  0.
        -12    1    3    3    0    0 -0.12017260586E+02 -0.33913805410E+02 -0.78242723522E+01  0.36820917794E+02  0.00000000000E+00 0.  1.
         11    1    4    4    0    0  0.14084971371E+02  0.21334264783E+02 -0.88490368875E+01  0.27052591862E+02  0.51100000000E-03 0.  1.
        -11    1    4    4    0    0 -0.72353666812E+01  0.93247603931E+01  0.17544945244E+02  0.21145372810E+02  0.51100000000E-03 0. -1.
         12    1    4    4    0    0  0.51676558961E+01  0.32547802337E+01 -0.87163600406E+00  0.61691175345E+01  0.00000000000E+00 0. -1.
</event>
<event>
 8    1  0.1240174E-006  0.9118800E+02  0.7816164E-02  0.1184000E+00
        -11   -1    0    0    0    0  0.00000000000E+00  0.00000000000E+00  0.45593999997E+02  0.45594000000E+02  0.51100000000E-03 0.  1.
         11   -1    0    0    0    0 -0.00000000000E+00 -0.00000000000E+00 -0.45593999997E+02  0.45594000000E+02  0.51100000000E-03 0. -1.
         23    2    1    2    0    0 -0.17763568394E-14  0.00000000000E+00 -0.35527136788E-14  0.91188000000E+02  0.91188000000E+02 0.  0.
    9900012    2    3    3    0    0 -0.10754160087E+02  0.15870552247E+02 -0.31436504725E+02  0.54367079084E+02  0.39999988388E+02 0.  0.
        -12    1    3    3    0    0  0.10754160087E+02 -0.15870552247E+02  0.31436504725E+02  0.36820920916E+02  0.00000000000E+00 0.  1.
         11    1    4    4    0    0 -0.77665839256E+01 -0.42722910519E+01 -0.19771775343E+02  0.21667842467E+02  0.51100000000E-03 0. -1.
        -11    1    4    4    0    0 -0.75363058563E+01  0.18029457763E+01  0.34692698011E+01  0.84901326636E+01  0.51100000000E-03 0.  1.
         12    1    4    4    0    0  0.45487296953E+01  0.18339897522E+02 -0.15133999183E+02  0.24209103953E+02  0.00000000000E+00 0. -1.
</event>
<event>
 8    1  0.1240174E-006  0.9118800E+02  0.7816164E-02  0.1184000E+00
        -11   -1    0    0    0    0  0.00000000000E+00  0.00000000000E+00  0.45593999997E+02  0.45594000000E+02  0.51100000000E-03 0. -1.
         11   -1    0    0    0    0 -0.00000000000E+00 -0.00000000000E+00 -0.45593999997E+02  0.45594000000E+02  0.51100000000E-03 0.  1.
         23    2    1    2    0    0 -0.22204460493E-15  0.88817841970E-15 -0.71054273576E-14  0.91188000000E+02  0.91188000000E+02 0.  0.
    9900012    2    3    3    0    0  0.71351062788E+00 -0.76389441355E+01  0.36012722342E+02  0.54367099204E+02  0.40000034255E+02 0.  0.
        -12    1    3    3    0    0 -0.71351062788E+00  0.76389441355E+01 -0.36012722342E+02  0.36820900796E+02  0.00000000000E+00 0.  1.
         11    1    4    4    0    0  0.41267704175E+01 -0.96391887871E+01  0.14964972425E+01  0.10591680641E+02  0.51100000000E-03 0. -1.
        -11    1    4    4    0    0 -0.11392135820E+01 -0.10023175537E+02  0.39192871672E+01  0.10822322653E+02  0.51100000000E-03 0.  1.
         12    1    4    4    0    0 -0.22740462076E+01  0.12023420189E+02  0.30596937933E+02  0.32953095910E+02  0.00000000000E+00 0. -1.
</event>
<event>
 8    1  0.1240174E-006  0.9118800E+02  0.7816164E-02  0.1184000E+00
        -11   -1    0    0    0    0  0.00000000000E+00  0.00000000000E+00  0.45593999997E+02  0.45594000000E+02  0.51100000000E-03 0.  1.
         11   -1    0    0    0    0 -0.00000000000E+00 -0.00000000000E+00 -0.45593999997E+02  0.45594000000E+02  0.51100000000E-03 0. -1.
         23    2    1    2    0    0  0.00000000000E+00  0.17763568394E-14 -0.35527136788E-14  0.91188000000E+02  0.91188000000E+02 0.  0.
    9900012    2    3    3    0    0 -0.23133584674E+02  0.15304314865E+02 -0.24215599489E+02  0.54367081326E+02  0.39999993499E+02 0.  0.
        -12    1    3    3    0    0  0.23133584674E+02 -0.15304314865E+02  0.24215599489E+02  0.36820918674E+02  0.00000000000E+00 0.  1.
         11    1    4    4    0    0  0.60276734365E+01  0.16819694153E+02 -0.54410619585E+01  0.18677261950E+02  0.51100000000E-03 0. -1.
        -11    1    4    4    0    0 -0.70284171364E+01 -0.38469298963E+01 -0.61727647861E+01  0.10114373062E+02  0.51100000000E-03 0.  1.
         12    1    4    4    0    0 -0.22132840974E+02  0.23315506076E+01 -0.12601772745E+02  0.25575446314E+02  0.00000000000E+00 0. -1.
</event>
<event>
 8    1  0.1240174E-006  0.9118800E+02  0.7816164E-02  0.1184000E+00
        -11   -1    0    0    0    0  0.00000000000E+00  0.00000000000E+00  0.45593999997E+02  0.45594000000E+02  0.51100000000E-03 0.  1.
         11   -1    0    0    0    0 -0.00000000000E+00 -0.00000000000E+00 -0.45593999997E+02  0.45594000000E+02  0.51100000000E-03 0. -1.
         23    2    1    2    0    0  0.35527136788E-14 -0.17763568394E-14  0.00000000000E+00  0.91188000000E+02  0.91188000000E+02 0.  0.
    9900012    2    3    3    0    0 -0.25029951045E+02  0.10421150468E+02  0.24913459316E+02  0.54367091789E+02  0.40000017352E+02 0.  0.
        -12    1    3    3    0    0  0.25029951045E+02 -0.10421150468E+02 -0.24913459316E+02  0.36820908211E+02  0.00000000000E+00 0.  1.
         11    1    4    4    0    0 -0.13761145630E+02 -0.72089457646E+01 -0.76889680068E+00  0.15554074406E+02  0.51100000000E-03 0. -1.
        -11    1    4    4    0    0  0.38353285910E+01 -0.15642949475E+01  0.67101689909E+01  0.78856282078E+01  0.51100000000E-03 0.  1.
        -12    1    4    4    0    0 -0.15104134006E+02  0.19194391180E+02  0.18972187126E+02  0.30927389175E+02  0.00000000000E+00 0.  1.
</event>
<event>
 8    1  0.1240174E-006  0.9118800E+02  0.7816164E-02  0.1184000E+00
        -11   -1    0    0    0    0  0.00000000000E+00  0.00000000000E+00  0.45593999997E+02  0.45594000000E+02  0.51100000000E-03 0. -1.
         11   -1    0    0    0    0 -0.00000000000E+00 -0.00000000000E+00 -0.45593999997E+02  0.45594000000E+02  0.51100000000E-03 0.  1.
         23    2    1    2    0    0  0.35527136788E-14  0.00000000000E+00  0.00000000000E+00  0.91188000000E+02  0.91188000000E+02 0.  0.
    9900012    2    3    3    0    0 -0.27390914822E+02 -0.85611254319E+01  0.23069993784E+02  0.54367086152E+02  0.40000004500E+02 0.  0.
        -12    1    3    3    0    0  0.27390914822E+02  0.85611254319E+01 -0.23069993784E+02  0.36820913848E+02  0.00000000000E+00 0.  1.
         11    1    4    4    0    0 -0.13261935527E+02 -0.22584482901E+01  0.47718666454E+01  0.14274110625E+02  0.51100000000E-03 0. -1.
        -11    1    4    4    0    0  0.10438064474E+02 -0.99129006855E+00  0.43905199967E+01  0.11367168164E+02  0.51100000000E-03 0.  1.
        -12    1    4    4    0    0 -0.24567043770E+02 -0.53113870732E+01  0.13907607142E+02  0.28725807362E+02  0.00000000000E+00 0.  1.
</event>
<event>
 8    1  0.1240174E-006  0.9118800E+02  0.7816164E-02  0.1184000E+00
        -11   -1    0    0    0    0  0.00000000000E+00  0.00000000000E+00  0.45593999997E+02  0.45594000000E+02  0.51100000000E-03 0.  1.
         11   -1    0    0    0    0 -0.00000000000E+00 -0.00000000000E+00 -0.45593999997E+02  0.45594000000E+02  0.51100000000E-03 0. -1.
         23    2    1    2    0    0  0.00000000000E+00  0.17763568394E-14  0.00000000000E+00  0.91188000000E+02  0.91188000000E+02 0.  0.
    9900012    2    3    3    0    0  0.28733996685E+02 -0.15861295515E+02 -0.16690019800E+02  0.54367081736E+02  0.39999994433E+02 0.  0.
        -12    1    3    3    0    0 -0.28733996685E+02  0.15861295515E+02  0.16690019800E+02  0.36820918264E+02  0.00000000000E+00 0.  1.
         11    1    4    4    0    0  0.19815941613E+02 -0.24738108866E+02 -0.70582962447E+01  0.32472528673E+02  0.51100000000E-03 0. -1.
        -11    1    4    4    0    0 -0.38547584959E+01  0.27296571846E+01  0.58726053061E-01  0.47237316200E+01  0.51100000000E-03 0.  1.
         12    1    4    4    0    0  0.12772813569E+02  0.61471561671E+01 -0.96904496084E+01  0.17170821443E+02  0.00000000000E+00 0. -1.
</event>
<event>
 8    1  0.1240174E-006  0.9118800E+02  0.7816164E-02  0.1184000E+00
        -11   -1    0    0    0    0  0.00000000000E+00  0.00000000000E+00  0.45593999997E+02  0.45594000000E+02  0.51100000000E-03 0.  1.
         11   -1    0    0    0    0 -0.00000000000E+00 -0.00000000000E+00 -0.45593999997E+02  0.45594000000E+02  0.51100000000E-03 0. -1.
         23    2    1    2    0    0  0.00000000000E+00  0.00000000000E+00  0.00000000000E+00  0.91188000000E+02  0.91188000000E+02 0.  0.
    9900012    2    3    3    0    0  0.32507406507E+02  0.12139509362E+02  0.12315874478E+02  0.54367082989E+02  0.39999997290E+02 0.  0.
        -12    1    3    3    0    0 -0.32507406507E+02 -0.12139509362E+02 -0.12315874478E+02  0.36820917011E+02  0.00000000000E+00 0.  1.
         11    1    4    4    0    0  0.20729441138E+02 -0.48515090858E+01 -0.67888529248E+01  0.22345813805E+02  0.51100000000E-03 0. -1.
        -11    1    4    4    0    0  0.30083722140E+01  0.79175916669E+01 -0.74237510308E+00  0.85023339288E+01  0.51100000000E-03 0.  1.
        -12    1    4    4    0    0  0.87695931554E+01  0.90734267810E+01  0.19847102506E+02  0.23518935255E+02  0.00000000000E+00 0.  1.
</event>
<event>
 8    1  0.1240174E-006  0.9118800E+02  0.7816164E-02  0.1184000E+00
        -11   -1    0    0    0    0  0.00000000000E+00  0.00000000000E+00  0.45593999997E+02  0.45594000000E+02  0.51100000000E-03 0. -1.
         11   -1    0    0    0    0 -0.00000000000E+00 -0.00000000000E+00 -0.45593999997E+02  0.45594000000E+02  0.51100000000E-03 0.  1.
         23    2    1    2    0    0  0.17763568394E-14  0.00000000000E+00  0.35527136788E-14  0.91188000000E+02  0.91188000000E+02 0.  0.
    9900012    2    3    3    0    0 -0.74829301463E+01  0.32000516522E+02  0.16605819708E+02  0.54367074571E+02  0.39999978099E+02 0.  0.
        -12    1    3    3    0    0  0.74829301463E+01 -0.32000516522E+02 -0.16605819708E+02  0.36820925429E+02  0.00000000000E+00 0.  1.
         11    1    4    4    0    0  0.77123643522E+01  0.27986196121E+01  0.14798823816E+02  0.16920934437E+02  0.51100000000E-03 0. -1.
        -11    1    4    4    0    0 -0.87371345620E+01  0.78501680349E+01 -0.67581959110E+01  0.13551231338E+02  0.51100000000E-03 0.  1.
         12    1    4    4    0    0 -0.64581599365E+01  0.21351728876E+02  0.85651918037E+01  0.23894908796E+02  0.00000000000E+00 0. -1.
</event>
<event>
 8    1  0.1240174E-006  0.9118800E+02  0.7816164E-02  0.1184000E+00
        -11   -1    0    0    0    0  0.00000000000E+00  0.00000000000E+00  0.45593999997E+02  0.45594000000E+02  0.51100000000E-03 0.  1.
         11   -1    0    0    0    0 -0.00000000000E+00 -0.00000000000E+00 -0.45593999997E+02  0.45594000000E+02  0.51100000000E-03 0. -1.
         23    2    1    2    0    0  0.00000000000E+00 -0.26645352591E-14  0.00000000000E+00  0.91188000000E+02  0.91188000000E+02 0.  0.
    9900012    2    3    3    0    0  0.36541674261E+02  0.25603969278E+01  0.37321092521E+01  0.54367106072E+02  0.40000049912E+02 0.  0.
         12    1    3    3    0    0 -0.36541674261E+02 -0.25603969278E+01 -0.37321092521E+01  0.36820893928E+02  0.00000000000E+00 0. -1.
         11    1    4    4    0    0  0.65584135792E+01 -0.76963204648E+01 -0.99492715021E+01  0.14185701994E+02  0.51100000000E-03 0. -1.
        -11    1    4    4    0    0  0.20800328276E+02 -0.36295450720E+01  0.82631736114E+01  0.22673934202E+02  0.51100000000E-03 0.  1.
         12    1    4    4    0    0  0.91829324056E+01  0.13886262465E+02  0.54182071427E+01  0.17507469876E+02  0.00000000000E+00 0. -1.
</event>
<event>
 8    1  0.1240174E-006  0.9118800E+02  0.7816164E-02  0.1184000E+00
        -11   -1    0    0    0    0  0.00000000000E+00  0.00000000000E+00  0.45593999997E+02  0.45594000000E+02  0.51100000000E-03 0.  1.
         11   -1    0    0    0    0 -0.00000000000E+00 -0.00000000000E+00 -0.45593999997E+02  0.45594000000E+02  0.51100000000E-03 0. -1.
         23    2    1    2    0    0  0.00000000000E+00  0.00000000000E+00  0.00000000000E+00  0.91188000000E+02  0.91188000000E+02 0.  0.
    9900012    2    3    3    0    0  0.10777248726E+02 -0.12773792003E+02  0.32809447823E+02  0.54367099432E+02  0.40000034774E+02 0.  0.
         12    1    3    3    0    0 -0.10777248726E+02  0.12773792003E+02 -0.32809447823E+02  0.36820900568E+02  0.00000000000E+00 0. -1.
         11    1    4    4    0    0  0.50105516823E+01  0.49950612292E+01  0.10510604926E+02  0.12670007143E+02  0.51100000000E-03 0. -1.
        -11    1    4    4    0    0 -0.74812867892E+00 -0.22944545330E+02  0.23992243548E+02  0.33206017642E+02  0.51100000000E-03 0.  1.
         12    1    4    4    0    0  0.65148257221E+01  0.51756920979E+01 -0.16934006509E+01  0.84910746461E+01  0.00000000000E+00 0. -1.
</event>
<event>
 8    1  0.1240174E-006  0.9118800E+02  0.7816164E-02  0.1184000E+00
        -11   -1    0    0    0    0  0.00000000000E+00  0.00000000000E+00  0.45593999997E+02  0.45594000000E+02  0.51100000000E-03 0. -1.
         11   -1    0    0    0    0 -0.00000000000E+00 -0.00000000000E+00 -0.45593999997E+02  0.45594000000E+02  0.51100000000E-03 0.  1.
         23    2    1    2    0    0 -0.35527136788E-14  0.17763568394E-14  0.00000000000E+00  0.91188000000E+02  0.91188000000E+02 0.  0.
    9900012    2    3    3    0    0  0.26239005900E+02  0.66393028273E+01  0.24964228210E+02  0.54367102906E+02  0.40000042695E+02 0.  0.
        -12    1    3    3    0    0 -0.26239005900E+02 -0.66393028273E+01 -0.24964228210E+02  0.36820897094E+02  0.00000000000E+00 0.  1.
         11    1    4    4    0    0  0.12604679186E+01 -0.78096438777E+01  0.17654986240E+01  0.81053255655E+01  0.51100000000E-03 0. -1.
        -11    1    4    4    0    0  0.61436540979E+01  0.28963387016E+01 -0.63952675059E+01  0.93291323435E+01  0.51100000000E-03 0.  1.
         12    1    4    4    0    0  0.18834883884E+02  0.11552608003E+02  0.29593997092E+02  0.36932644997E+02  0.00000000000E+00 0. -1.
</event>
<event>
 8    1  0.1240174E-006  0.9118800E+02  0.7816164E-02  0.1184000E+00
        -11   -1    0    0    0    0  0.00000000000E+00  0.00000000000E+00  0.45593999997E+02  0.45594000000E+02  0.51100000000E-03 0. -1.
         11   -1    0    0    0    0 -0.00000000000E+00 -0.00000000000E+00 -0.45593999997E+02  0.45594000000E+02  0.51100000000E-03 0.  1.
         23    2    1    2    0    0  0.00000000000E+00 -0.17763568394E-14  0.35527136788E-14  0.91188000000E+02  0.91188000000E+02 0.  0.
    9900012    2    3    3    0    0  0.15273492902E+02 -0.14494951903E+02  0.30205905588E+02  0.54367082732E+02  0.39999996704E+02 0.  0.
        -12    1    3    3    0    0 -0.15273492902E+02  0.14494951903E+02 -0.30205905588E+02  0.36820917268E+02  0.00000000000E+00 0.  1.
         11    1    4    4    0    0  0.53167963851E+01 -0.12993239406E+02  0.19106626265E+02  0.23709824157E+02  0.51100000000E-03 0. -1.
        -11    1    4    4    0    0 -0.58852869468E+01  0.47589197704E+01 -0.33910797515E+01  0.82935723286E+01  0.51100000000E-03 0.  1.
         12    1    4    4    0    0  0.15841983463E+02 -0.62606322668E+01  0.14490359074E+02  0.22363686247E+02  0.00000000000E+00 0. -1.
</event>
<event>
 8    1  0.1240174E-006  0.9118800E+02  0.7816164E-02  0.1184000E+00
        -11   -1    0    0    0    0  0.00000000000E+00  0.00000000000E+00  0.45593999997E+02  0.45594000000E+02  0.51100000000E-03 0. -1.
         11   -1    0    0    0    0 -0.00000000000E+00 -0.00000000000E+00 -0.45593999997E+02  0.45594000000E+02  0.51100000000E-03 0.  1.
         23    2    1    2    0    0  0.88817841970E-15 -0.13322676296E-14  0.00000000000E+00  0.91188000000E+02  0.91188000000E+02 0.  0.
    9900012    2    3    3    0    0 -0.34890393455E+01 -0.20903881125E+01  0.36595571233E+02  0.54367096264E+02  0.40000027554E+02 0.  0.
        -12    1    3    3    0    0  0.34890393455E+01  0.20903881125E+01 -0.36595571233E+02  0.36820903736E+02  0.00000000000E+00 0.  1.
         11    1    4    4    0    0 -0.18412472440E+01  0.52505702703E+01  0.25694195903E+02  0.26289739119E+02  0.51100000000E-03 0. -1.
        -11    1    4    4    0    0  0.40820113408E+01 -0.81288227703E+01  0.17242510748E+02  0.19494736556E+02  0.51100000000E-03 0.  1.
         12    1    4    4    0    0 -0.57298034423E+01  0.78786438755E+00 -0.63411354185E+01  0.85826205891E+01  0.00000000000E+00 0. -1.
</event>
<event>
 8    1  0.1240174E-006  0.9118800E+02  0.7816164E-02  0.1184000E+00
        -11   -1    0    0    0    0  0.00000000000E+00  0.00000000000E+00  0.45593999997E+02  0.45594000000E+02  0.51100000000E-03 0.  1.
         11   -1    0    0    0    0 -0.00000000000E+00 -0.00000000000E+00 -0.45593999997E+02  0.45594000000E+02  0.51100000000E-03 0. -1.
         23    2    1    2    0    0  0.17763568394E-14  0.71054273576E-14  0.00000000000E+00  0.91188000000E+02  0.91188000000E+02 0.  0.
    9900012    2    3    3    0    0  0.93896715243E+01  0.30223489738E+02  0.18818987801E+02  0.54367087937E+02  0.40000008570E+02 0.  0.
         12    1    3    3    0    0 -0.93896715243E+01 -0.30223489738E+02 -0.18818987801E+02  0.36820912063E+02  0.00000000000E+00 0. -1.
         11    1    4    4    0    0 -0.12945453258E+02  0.10891416466E+02  0.83903962462E+01  0.18884026640E+02  0.51100000000E-03 0. -1.
        -11    1    4    4    0    0  0.94001540905E+01  0.19602687771E+01  0.99376868239E+01  0.13818942444E+02  0.51100000000E-03 0.  1.
         12    1    4    4    0    0  0.12934970692E+02  0.17371804495E+02  0.49090473090E+00  0.21664118853E+02  0.00000000000E+00 0. -1.
</event>
<event>
 8    1  0.1240174E-006  0.9118800E+02  0.7816164E-02  0.1184000E+00
        -11   -1    0    0    0    0  0.00000000000E+00  0.00000000000E+00  0.45593999997E+02  0.45594000000E+02  0.51100000000E-03 0. -1.
         11   -1    0    0    0    0 -0.00000000000E+00 -0.00000000000E+00 -0.45593999997E+02  0.45594000000E+02  0.51100000000E-03 0.  1.
         23    2    1    2    0    0  0.35527136788E-14 -0.26645352591E-14  0.00000000000E+00  0.91188000000E+02  0.91188000000E+02 0.  0.
    9900012    2    3    3    0    0 -0.21364772747E+02  0.65828046192E+01 -0.29257350822E+02  0.54367090067E+02  0.40000013425E+02 0.  0.
         12    1    3    3    0    0  0.21364772747E+02 -0.65828046192E+01  0.29257350822E+02  0.36820909933E+02  0.00000000000E+00 0. -1.
         11    1    4    4    0    0 -0.13194112082E+02  0.16358159564E+02 -0.13638372686E+02  0.25053526453E+02  0.51100000000E-03 0.  1.
        -11    1    4    4    0    0 -0.12222396637E+02  0.19692446524E+01 -0.79827954624E+01  0.14730577983E+02  0.51100000000E-03 0. -1.
        -12    1    4    4    0    0  0.40517359723E+01 -0.11744599597E+02 -0.76361826736E+01  0.14582985631E+02  0.00000000000E+00 0.  1.
</event>
<event>
 8    1  0.1240174E-006  0.9118800E+02  0.7816164E-02  0.1184000E+00
        -11   -1    0    0    0    0  0.00000000000E+00  0.00000000000E+00  0.45593999997E+02  0.45594000000E+02  0.51100000000E-03 0.  1.
         11   -1    0    0    0    0 -0.00000000000E+00 -0.00000000000E+00 -0.45593999997E+02  0.45594000000E+02  0.51100000000E-03 0. -1.
         23    2    1    2    0    0  0.17763568394E-14 -0.35527136788E-14 -0.71054273576E-14  0.91188000000E+02  0.91188000000E+02 0.  0.
    9900012    2    3    3    0    0 -0.40464394756E+01 -0.19504480790E+02 -0.30967453695E+02  0.54367059875E+02  0.39999944597E+02 0.  0.
        -12    1    3    3    0    0  0.40464394756E+01  0.19504480790E+02  0.30967453695E+02  0.36820940125E+02  0.00000000000E+00 0.  1.
         11    1    4    4    0    0 -0.18322440190E+02 -0.14912946885E+02 -0.26521685837E+02  0.35517708530E+02  0.51100000000E-03 0. -1.
        -11    1    4    4    0    0  0.74266090802E+01 -0.25983229662E+01  0.31079862149E+01  0.84596325713E+01  0.51100000000E-03 0.  1.
         12    1    4    4    0    0  0.68493916343E+01 -0.19932109392E+01 -0.75537540732E+01  0.10389718774E+02  0.00000000000E+00 0. -1.
</event>
<event>
 8    1  0.1240174E-006  0.9118800E+02  0.7816164E-02  0.1184000E+00
        -11   -1    0    0    0    0  0.00000000000E+00  0.00000000000E+00  0.45593999997E+02  0.45594000000E+02  0.51100000000E-03 0.  1.
         11   -1    0    0    0    0 -0.00000000000E+00 -0.00000000000E+00 -0.45593999997E+02  0.45594000000E+02  0.51100000000E-03 0. -1.
         23    2    1    2    0    0  0.00000000000E+00  0.00000000000E+00 -0.71054273576E-14  0.91188000000E+02  0.91188000000E+02 0.  0.
    9900012    2    3    3    0    0  0.13022481264E+02 -0.74481054448E+01 -0.33626179762E+02  0.54367092103E+02  0.40000018068E+02 0.  0.
        -12    1    3    3    0    0 -0.13022481264E+02  0.74481054448E+01  0.33626179762E+02  0.36820907897E+02  0.00000000000E+00 0.  1.
         11    1    4    4    0    0 -0.35205837849E-01 -0.96158630300E+00  0.92897017801E+00  0.13374877651E+01  0.51100000000E-03 0. -1.
        -11    1    4    4    0    0  0.11133837365E+02 -0.73783012992E+01  0.43648988328E+01  0.14051832856E+02  0.51100000000E-03 0.  1.
         12    1    4    4    0    0  0.19238497360E+01  0.89178215738E+00 -0.38920048773E+02  0.38977771482E+02  0.00000000000E+00 0. -1.
</event>
<event>
 8    1  0.1240174E-006  0.9118800E+02  0.7816164E-02  0.1184000E+00
        -11   -1    0    0    0    0  0.00000000000E+00  0.00000000000E+00  0.45593999997E+02  0.45594000000E+02  0.51100000000E-03 0.  1.
         11   -1    0    0    0    0 -0.00000000000E+00 -0.00000000000E+00 -0.45593999997E+02  0.45594000000E+02  0.51100000000E-03 0. -1.
         23    2    1    2    0    0  0.00000000000E+00  0.00000000000E+00  0.00000000000E+00  0.91188000000E+02  0.91188000000E+02 0.  0.
    9900012    2    3    3    0    0  0.25877815338E+02  0.89665259206E+01  0.24611369193E+02  0.54367090080E+02  0.40000013456E+02 0.  0.
         12    1    3    3    0    0 -0.25877815338E+02 -0.89665259206E+01 -0.24611369193E+02  0.36820909920E+02  0.00000000000E+00 0. -1.
         11    1    4    4    0    0  0.38250856479E+01  0.19223478895E+01  0.24440029106E+02  0.24812128578E+02  0.51100000000E-03 0.  1.
        -11    1    4    4    0    0 -0.89071631367E+00  0.64942820020E+01  0.74846074010E+00  0.65976714085E+01  0.51100000000E-03 0. -1.
         12    1    4    4    0    0  0.22943446004E+02  0.54989602908E+00 -0.57712065368E+00  0.22957290094E+02  0.00000000000E+00 0. -1.
</event>
<event>
 8    1  0.1240174E-006  0.9118800E+02  0.7816164E-02  0.1184000E+00
        -11   -1    0    0    0    0  0.00000000000E+00  0.00000000000E+00  0.45593999997E+02  0.45594000000E+02  0.51100000000E-03 0.  1.
         11   -1    0    0    0    0 -0.00000000000E+00 -0.00000000000E+00 -0.45593999997E+02  0.45594000000E+02  0.51100000000E-03 0. -1.
         23    2    1    2    0    0  0.00000000000E+00  0.00000000000E+00 -0.13322676296E-14  0.91188000000E+02  0.91188000000E+02 0.  0.
    9900012    2    3    3    0    0  0.34731838859E+02 -0.12009128633E+02 -0.22935173957E+01  0.54367081719E+02  0.39999994394E+02 0.  0.
        -12    1    3    3    0    0 -0.34731838859E+02  0.12009128633E+02  0.22935173957E+01  0.36820918281E+02  0.00000000000E+00 0.  1.
         11    1    4    4    0    0  0.24285872130E+02 -0.14167208941E+02 -0.76052189611E-01  0.28116172899E+02  0.51100000000E-03 0. -1.
        -11    1    4    4    0    0  0.14808089327E+01 -0.75467987342E+01  0.67910660873E+01  0.10259899858E+02  0.51100000000E-03 0.  1.
         12    1    4    4    0    0  0.89651577964E+01  0.97048790428E+01 -0.90085312934E+01  0.15991008962E+02  0.00000000000E+00 0. -1.
</event>
<event>
 8    1  0.1240174E-006  0.9118800E+02  0.7816164E-02  0.1184000E+00
        -11   -1    0    0    0    0  0.00000000000E+00  0.00000000000E+00  0.45593999997E+02  0.45594000000E+02  0.51100000000E-03 0.  1.
         11   -1    0    0    0    0 -0.00000000000E+00 -0.00000000000E+00 -0.45593999997E+02  0.45594000000E+02  0.51100000000E-03 0. -1.
         23    2    1    2    0    0  0.35527136788E-14  0.00000000000E+00 -0.35527136788E-14  0.91188000000E+02  0.91188000000E+02 0.  0.
    9900012    2    3    3    0    0 -0.19352036416E+02 -0.11246991035E+02  0.29236683119E+02  0.54367085283E+02  0.40000002520E+02 0.  0.
         12    1    3    3    0    0  0.19352036416E+02  0.11246991035E+02 -0.29236683119E+02  0.36820914717E+02  0.00000000000E+00 0. -1.
         11    1    4    4    0    0 -0.12741149263E+02  0.81265031015E+01  0.24533494316E+01  0.15309992192E+02  0.51100000000E-03 0. -1.
        -11    1    4    4    0    0 -0.63407866197E+01 -0.19762393848E+02  0.29627469428E+02  0.36173812773E+02  0.51100000000E-03 0.  1.
        -12    1    4    4    0    0 -0.27010053246E+00  0.38889971147E+00 -0.28441357406E+01  0.28832803183E+01  0.00000000000E+00 0.  1.
</event>
<event>
 8    1  0.1240174E-006  0.9118800E+02  0.7816164E-02  0.1184000E+00
        -11   -1    0    0    0    0  0.00000000000E+00  0.00000000000E+00  0.45593999997E+02  0.45594000000E+02  0.51100000000E-03 0.  1.
         11   -1    0    0    0    0 -0.00000000000E+00 -0.00000000000E+00 -0.45593999997E+02  0.45594000000E+02  0.51100000000E-03 0. -1.
         23    2    1    2    0    0 -0.88817841970E-15  0.00000000000E+00 -0.44408920985E-15  0.91188000000E+02  0.91188000000E+02 0.  0.
    9900012    2    3    3    0    0  0.61597501922E+01  0.36257887748E+02 -0.17899061070E+01  0.54367072388E+02  0.39999973123E+02 0.  0.
        -12    1    3    3    0    0 -0.61597501922E+01 -0.36257887748E+02  0.17899061070E+01  0.36820927612E+02  0.00000000000E+00 0.  1.
         11    1    4    4    0    0 -0.84066596645E+01  0.23105416816E+02 -0.84261584712E+01  0.25991005363E+02  0.51100000000E-03 0. -1.
        -11    1    4    4    0    0 -0.38993438963E+01  0.39325630972E+01 -0.21545739883E+01  0.59424005812E+01  0.51100000000E-03 0.  1.
        -12    1    4    4    0    0  0.18465753753E+02  0.92199078347E+01  0.87908263524E+01  0.22433666444E+02  0.00000000000E+00 0.  1.
</event>
<event>
 8    1  0.1240174E-006  0.9118800E+02  0.7816164E-02  0.1184000E+00
        -11   -1    0    0    0    0  0.00000000000E+00  0.00000000000E+00  0.45593999997E+02  0.45594000000E+02  0.51100000000E-03 0.  1.
         11   -1    0    0    0    0 -0.00000000000E+00 -0.00000000000E+00 -0.45593999997E+02  0.45594000000E+02  0.51100000000E-03 0. -1.
         23    2    1    2    0    0 -0.66613381478E-15  0.00000000000E+00  0.17763568394E-14  0.91188000000E+02  0.91188000000E+02 0.  0.
    9900012    2    3    3    0    0 -0.12039999919E+01  0.36587437406E+02 -0.39608585427E+01  0.54367101148E+02  0.40000038686E+02 0.  0.
        -12    1    3    3    0    0  0.12039999919E+01 -0.36587437406E+02  0.39608585427E+01  0.36820898852E+02  0.00000000000E+00 0.  1.
         11    1    4    4    0    0 -0.92315769387E+01  0.13451660078E+02 -0.70004278143E+00  0.16329703971E+02  0.51100000000E-03 0. -1.
        -11    1    4    4    0    0 -0.21074783993E+01 -0.39131193984E+01  0.62121688998E+01  0.76383906243E+01  0.51100000000E-03 0.  1.
        -12    1    4    4    0    0  0.10135055346E+02  0.27048896726E+02 -0.94729846610E+01  0.30399006552E+02  0.00000000000E+00 0.  1.
</event>
<event>
 8    1  0.1240174E-006  0.9118800E+02  0.7816164E-02  0.1184000E+00
        -11   -1    0    0    0    0  0.00000000000E+00  0.00000000000E+00  0.45593999997E+02  0.45594000000E+02  0.51100000000E-03 0.  1.
         11   -1    0    0    0    0 -0.00000000000E+00 -0.00000000000E+00 -0.45593999997E+02  0.45594000000E+02  0.51100000000E-03 0. -1.
         23    2    1    2    0    0  0.17763568394E-14  0.00000000000E+00  0.00000000000E+00  0.91188000000E+02  0.91188000000E+02 0.  0.
    9900012    2    3    3    0    0 -0.13542023032E+02  0.18600955736E+02 -0.28747226572E+02  0.54367014439E+02  0.39999841017E+02 0.  0.
        -12    1    3    3    0    0  0.13542023032E+02 -0.18600955736E+02  0.28747226572E+02  0.36820985561E+02  0.00000000000E+00 0.  1.
         11    1    4    4    0    0 -0.79206757480E+00 -0.93011940203E+00 -0.88704019165E+00  0.15097462395E+01  0.51100000000E-03 0. -1.
        -11    1    4    4    0    0  0.11084812126E+02 -0.21371509985E+01 -0.13475978380E+02  0.17579603744E+02  0.51100000000E-03 0.  1.
         12    1    4    4    0    0 -0.23834767583E+02  0.21668226136E+02 -0.14384208000E+02  0.35277664455E+02  0.00000000000E+00 0. -1.
</event>
<event>
 8    1  0.1240174E-006  0.9118800E+02  0.7816164E-02  0.1184000E+00
        -11   -1    0    0    0    0  0.00000000000E+00  0.00000000000E+00  0.45593999997E+02  0.45594000000E+02  0.51100000000E-03 0. -1.
         11   -1    0    0    0    0 -0.00000000000E+00 -0.00000000000E+00 -0.45593999997E+02  0.45594000000E+02  0.51100000000E-03 0.  1.
         23    2    1    2    0    0  0.00000000000E+00  0.00000000000E+00 -0.88817841970E-15  0.91188000000E+02  0.91188000000E+02 0.  0.
    9900012    2    3    3    0    0 -0.32547677689E+02 -0.16345247506E+02 -0.54093714678E+01  0.54367085581E+02  0.40000003198E+02 0.  0.
         12    1    3    3    0    0  0.32547677689E+02  0.16345247506E+02  0.54093714678E+01  0.36820914419E+02  0.00000000000E+00 0. -1.
         11    1    4    4    0    0 -0.42799217268E+01 -0.11070163066E+02 -0.65682158073E+01  0.13564943769E+02  0.51100000000E-03 0. -1.
        -11    1    4    4    0    0 -0.27750709425E+02 -0.37007669432E+00 -0.92744110377E+01  0.29261810107E+02  0.51100000000E-03 0.  1.
        -12    1    4    4    0    0 -0.51704653744E+00 -0.49050077451E+01  0.10433255377E+02  0.11540331705E+02  0.00000000000E+00 0.  1.
</event>
<event>
 8    1  0.1240174E-006  0.9118800E+02  0.7816164E-02  0.1184000E+00
        -11   -1    0    0    0    0  0.00000000000E+00  0.00000000000E+00  0.45593999997E+02  0.45594000000E+02  0.51100000000E-03 0.  1.
         11   -1    0    0    0    0 -0.00000000000E+00 -0.00000000000E+00 -0.45593999997E+02  0.45594000000E+02  0.51100000000E-03 0. -1.
         23    2    1    2    0    0  0.00000000000E+00  0.00000000000E+00  0.00000000000E+00  0.91188000000E+02  0.91188000000E+02 0.  0.
    9900012    2    3    3    0    0  0.10633184398E+02  0.16642062689E+02  0.31076623144E+02  0.54367090627E+02  0.40000014703E+02 0.  0.
         12    1    3    3    0    0 -0.10633184398E+02 -0.16642062689E+02 -0.31076623144E+02  0.36820909373E+02  0.00000000000E+00 0. -1.
         11    1    4    4    0    0  0.10129708537E+02 -0.83052862322E+00  0.97258309626E+01  0.14067429083E+02  0.51100000000E-03 0. -1.
        -11    1    4    4    0    0  0.20519595377E+01  0.20533387766E+02  0.20961378859E+01  0.20741850095E+02  0.51100000000E-03 0.  1.
         12    1    4    4    0    0 -0.15484836764E+01 -0.30607964537E+01  0.19254654296E+02  0.19557811449E+02  0.00000000000E+00 0. -1.
</event>
<event>
 8    1  0.1240174E-006  0.9118800E+02  0.7816164E-02  0.1184000E+00
        -11   -1    0    0    0    0  0.00000000000E+00  0.00000000000E+00  0.45593999997E+02  0.45594000000E+02  0.51100000000E-03 0. -1.
         11   -1    0    0    0    0 -0.00000000000E+00 -0.00000000000E+00 -0.45593999997E+02  0.45594000000E+02  0.51100000000E-03 0.  1.
         23    2    1    2    0    0  0.00000000000E+00  0.26645352591E-14  0.00000000000E+00  0.91188000000E+02  0.91188000000E+02 0.  0.
    9900012    2    3    3    0    0 -0.11430464311E+02 -0.20259190631E+01 -0.34943106045E+02  0.54367074937E+02  0.39999978935E+02 0.  0.
         12    1    3    3    0    0  0.11430464311E+02  0.20259190631E+01  0.34943106045E+02  0.36820925063E+02  0.00000000000E+00 0. -1.
         11    1    4    4    0    0  0.10474576519E+01  0.13788746335E+02 -0.11561885387E+02  0.18025090485E+02  0.51100000000E-03 0. -1.
        -11    1    4    4    0    0 -0.31672711900E+01  0.27390017334E+01 -0.11909824575E+02  0.12624486483E+02  0.51100000000E-03 0.  1.
         12    1    4    4    0    0 -0.93106507726E+01 -0.18553667132E+02 -0.11471396083E+02  0.23717497970E+02  0.00000000000E+00 0. -1.
</event>
<event>
 8    1  0.1240174E-006  0.9118800E+02  0.7816164E-02  0.1184000E+00
        -11   -1    0    0    0    0  0.00000000000E+00  0.00000000000E+00  0.45593999997E+02  0.45594000000E+02  0.51100000000E-03 0.  1.
         11   -1    0    0    0    0 -0.00000000000E+00 -0.00000000000E+00 -0.45593999997E+02  0.45594000000E+02  0.51100000000E-03 0. -1.
         23    2    1    2    0    0  0.00000000000E+00 -0.17763568394E-14  0.00000000000E+00  0.91188000000E+02  0.91188000000E+02 0.  0.
    9900012    2    3    3    0    0  0.30235268364E+02 -0.11593413393E+02 -0.17527159147E+02  0.54367082101E+02  0.39999995266E+02 0.  0.
        -12    1    3    3    0    0 -0.30235268364E+02  0.11593413393E+02  0.17527159147E+02  0.36820917899E+02  0.00000000000E+00 0.  1.
         11    1    4    4    0    0  0.22515625442E+01 -0.15855864600E+01 -0.46973721032E+01  0.54450824833E+01  0.51100000000E-03 0. -1.
        -11    1    4    4    0    0 -0.68569870424E+01  0.32040361799E+01 -0.85448311394E+01  0.11414826262E+02  0.51100000000E-03 0.  1.
        -12    1    4    4    0    0  0.34840692862E+02 -0.13211863113E+02 -0.42849559049E+01  0.37507173355E+02  0.00000000000E+00 0.  1.
</event>
<event>
 8    1  0.1240174E-006  0.9118800E+02  0.7816164E-02  0.1184000E+00
        -11   -1    0    0    0    0  0.00000000000E+00  0.00000000000E+00  0.45593999997E+02  0.45594000000E+02  0.51100000000E-03 0.  1.
         11   -1    0    0    0    0 -0.00000000000E+00 -0.00000000000E+00 -0.45593999997E+02  0.45594000000E+02  0.51100000000E-03 0. -1.
         23    2    1    2    0    0  0.00000000000E+00 -0.35527136788E-14  0.35527136788E-14  0.91188000000E+02  0.91188000000E+02 0.  0.
    9900012    2    3    3    0    0  0.15808827606E+02 -0.24717121584E+02  0.22246909999E+02  0.54367080210E+02  0.39999990955E+02 0.  0.
         12    1    3    3    0    0 -0.15808827606E+02  0.24717121584E+02 -0.22246909999E+02  0.36820919790E+02  0.00000000000E+00 0. -1.
         11    1    4    4    0    0  0.14100474221E+02 -0.16509891004E+02  0.14553287704E+02  0.26138057646E+02  0.51100000000E-03 0. -1.
        -11    1    4    4    0    0  0.10097894277E+02 -0.12730955402E+02  0.90530166328E+01  0.18601123748E+02  0.51100000000E-03 0.  1.
        -12    1    4    4    0    0 -0.83895408930E+01  0.45237248214E+01 -0.13593943379E+01  0.96278988165E+01  0.00000000000E+00 0.  1.
</event>
<event>
 8    1  0.1240174E-006  0.9118800E+02  0.7816164E-02  0.1184000E+00
        -11   -1    0    0    0    0  0.00000000000E+00  0.00000000000E+00  0.45593999997E+02  0.45594000000E+02  0.51100000000E-03 0. -1.
         11   -1    0    0    0    0 -0.00000000000E+00 -0.00000000000E+00 -0.45593999997E+02  0.45594000000E+02  0.51100000000E-03 0.  1.
         23    2    1    2    0    0  0.00000000000E+00  0.35527136788E-14  0.00000000000E+00  0.91188000000E+02  0.91188000000E+02 0.  0.
    9900012    2    3    3    0    0 -0.24661267269E+02 -0.94319474050E+01 -0.25663986340E+02  0.54367082982E+02  0.39999997275E+02 0.  0.
         12    1    3    3    0    0  0.24661267269E+02  0.94319474050E+01  0.25663986340E+02  0.36820917018E+02  0.00000000000E+00 0. -1.
         11    1    4    4    0    0  0.25577725129E+01  0.15445248784E+01  0.19505273381E+01  0.35682368876E+01  0.51100000000E-03 0. -1.
        -11    1    4    4    0    0 -0.19960948407E+02  0.38226563031E+01 -0.21118981929E+01  0.20433117157E+02  0.51100000000E-03 0.  1.
         12    1    4    4    0    0 -0.72580913748E+01 -0.14799128587E+02 -0.25502615485E+02  0.30365728937E+02  0.00000000000E+00 0. -1.
</event>
<event>
 8    1  0.1240174E-006  0.9118800E+02  0.7816164E-02  0.1184000E+00
        -11   -1    0    0    0    0  0.00000000000E+00  0.00000000000E+00  0.45593999997E+02  0.45594000000E+02  0.51100000000E-03 0.  1.
         11   -1    0    0    0    0 -0.00000000000E+00 -0.00000000000E+00 -0.45593999997E+02  0.45594000000E+02  0.51100000000E-03 0. -1.
         23    2    1    2    0    0  0.17763568394E-14  0.71054273576E-14 -0.11102230246E-14  0.91188000000E+02  0.91188000000E+02 0.  0.
    9900012    2    3    3    0    0 -0.81096225079E+01 -0.35863265947E+02 -0.19597174891E+01  0.54367077765E+02  0.39999985381E+02 0.  0.
         12    1    3    3    0    0  0.81096225079E+01  0.35863265947E+02  0.19597174891E+01  0.36820922235E+02  0.00000000000E+00 0. -1.
         11    1    4    4    0    0 -0.40384134249E+01 -0.31027443983E+01  0.88314735903E+01  0.10194642310E+02  0.51100000000E-03 0. -1.
        -11    1    4    4    0    0 -0.15157946121E+02 -0.16254892934E+02 -0.16458580353E+01  0.22286626569E+02  0.51100000000E-03 0.  1.
         12    1    4    4    0    0  0.11086737038E+02 -0.16505628614E+02 -0.91453330441E+01  0.21885808886E+02  0.00000000000E+00 0. -1.
</event>
<event>
 8    1  0.1240174E-006  0.9118800E+02  0.7816164E-02  0.1184000E+00
        -11   -1    0    0    0    0  0.00000000000E+00  0.00000000000E+00  0.45593999997E+02  0.45594000000E+02  0.51100000000E-03 0.  1.
         11   -1    0    0    0    0 -0.00000000000E+00 -0.00000000000E+00 -0.45593999997E+02  0.45594000000E+02  0.51100000000E-03 0. -1.
         23    2    1    2    0    0  0.88817841970E-15  0.00000000000E+00  0.00000000000E+00  0.91188000000E+02  0.91188000000E+02 0.  0.
    9900012    2    3    3    0    0 -0.57285192037E+01  0.77865206425E+01  0.35529332513E+02  0.54367091472E+02  0.40000016628E+02 0.  0.
         12    1    3    3    0    0  0.57285192037E+01 -0.77865206425E+01 -0.35529332513E+02  0.36820908528E+02  0.00000000000E+00 0. -1.
         11    1    4    4    0    0  0.83928387530E+01  0.11173751398E+02  0.10992317878E+02  0.17779862633E+02  0.51100000000E-03 0. -1.
        -11    1    4    4    0    0 -0.11575552283E+02 -0.40695961952E+01  0.36870191125E+00  0.12275624840E+02  0.51100000000E-03 0.  1.
         12    1    4    4    0    0 -0.25458056738E+01  0.68236544007E+00  0.24168312724E+02  0.24311604000E+02  0.00000000000E+00 0. -1.
</event>
<event>
 8    1  0.1240174E-006  0.9118800E+02  0.7816164E-02  0.1184000E+00
        -11   -1    0    0    0    0  0.00000000000E+00  0.00000000000E+00  0.45593999997E+02  0.45594000000E+02  0.51100000000E-03 0.  1.
         11   -1    0    0    0    0 -0.00000000000E+00 -0.00000000000E+00 -0.45593999997E+02  0.45594000000E+02  0.51100000000E-03 0. -1.
         23    2    1    2    0    0  0.00000000000E+00  0.00000000000E+00 -0.35527136788E-14  0.91188000000E+02  0.91188000000E+02 0.  0.
    9900012    2    3    3    0    0  0.26150499521E+02  0.16298986293E+02 -0.20156251924E+02  0.54367081068E+02  0.39999992910E+02 0.  0.
        -12    1    3    3    0    0 -0.26150499521E+02 -0.16298986293E+02  0.20156251924E+02  0.36820918932E+02  0.00000000000E+00 0.  1.
         11    1    4    4    0    0  0.16973029085E+02  0.54777729301E+01 -0.28979678757E+02  0.34028098591E+02  0.51100000000E-03 0. -1.
        -11    1    4    4    0    0  0.22640799138E+01  0.90002812173E+01  0.93454803604E+01  0.13170767756E+02  0.51100000000E-03 0.  1.
        -12    1    4    4    0    0  0.69133905226E+01  0.18209321460E+01 -0.52205352695E+00  0.71682147208E+01  0.00000000000E+00 0.  1.
</event>
<event>
 8    1  0.1240174E-006  0.9118800E+02  0.7816164E-02  0.1184000E+00
        -11   -1    0    0    0    0  0.00000000000E+00  0.00000000000E+00  0.45593999997E+02  0.45594000000E+02  0.51100000000E-03 0. -1.
         11   -1    0    0    0    0 -0.00000000000E+00 -0.00000000000E+00 -0.45593999997E+02  0.45594000000E+02  0.51100000000E-03 0.  1.
         23    2    1    2    0    0 -0.17763568394E-14 -0.35527136788E-14  0.00000000000E+00  0.91188000000E+02  0.91188000000E+02 0.  0.
    9900012    2    3    3    0    0  0.12778558890E+02  0.21937747842E+02 -0.26668780663E+02  0.54367079184E+02  0.39999988617E+02 0.  0.
         12    1    3    3    0    0 -0.12778558890E+02 -0.21937747842E+02  0.26668780663E+02  0.36820920816E+02  0.00000000000E+00 0. -1.
         11    1    4    4    0    0  0.17626882999E+01 -0.21169105507E+01  0.33697837495E+01  0.43524502412E+01  0.51100000000E-03 0. -1.
        -11    1    4    4    0    0  0.76836055511E+01 -0.34162169959E+01 -0.17940484410E+02  0.19813362006E+02  0.51100000000E-03 0.  1.
        -12    1    4    4    0    0  0.33322650389E+01  0.27470875389E+02 -0.12098080002E+02  0.30201266938E+02  0.00000000000E+00 0.  1.
</event>
<event>
 8    1  0.1240174E-006  0.9118800E+02  0.7816164E-02  0.1184000E+00
        -11   -1    0    0    0    0  0.00000000000E+00  0.00000000000E+00  0.45593999997E+02  0.45594000000E+02  0.51100000000E-03 0.  1.
         11   -1    0    0    0    0 -0.00000000000E+00 -0.00000000000E+00 -0.45593999997E+02  0.45594000000E+02  0.51100000000E-03 0. -1.
         23    2    1    2    0    0 -0.17763568394E-14  0.00000000000E+00  0.88817841970E-15  0.91188000000E+02  0.91188000000E+02 0.  0.
    9900012    2    3    3    0    0 -0.11469867513E+02 -0.34117602586E+02 -0.77597756039E+01  0.54367044223E+02  0.39999908914E+02 0.  0.
        -12    1    3    3    0    0  0.11469867513E+02  0.34117602586E+02  0.77597756039E+01  0.36820955777E+02  0.00000000000E+00 0.  1.
         11    1    4    4    0    0 -0.24191869210E+01 -0.37208974555E+02  0.20965657730E+01  0.37346430099E+02  0.51100000000E-03 0. -1.
        -11    1    4    4    0    0 -0.47046194644E+00 -0.17830319517E+01  0.12006355549E+01  0.22004689001E+01  0.51100000000E-03 0.  1.
        -12    1    4    4    0    0 -0.85802186452E+01  0.48744039213E+01 -0.11056976932E+02  0.14820145224E+02  0.00000000000E+00 0.  1.
</event>
<event>
 8    1  0.1240174E-006  0.9118800E+02  0.7816164E-02  0.1184000E+00
        -11   -1    0    0    0    0  0.00000000000E+00  0.00000000000E+00  0.45593999997E+02  0.45594000000E+02  0.51100000000E-03 0. -1.
         11   -1    0    0    0    0 -0.00000000000E+00 -0.00000000000E+00 -0.45593999997E+02  0.45594000000E+02  0.51100000000E-03 0.  1.
         23    2    1    2    0    0 -0.17763568394E-14  0.00000000000E+00  0.00000000000E+00  0.91188000000E+02  0.91188000000E+02 0.  0.
    9900012    2    3    3    0    0 -0.14049523780E+02  0.15516197527E+02 -0.30292560879E+02  0.54367071864E+02  0.39999971929E+02 0.  0.
         12    1    3    3    0    0  0.14049523780E+02 -0.15516197527E+02  0.30292560879E+02  0.36820928136E+02  0.00000000000E+00 0. -1.
         11    1    4    4    0    0  0.92642889450E+00 -0.38582481186E+01 -0.14385291416E+01  0.42206297389E+01  0.51100000000E-03 0. -1.
        -11    1    4    4    0    0  0.48353372421E+01 -0.54682670489E+01 -0.11135142957E+00  0.73003308257E+01  0.51100000000E-03 0.  1.
        -12    1    4    4    0    0 -0.19811289917E+02  0.24842712695E+02 -0.28742680308E+02  0.42846111300E+02  0.00000000000E+00 0.  1.
</event>
<event>
 8    1  0.1240174E-006  0.9118800E+02  0.7816164E-02  0.1184000E+00
        -11   -1    0    0    0    0  0.00000000000E+00  0.00000000000E+00  0.45593999997E+02  0.45594000000E+02  0.51100000000E-03 0. -1.
         11   -1    0    0    0    0 -0.00000000000E+00 -0.00000000000E+00 -0.45593999997E+02  0.45594000000E+02  0.51100000000E-03 0.  1.
         23    2    1    2    0    0  0.00000000000E+00  0.00000000000E+00  0.00000000000E+00  0.91188000000E+02  0.91188000000E+02 0.  0.
    9900012    2    3    3    0    0 -0.16429692860E+02 -0.16651568685E+01 -0.32910048714E+02  0.54367097495E+02  0.40000030360E+02 0.  0.
         12    1    3    3    0    0  0.16429692860E+02  0.16651568685E+01  0.32910048714E+02  0.36820902505E+02  0.00000000000E+00 0. -1.
         11    1    4    4    0    0  0.68731026847E+01  0.24223039773E+01  0.12007568828E+01  0.73857236901E+01  0.51100000000E-03 0. -1.
        -11    1    4    4    0    0 -0.27240029759E+02 -0.48359583259E+01 -0.26150345501E+02  0.38068967471E+02  0.51100000000E-03 0.  1.
        -12    1    4    4    0    0  0.39372342137E+01  0.74849748017E+00 -0.79604600960E+01  0.89124063345E+01  0.00000000000E+00 0.  1.
</event>
<event>
 8    1  0.1240174E-006  0.9118800E+02  0.7816164E-02  0.1184000E+00
        -11   -1    0    0    0    0  0.00000000000E+00  0.00000000000E+00  0.45593999997E+02  0.45594000000E+02  0.51100000000E-03 0. -1.
         11   -1    0    0    0    0 -0.00000000000E+00 -0.00000000000E+00 -0.45593999997E+02  0.45594000000E+02  0.51100000000E-03 0.  1.
         23    2    1    2    0    0 -0.71054273576E-14 -0.22204460493E-14 -0.17763568394E-14  0.91188000000E+02  0.91188000000E+02 0.  0.
    9900012    2    3    3    0    0 -0.33923143913E+02  0.28111010343E+01 -0.14039068458E+02  0.54367116997E+02  0.40000074819E+02 0.  0.
         12    1    3    3    0    0  0.33923143913E+02 -0.28111010343E+01  0.14039068458E+02  0.36820883003E+02  0.00000000000E+00 0. -1.
         11    1    4    4    0    0  0.11739101338E+01  0.25215217184E+01  0.12217591588E+01  0.30378993535E+01  0.51100000000E-03 0. -1.
        -11    1    4    4    0    0 -0.78920334427E+01  0.14863964055E+02  0.15592512544E+00  0.16829911830E+02  0.51100000000E-03 0.  1.
        -12    1    4    4    0    0 -0.27205020604E+02 -0.14574384739E+02 -0.15416752742E+02  0.34499305814E+02  0.00000000000E+00 0.  1.
</event>
<event>
 8    1  0.1240174E-006  0.9118800E+02  0.7816164E-02  0.1184000E+00
        -11   -1    0    0    0    0  0.00000000000E+00  0.00000000000E+00  0.45593999997E+02  0.45594000000E+02  0.51100000000E-03 0.  1.
         11   -1    0    0    0    0 -0.00000000000E+00 -0.00000000000E+00 -0.45593999997E+02  0.45594000000E+02  0.51100000000E-03 0. -1.
         23    2    1    2    0    0 -0.77715611724E-15  0.00000000000E+00 -0.35527136788E-14  0.91188000000E+02  0.91188000000E+02 0.  0.
    9900012    2    3    3    0    0 -0.56438388598E+00  0.27875550053E+02  0.24050266426E+02  0.54367080198E+02  0.39999990927E+02 0.  0.
         12    1    3    3    0    0  0.56438388598E+00 -0.27875550053E+02 -0.24050266426E+02  0.36820919802E+02  0.00000000000E+00 0. -1.
         11    1    4    4    0    0  0.12930228397E+02  0.12694726950E+02 -0.96157266597E+00  0.18145840322E+02  0.51100000000E-03 0. -1.
        -11    1    4    4    0    0 -0.12907704931E+02  0.18648092599E+02  0.21834991960E+02  0.31482170800E+02  0.51100000000E-03 0.  1.
        -12    1    4    4    0    0 -0.58690735186E+00 -0.34672694965E+01  0.31768471324E+01  0.47390690757E+01  0.00000000000E+00 0.  1.
</event>
<event>
 8    1  0.1240174E-006  0.9118800E+02  0.7816164E-02  0.1184000E+00
        -11   -1    0    0    0    0  0.00000000000E+00  0.00000000000E+00  0.45593999997E+02  0.45594000000E+02  0.51100000000E-03 0. -1.
         11   -1    0    0    0    0 -0.00000000000E+00 -0.00000000000E+00 -0.45593999997E+02  0.45594000000E+02  0.51100000000E-03 0.  1.
         23    2    1    2    0    0 -0.17763568394E-14  0.35527136788E-14  0.71054273576E-14  0.91188000000E+02  0.91188000000E+02 0.  0.
    9900012    2    3    3    0    0  0.91345820554E+01 -0.25780832427E+02 -0.24651340201E+02  0.54367075465E+02  0.39999980137E+02 0.  0.
         12    1    3    3    0    0 -0.91345820554E+01  0.25780832427E+02  0.24651340201E+02  0.36820924535E+02  0.00000000000E+00 0. -1.
         11    1    4    4    0    0 -0.15946913948E+01 -0.49077496686E+00  0.88614489293E+01  0.90171602016E+01  0.51100000000E-03 0. -1.
        -11    1    4    4    0    0  0.69483997973E+01 -0.48580639836E+01 -0.16278161326E+02  0.18353734820E+02  0.51100000000E-03 0.  1.
         12    1    4    4    0    0  0.37808736529E+01 -0.20431993476E+02 -0.17234627804E+02  0.26996180443E+02  0.00000000000E+00 0. -1.
</event>
<event>
 8    1  0.1240174E-006  0.9118800E+02  0.7816164E-02  0.1184000E+00
        -11   -1    0    0    0    0  0.00000000000E+00  0.00000000000E+00  0.45593999997E+02  0.45594000000E+02  0.51100000000E-03 0.  1.
         11   -1    0    0    0    0 -0.00000000000E+00 -0.00000000000E+00 -0.45593999997E+02  0.45594000000E+02  0.51100000000E-03 0. -1.
         23    2    1    2    0    0 -0.88817841970E-15  0.17763568394E-14  0.71054273576E-14  0.91188000000E+02  0.91188000000E+02 0.  0.
    9900012    2    3    3    0    0  0.69677690864E+01  0.55364116131E+01  0.35729250698E+02  0.54367068248E+02  0.39999963686E+02 0.  0.
         12    1    3    3    0    0 -0.69677690864E+01 -0.55364116131E+01 -0.35729250698E+02  0.36820931752E+02  0.00000000000E+00 0. -1.
         11    1    4    4    0    0 -0.30235860629E+01 -0.15116125943E+02  0.19292584858E+02  0.24695002875E+02  0.51100000000E-03 0. -1.
        -11    1    4    4    0    0  0.80702856606E+01  0.18956367459E+02  0.17366720097E+02  0.26945803849E+02  0.51100000000E-03 0.  1.
         12    1    4    4    0    0  0.19210694887E+01  0.16961700970E+01 -0.93005425736E+00  0.27262615245E+01  0.00000000000E+00 0. -1.
</event>
<event>
 8    1  0.1240174E-006  0.9118800E+02  0.7816164E-02  0.1184000E+00
        -11   -1    0    0    0    0  0.00000000000E+00  0.00000000000E+00  0.45593999997E+02  0.45594000000E+02  0.51100000000E-03 0.  1.
         11   -1    0    0    0    0 -0.00000000000E+00 -0.00000000000E+00 -0.45593999997E+02  0.45594000000E+02  0.51100000000E-03 0. -1.
         23    2    1    2    0    0 -0.35527136788E-14 -0.17763568394E-14  0.00000000000E+00  0.91188000000E+02  0.91188000000E+02 0.  0.
    9900012    2    3    3    0    0 -0.29250443797E+02 -0.79941743971E+01  0.20887417917E+02  0.54367088634E+02  0.40000010158E+02 0.  0.
         12    1    3    3    0    0  0.29250443797E+02  0.79941743971E+01 -0.20887417917E+02  0.36820911366E+02  0.00000000000E+00 0. -1.
         11    1    4    4    0    0 -0.13332869538E+02 -0.30412479530E+01  0.63938269708E+01  0.15096212201E+02  0.51100000000E-03 0.  1.
        -11    1    4    4    0    0 -0.10494353391E+02  0.97305821097E+01 -0.41753969456E+01  0.14908038811E+02  0.51100000000E-03 0. -1.
         12    1    4    4    0    0 -0.54232208678E+01 -0.14683508554E+02  0.18668987892E+02  0.24362837621E+02  0.00000000000E+00 0. -1.
</event>
<event>
 8    1  0.1240174E-006  0.9118800E+02  0.7816164E-02  0.1184000E+00
        -11   -1    0    0    0    0  0.00000000000E+00  0.00000000000E+00  0.45593999997E+02  0.45594000000E+02  0.51100000000E-03 0.  1.
         11   -1    0    0    0    0 -0.00000000000E+00 -0.00000000000E+00 -0.45593999997E+02  0.45594000000E+02  0.51100000000E-03 0. -1.
         23    2    1    2    0    0  0.35527136788E-14  0.88817841970E-15  0.00000000000E+00  0.91188000000E+02  0.91188000000E+02 0.  0.
    9900012    2    3    3    0    0 -0.31562970925E+02  0.57864772015E+01 -0.18057580608E+02  0.54367072941E+02  0.39999974384E+02 0.  0.
         12    1    3    3    0    0  0.31562970925E+02 -0.57864772015E+01  0.18057580608E+02  0.36820927059E+02  0.00000000000E+00 0. -1.
         11    1    4    4    0    0  0.52656311064E+01  0.89395821038E+01  0.45337717813E-01  0.10375213487E+02  0.51100000000E-03 0. -1.
        -11    1    4    4    0    0 -0.34879856981E+02  0.16041847883E+01 -0.16398304951E+02  0.38575668982E+02  0.51100000000E-03 0.  1.
        -12    1    4    4    0    0 -0.19487450504E+01 -0.47572896906E+01 -0.17046133754E+01  0.54161904723E+01  0.00000000000E+00 0.  1.
</event>
<event>
 8    1  0.1240174E-006  0.9118800E+02  0.7816164E-02  0.1184000E+00
        -11   -1    0    0    0    0  0.00000000000E+00  0.00000000000E+00  0.45593999997E+02  0.45594000000E+02  0.51100000000E-03 0. -1.
         11   -1    0    0    0    0 -0.00000000000E+00 -0.00000000000E+00 -0.45593999997E+02  0.45594000000E+02  0.51100000000E-03 0.  1.
         23    2    1    2    0    0  0.00000000000E+00 -0.88817841970E-15  0.00000000000E+00  0.91188000000E+02  0.91188000000E+02 0.  0.
    9900012    2    3    3    0    0 -0.27232736929E+02 -0.23959060264E+01 -0.24666120789E+02  0.54367084190E+02  0.40000000028E+02 0.  0.
         12    1    3    3    0    0  0.27232736929E+02  0.23959060264E+01  0.24666120789E+02  0.36820915810E+02  0.00000000000E+00 0. -1.
         11    1    4    4    0    0 -0.24176331517E+01  0.98691582572E+01  0.52161397542E+00  0.10174345982E+02  0.51100000000E-03 0. -1.
        -11    1    4    4    0    0 -0.19498350313E+02  0.33413897471E+01 -0.14798214307E+02  0.24705013607E+02  0.51100000000E-03 0.  1.
        -12    1    4    4    0    0 -0.53167534639E+01 -0.15606454031E+02 -0.10389520457E+02  0.19487724602E+02  0.00000000000E+00 0.  1.
</event>
<event>
 8    1  0.1240174E-006  0.9118800E+02  0.7816164E-02  0.1184000E+00
        -11   -1    0    0    0    0  0.00000000000E+00  0.00000000000E+00  0.45593999997E+02  0.45594000000E+02  0.51100000000E-03 0.  1.
         11   -1    0    0    0    0 -0.00000000000E+00 -0.00000000000E+00 -0.45593999997E+02  0.45594000000E+02  0.51100000000E-03 0. -1.
         23    2    1    2    0    0  0.00000000000E+00 -0.44408920985E-15  0.00000000000E+00  0.91188000000E+02  0.91188000000E+02 0.  0.
    9900012    2    3    3    0    0 -0.35139739140E+02  0.26026918708E+01  0.10686665616E+02  0.54367080759E+02  0.39999992206E+02 0.  0.
         12    1    3    3    0    0  0.35139739140E+02 -0.26026918708E+01 -0.10686665616E+02  0.36820919241E+02  0.00000000000E+00 0. -1.
         11    1    4    4    0    0 -0.72852370781E+01  0.40609393912E+01 -0.97883590929E+01  0.12859933204E+02  0.51100000000E-03 0. -1.
        -11    1    4    4    0    0 -0.29019539953E+02 -0.74562679879E+01  0.16324589245E+02  0.34120695270E+02  0.51100000000E-03 0.  1.
        -12    1    4    4    0    0  0.11650378920E+01  0.59980204675E+01  0.41504354640E+01  0.73864522850E+01  0.00000000000E+00 0.  1.
</event>
<event>
 8    1  0.1240174E-006  0.9118800E+02  0.7816164E-02  0.1184000E+00
        -11   -1    0    0    0    0  0.00000000000E+00  0.00000000000E+00  0.45593999997E+02  0.45594000000E+02  0.51100000000E-03 0. -1.
         11   -1    0    0    0    0 -0.00000000000E+00 -0.00000000000E+00 -0.45593999997E+02  0.45594000000E+02  0.51100000000E-03 0.  1.
         23    2    1    2    0    0  0.00000000000E+00  0.35527136788E-14  0.88817841970E-15  0.91188000000E+02  0.91188000000E+02 0.  0.
    9900012    2    3    3    0    0 -0.31428745017E+02 -0.18578716593E+02 -0.47790083850E+01  0.54367168332E+02  0.40000191846E+02 0.  0.
         12    1    3    3    0    0  0.31428745017E+02  0.18578716593E+02  0.47790083850E+01  0.36820831668E+02  0.00000000000E+00 0. -1.
         11    1    4    4    0    0 -0.24885689936E+02 -0.17686437025E+02 -0.84580003185E+01  0.31680362812E+02  0.51100000000E-03 0.  1.
        -11    1    4    4    0    0 -0.72866695796E+00  0.99052153632E+01  0.17877731913E+00  0.99335899109E+01  0.51100000000E-03 0. -1.
         12    1    4    4    0    0 -0.58143881223E+01 -0.10797494931E+02  0.35002146143E+01  0.12753215609E+02  0.00000000000E+00 0. -1.
</event>
<event>
 8    1  0.1240174E-006  0.9118800E+02  0.7816164E-02  0.1184000E+00
        -11   -1    0    0    0    0  0.00000000000E+00  0.00000000000E+00  0.45593999997E+02  0.45594000000E+02  0.51100000000E-03 0. -1.
         11   -1    0    0    0    0 -0.00000000000E+00 -0.00000000000E+00 -0.45593999997E+02  0.45594000000E+02  0.51100000000E-03 0.  1.
         23    2    1    2    0    0  0.00000000000E+00  0.00000000000E+00  0.35527136788E-14  0.91188000000E+02  0.91188000000E+02 0.  0.
    9900012    2    3    3    0    0  0.12135324567E+02  0.25011860861E+02 -0.24143773181E+02  0.54367067509E+02  0.39999962000E+02 0.  0.
         12    1    3    3    0    0 -0.12135324567E+02 -0.25011860861E+02  0.24143773181E+02  0.36820932491E+02  0.00000000000E+00 0. -1.
         11    1    4    4    0    0 -0.11802163079E+02  0.49499415974E+01 -0.75783508944E+01  0.14873613472E+02  0.51100000000E-03 0. -1.
        -11    1    4    4    0    0  0.19506969152E+02  0.16961135516E+02 -0.44552899703E+01  0.26230737169E+02  0.51100000000E-03 0.  1.
        -12    1    4    4    0    0  0.44305184945E+01  0.31007837481E+01 -0.12110132317E+02  0.13262716868E+02  0.00000000000E+00 0.  1.
</event>
<event>
 8    1  0.1240174E-006  0.9118800E+02  0.7816164E-02  0.1184000E+00
        -11   -1    0    0    0    0  0.00000000000E+00  0.00000000000E+00  0.45593999997E+02  0.45594000000E+02  0.51100000000E-03 0.  1.
         11   -1    0    0    0    0 -0.00000000000E+00 -0.00000000000E+00 -0.45593999997E+02  0.45594000000E+02  0.51100000000E-03 0. -1.
         23    2    1    2    0    0  0.00000000000E+00  0.17763568394E-14  0.00000000000E+00  0.91188000000E+02  0.91188000000E+02 0.  0.
    9900012    2    3    3    0    0 -0.32212605770E+02  0.13141754598E+02 -0.12059091507E+02  0.54367090555E+02  0.40000014538E+02 0.  0.
        -12    1    3    3    0    0  0.32212605770E+02 -0.13141754598E+02  0.12059091507E+02  0.36820909445E+02  0.00000000000E+00 0.  1.
         11    1    4    4    0    0 -0.58862334103E+01 -0.98207135379E+01 -0.10440314277E+02  0.15494977270E+02  0.51100000000E-03 0.  1.
        -11    1    4    4    0    0 -0.77608848742E+01  0.11606878189E+02 -0.81287379209E+01  0.16156340420E+02  0.51100000000E-03 0. -1.
        -12    1    4    4    0    0 -0.18565487485E+02  0.11355589947E+02  0.65099606910E+01  0.22715772864E+02  0.00000000000E+00 0.  1.
</event>
<event>
 8    1  0.1240174E-006  0.9118800E+02  0.7816164E-02  0.1184000E+00
        -11   -1    0    0    0    0  0.00000000000E+00  0.00000000000E+00  0.45593999997E+02  0.45594000000E+02  0.51100000000E-03 0. -1.
         11   -1    0    0    0    0 -0.00000000000E+00 -0.00000000000E+00 -0.45593999997E+02  0.45594000000E+02  0.51100000000E-03 0.  1.
         23    2    1    2    0    0  0.00000000000E+00  0.00000000000E+00  0.88817841970E-15  0.91188000000E+02  0.91188000000E+02 0.  0.
    9900012    2    3    3    0    0 -0.26603152182E+02  0.25096751676E+02 -0.42666605751E+01  0.54367095025E+02  0.40000024729E+02 0.  0.
        -12    1    3    3    0    0  0.26603152182E+02 -0.25096751676E+02  0.42666605751E+01  0.36820904975E+02  0.00000000000E+00 0.  1.
         11    1    4    4    0    0 -0.54520389140E+01  0.99803572217E+01 -0.37493754360E+01  0.11974559491E+02  0.51100000000E-03 0. -1.
        -11    1    4    4    0    0  0.87943611090E+01  0.57926782845E-03  0.73381881734E+00  0.88249236807E+01  0.51100000000E-03 0.  1.
         12    1    4    4    0    0 -0.29945474377E+02  0.15115815186E+02 -0.12511039565E+01  0.33567611853E+02  0.00000000000E+00 0. -1.
</event>
<event>
 8    1  0.1240174E-006  0.9118800E+02  0.7816164E-02  0.1184000E+00
        -11   -1    0    0    0    0  0.00000000000E+00  0.00000000000E+00  0.45593999997E+02  0.45594000000E+02  0.51100000000E-03 0. -1.
         11   -1    0    0    0    0 -0.00000000000E+00 -0.00000000000E+00 -0.45593999997E+02  0.45594000000E+02  0.51100000000E-03 0.  1.
         23    2    1    2    0    0  0.00000000000E+00  0.00000000000E+00  0.00000000000E+00  0.91188000000E+02  0.91188000000E+02 0.  0.
    9900012    2    3    3    0    0 -0.60909717339E+01 -0.33132030879E+01 -0.36162171660E+02  0.54367083247E+02  0.39999997878E+02 0.  0.
         12    1    3    3    0    0  0.60909717339E+01  0.33132030879E+01  0.36162171660E+02  0.36820916753E+02  0.00000000000E+00 0. -1.
         11    1    4    4    0    0  0.12400412312E+02  0.20467976172E+01 -0.76919674144E+01  0.14735194908E+02  0.51100000000E-03 0. -1.
        -11    1    4    4    0    0 -0.22456760412E+01 -0.29294640444E+01 -0.21454815244E+02  0.21770023378E+02  0.51100000000E-03 0.  1.
         12    1    4    4    0    0 -0.16245708005E+02 -0.24305366607E+01 -0.70153890018E+01  0.17861864961E+02  0.00000000000E+00 0. -1.
</event>
<event>
 8    1  0.1240174E-006  0.9118800E+02  0.7816164E-02  0.1184000E+00
        -11   -1    0    0    0    0  0.00000000000E+00  0.00000000000E+00  0.45593999997E+02  0.45594000000E+02  0.51100000000E-03 0. -1.
         11   -1    0    0    0    0 -0.00000000000E+00 -0.00000000000E+00 -0.45593999997E+02  0.45594000000E+02  0.51100000000E-03 0.  1.
         23    2    1    2    0    0  0.53290705182E-14 -0.88817841970E-15  0.71054273576E-14  0.91188000000E+02  0.91188000000E+02 0.  0.
    9900012    2    3    3    0    0  0.12600489696E+02 -0.35330154328E+01  0.34416936362E+02  0.54367081392E+02  0.39999993649E+02 0.  0.
        -12    1    3    3    0    0 -0.12600489696E+02  0.35330154328E+01 -0.34416936362E+02  0.36820918608E+02  0.00000000000E+00 0.  1.
         11    1    4    4    0    0 -0.93227903728E+01  0.97921378129E+01  0.11398135140E+02  0.17683830699E+02  0.51100000000E-03 0.  1.
        -11    1    4    4    0    0  0.23881861364E+01 -0.56673177057E+01  0.10728819936E+02  0.12366466775E+02  0.51100000000E-03 0. -1.
        -12    1    4    4    0    0  0.19535093932E+02 -0.76578355400E+01  0.12289981286E+02  0.24316783918E+02  0.00000000000E+00 0.  1.
</event>
<event>
 8    1  0.1240174E-006  0.9118800E+02  0.7816164E-02  0.1184000E+00
        -11   -1    0    0    0    0  0.00000000000E+00  0.00000000000E+00  0.45593999997E+02  0.45594000000E+02  0.51100000000E-03 0. -1.
         11   -1    0    0    0    0 -0.00000000000E+00 -0.00000000000E+00 -0.45593999997E+02  0.45594000000E+02  0.51100000000E-03 0.  1.
         23    2    1    2    0    0 -0.19984014443E-14  0.00000000000E+00  0.00000000000E+00  0.91188000000E+02  0.91188000000E+02 0.  0.
    9900012    2    3    3    0    0  0.13280291024E+01  0.32647902021E+02  0.16974426165E+02  0.54367077805E+02  0.39999985471E+02 0.  0.
        -12    1    3    3    0    0 -0.13280291024E+01 -0.32647902021E+02 -0.16974426165E+02  0.36820922195E+02  0.00000000000E+00 0.  1.
         11    1    4    4    0    0 -0.16916814373E+02  0.18524565884E+02  0.13513578680E+02  0.28494823368E+02  0.51100000000E-03 0. -1.
        -11    1    4    4    0    0  0.36832709660E+01  0.10766410404E+01 -0.34251933877E+01  0.51436942895E+01  0.51100000000E-03 0.  1.
         12    1    4    4    0    0  0.14561572510E+02  0.13046695097E+02  0.68860408726E+01  0.20728560148E+02  0.00000000000E+00 0. -1.
</event>
<event>
 8    1  0.1240174E-006  0.9118800E+02  0.7816164E-02  0.1184000E+00
        -11   -1    0    0    0    0  0.00000000000E+00  0.00000000000E+00  0.45593999997E+02  0.45594000000E+02  0.51100000000E-03 0.  1.
         11   -1    0    0    0    0 -0.00000000000E+00 -0.00000000000E+00 -0.45593999997E+02  0.45594000000E+02  0.51100000000E-03 0. -1.
         23    2    1    2    0    0  0.00000000000E+00  0.00000000000E+00  0.00000000000E+00  0.91188000000E+02  0.91188000000E+02 0.  0.
    9900012    2    3    3    0    0 -0.19602182825E+02 -0.56420279027E+01 -0.30654527961E+02  0.54367107359E+02  0.40000052847E+02 0.  0.
        -12    1    3    3    0    0  0.19602182825E+02  0.56420279027E+01  0.30654527961E+02  0.36820892641E+02  0.00000000000E+00 0.  1.
         11    1    4    4    0    0 -0.74086706641E+01 -0.15517331016E+02 -0.66432456943E+01  0.18433900197E+02  0.51100000000E-03 0. -1.
        -11    1    4    4    0    0 -0.11525379486E+02  0.11636916438E+01 -0.13701583056E+01  0.11664728226E+02  0.51100000000E-03 0.  1.
         12    1    4    4    0    0 -0.66813267454E+00  0.87116114691E+01 -0.22641123961E+02  0.24268478936E+02  0.00000000000E+00 0. -1.
</event>
<event>
 8    1  0.1240174E-006  0.9118800E+02  0.7816164E-02  0.1184000E+00
        -11   -1    0    0    0    0  0.00000000000E+00  0.00000000000E+00  0.45593999997E+02  0.45594000000E+02  0.51100000000E-03 0.  1.
         11   -1    0    0    0    0 -0.00000000000E+00 -0.00000000000E+00 -0.45593999997E+02  0.45594000000E+02  0.51100000000E-03 0. -1.
         23    2    1    2    0    0  0.35527136788E-14  0.00000000000E+00 -0.35527136788E-14  0.91188000000E+02  0.91188000000E+02 0.  0.
    9900012    2    3    3    0    0  0.27132871263E+02 -0.50706042432E+01  0.24369554019E+02  0.54367097058E+02  0.40000029364E+02 0.  0.
         12    1    3    3    0    0 -0.27132871263E+02  0.50706042432E+01 -0.24369554019E+02  0.36820902942E+02  0.00000000000E+00 0. -1.
         11    1    4    4    0    0  0.49774919055E+01  0.16321330994E+01 -0.29187856396E+01  0.59965485068E+01  0.51100000000E-03 0. -1.
        -11    1    4    4    0    0  0.92648641751E+01 -0.11868476012E+02  0.30591536471E+02  0.34096048671E+02  0.51100000000E-03 0.  1.
        -12    1    4    4    0    0  0.12890515182E+02  0.51657386695E+01 -0.33031968128E+01  0.14274499881E+02  0.00000000000E+00 0.  1.
</event>
<event>
 8    1  0.1240174E-006  0.9118800E+02  0.7816164E-02  0.1184000E+00
        -11   -1    0    0    0    0  0.00000000000E+00  0.00000000000E+00  0.45593999997E+02  0.45594000000E+02  0.51100000000E-03 0. -1.
         11   -1    0    0    0    0 -0.00000000000E+00 -0.00000000000E+00 -0.45593999997E+02  0.45594000000E+02  0.51100000000E-03 0.  1.
         23    2    1    2    0    0  0.00000000000E+00  0.00000000000E+00  0.88817841970E-15  0.91188000000E+02  0.91188000000E+02 0.  0.
    9900012    2    3    3    0    0 -0.15375587580E+02 -0.33240428815E+02 -0.38006276868E+01  0.54367087844E+02  0.40000008357E+02 0.  0.
        -12    1    3    3    0    0  0.15375587580E+02  0.33240428815E+02  0.38006276868E+01  0.36820912156E+02  0.00000000000E+00 0.  1.
         11    1    4    4    0    0 -0.12926170583E+02 -0.28104811913E+02 -0.55512255830E+01  0.31429006417E+02  0.51100000000E-03 0. -1.
        -11    1    4    4    0    0 -0.34394721322E+01 -0.20344168390E+01 -0.99873142718E+01  0.10757103097E+02  0.51100000000E-03 0.  1.
         12    1    4    4    0    0  0.99005513526E+00 -0.31012000629E+01  0.11737912168E+02  0.12180978330E+02  0.00000000000E+00 0. -1.
</event>
<event>
 8    1  0.1240174E-006  0.9118800E+02  0.7816164E-02  0.1184000E+00
        -11   -1    0    0    0    0  0.00000000000E+00  0.00000000000E+00  0.45593999997E+02  0.45594000000E+02  0.51100000000E-03 0.  1.
         11   -1    0    0    0    0 -0.00000000000E+00 -0.00000000000E+00 -0.45593999997E+02  0.45594000000E+02  0.51100000000E-03 0. -1.
         23    2    1    2    0    0  0.00000000000E+00  0.17763568394E-14 -0.35527136788E-14  0.91188000000E+02  0.91188000000E+02 0.  0.
    9900012    2    3    3    0    0 -0.33380004052E+02  0.11068936450E+02  0.10910131394E+02  0.54367122883E+02  0.40000088236E+02 0.  0.
         12    1    3    3    0    0  0.33380004052E+02 -0.11068936450E+02 -0.10910131394E+02  0.36820877117E+02  0.00000000000E+00 0. -1.
         11    1    4    4    0    0 -0.32188273138E+01  0.57063669517E+01 -0.58112954515E+01  0.87575469253E+01  0.51100000000E-03 0. -1.
        -11    1    4    4    0    0 -0.31981513849E+02  0.22006880067E+01  0.22224060777E+02  0.39007295900E+02  0.51100000000E-03 0.  1.
         12    1    4    4    0    0  0.18203371112E+01  0.31618814920E+01 -0.55026339315E+01  0.66022800571E+01  0.00000000000E+00 0. -1.
</event>
<event>
 8    1  0.1240174E-006  0.9118800E+02  0.7816164E-02  0.1184000E+00
        -11   -1    0    0    0    0  0.00000000000E+00  0.00000000000E+00  0.45593999997E+02  0.45594000000E+02  0.51100000000E-03 0. -1.
         11   -1    0    0    0    0 -0.00000000000E+00 -0.00000000000E+00 -0.45593999997E+02  0.45594000000E+02  0.51100000000E-03 0.  1.
         23    2    1    2    0    0  0.35527136788E-14  0.17763568394E-14  0.35527136788E-14  0.91188000000E+02  0.91188000000E+02 0.  0.
    9900012    2    3    3    0    0  0.26818363145E+02  0.83680050547E+01  0.23801941968E+02  0.54367074539E+02  0.39999978026E+02 0.  0.
        -12    1    3    3    0    0 -0.26818363145E+02 -0.83680050547E+01 -0.23801941968E+02  0.36820925461E+02  0.00000000000E+00 0.  1.
         11    1    4    4    0    0  0.11978371235E+02 -0.83222412616E+01 -0.16838156478E+01  0.14682517239E+02  0.51100000000E-03 0.  1.
        -11    1    4    4    0    0  0.14193080850E+01  0.96650922243E+01  0.22099797948E+02  0.24162564284E+02  0.51100000000E-03 0. -1.
         12    1    4    4    0    0  0.13420683824E+02  0.70251540920E+01  0.33859596681E+01  0.15521993017E+02  0.00000000000E+00 0. -1.
</event>
<event>
 8    1  0.1240174E-006  0.9118800E+02  0.7816164E-02  0.1184000E+00
        -11   -1    0    0    0    0  0.00000000000E+00  0.00000000000E+00  0.45593999997E+02  0.45594000000E+02  0.51100000000E-03 0.  1.
         11   -1    0    0    0    0 -0.00000000000E+00 -0.00000000000E+00 -0.45593999997E+02  0.45594000000E+02  0.51100000000E-03 0. -1.
         23    2    1    2    0    0 -0.12767564783E-14  0.17763568394E-14  0.00000000000E+00  0.91188000000E+02  0.91188000000E+02 0.  0.
    9900012    2    3    3    0    0  0.12739463007E+00 -0.13899797992E+02 -0.34096309895E+02  0.54367096126E+02  0.40000027239E+02 0.  0.
        -12    1    3    3    0    0 -0.12739463007E+00  0.13899797992E+02  0.34096309895E+02  0.36820903874E+02  0.00000000000E+00 0.  1.
         11    1    4    4    0    0 -0.10249098080E+02 -0.25118473012E+01 -0.26462093847E+02  0.28488520484E+02  0.51100000000E-03 0. -1.
        -11    1    4    4    0    0 -0.12196905759E+01 -0.11774984960E+02  0.26719119332E+00  0.11841001111E+02  0.51100000000E-03 0.  1.
         12    1    4    4    0    0  0.11596183286E+02  0.38703426886E+00 -0.79014072416E+01  0.14037574532E+02  0.00000000000E+00 0. -1.
</event>
<event>
 8    1  0.1240174E-006  0.9118800E+02  0.7816164E-02  0.1184000E+00
        -11   -1    0    0    0    0  0.00000000000E+00  0.00000000000E+00  0.45593999997E+02  0.45594000000E+02  0.51100000000E-03 0. -1.
         11   -1    0    0    0    0 -0.00000000000E+00 -0.00000000000E+00 -0.45593999997E+02  0.45594000000E+02  0.51100000000E-03 0.  1.
         23    2    1    2    0    0 -0.35527136788E-14  0.00000000000E+00  0.00000000000E+00  0.91188000000E+02  0.91188000000E+02 0.  0.
    9900012    2    3    3    0    0 -0.30314384076E+02 -0.15653940171E+02  0.13848165047E+02  0.54367090180E+02  0.40000013684E+02 0.  0.
        -12    1    3    3    0    0  0.30314384076E+02  0.15653940171E+02 -0.13848165047E+02  0.36820909820E+02  0.00000000000E+00 0.  1.
         11    1    4    4    0    0 -0.34937555519E+02 -0.12064140058E+02  0.79434602478E+01  0.37805751176E+02  0.51100000000E-03 0. -1.
        -11    1    4    4    0    0  0.67707162864E+01  0.35181923741E+01  0.49006282690E+01  0.90684306418E+01  0.51100000000E-03 0.  1.
         12    1    4    4    0    0 -0.21475448428E+01 -0.71079924874E+01  0.10040765303E+01  0.74929083627E+01  0.00000000000E+00 0. -1.
</event>
<event>
 8    1  0.1240174E-006  0.9118800E+02  0.7816164E-02  0.1184000E+00
        -11   -1    0    0    0    0  0.00000000000E+00  0.00000000000E+00  0.45593999997E+02  0.45594000000E+02  0.51100000000E-03 0.  1.
         11   -1    0    0    0    0 -0.00000000000E+00 -0.00000000000E+00 -0.45593999997E+02  0.45594000000E+02  0.51100000000E-03 0. -1.
         23    2    1    2    0    0  0.00000000000E+00  0.00000000000E+00  0.00000000000E+00  0.91188000000E+02  0.91188000000E+02 0.  0.
    9900012    2    3    3    0    0  0.16834978548E+02 -0.74749522793E+01 -0.31882571211E+02  0.54366949481E+02  0.39999692931E+02 0.  0.
        -12    1    3    3    0    0 -0.16834978548E+02  0.74749522793E+01  0.31882571211E+02  0.36821050519E+02  0.00000000000E+00 0.  1.
         11    1    4    4    0    0  0.63375758358E+01  0.72822654594E+00 -0.23276531953E+02  0.24134873552E+02  0.51100000000E-03 0. -1.
        -11    1    4    4    0    0 -0.55217073140E+01 -0.11250319908E+02 -0.22604187534E+01  0.12734537404E+02  0.51100000000E-03 0.  1.
         12    1    4    4    0    0  0.16019110026E+02  0.30471410830E+01 -0.63456205048E+01  0.17497538524E+02  0.00000000000E+00 0. -1.
</event>
<event>
 8    1  0.1240174E-006  0.9118800E+02  0.7816164E-02  0.1184000E+00
        -11   -1    0    0    0    0  0.00000000000E+00  0.00000000000E+00  0.45593999997E+02  0.45594000000E+02  0.51100000000E-03 0.  1.
         11   -1    0    0    0    0 -0.00000000000E+00 -0.00000000000E+00 -0.45593999997E+02  0.45594000000E+02  0.51100000000E-03 0. -1.
         23    2    1    2    0    0 -0.26645352591E-14  0.00000000000E+00 -0.35527136788E-14  0.91188000000E+02  0.91188000000E+02 0.  0.
    9900012    2    3    3    0    0  0.75444679005E+01 -0.21202487845E+02  0.29143026979E+02  0.54367075131E+02  0.39999979376E+02 0.  0.
         12    1    3    3    0    0 -0.75444679005E+01  0.21202487845E+02 -0.29143026979E+02  0.36820924869E+02  0.00000000000E+00 0. -1.
         11    1    4    4    0    0 -0.87508894767E+01 -0.58203371064E+01  0.82468305196E+01  0.13359064509E+02  0.51100000000E-03 0. -1.
        -11    1    4    4    0    0  0.16009574326E+01 -0.12633433407E+02  0.22621440511E+02  0.25959512234E+02  0.51100000000E-03 0.  1.
         12    1    4    4    0    0  0.14694399945E+02 -0.27487173319E+01 -0.17252440521E+01  0.15048498388E+02  0.00000000000E+00 0. -1.
</event>
<event>
 8    1  0.1240174E-006  0.9118800E+02  0.7816164E-02  0.1184000E+00
        -11   -1    0    0    0    0  0.00000000000E+00  0.00000000000E+00  0.45593999997E+02  0.45594000000E+02  0.51100000000E-03 0.  1.
         11   -1    0    0    0    0 -0.00000000000E+00 -0.00000000000E+00 -0.45593999997E+02  0.45594000000E+02  0.51100000000E-03 0. -1.
         23    2    1    2    0    0  0.17763568394E-14  0.00000000000E+00  0.00000000000E+00  0.91188000000E+02  0.91188000000E+02 0.  0.
    9900012    2    3    3    0    0  0.83317046800E+01  0.29077931568E+02  0.20996075750E+02  0.54367100988E+02  0.40000038322E+02 0.  0.
         12    1    3    3    0    0 -0.83317046800E+01 -0.29077931568E+02 -0.20996075750E+02  0.36820899012E+02  0.00000000000E+00 0. -1.
         11    1    4    4    0    0 -0.57997390980E+01  0.13122648130E+02  0.25559978734E+02  0.29311318304E+02  0.51100000000E-03 0.  1.
        -11    1    4    4    0    0 -0.16068521624E+01 -0.67224226429E+00 -0.30560861628E+00  0.17684118359E+01  0.51100000000E-03 0. -1.
         12    1    4    4    0    0  0.15738295940E+02  0.16627525702E+02 -0.42582943684E+01  0.23287370848E+02  0.00000000000E+00 0. -1.
</event>
<event>
 8    1  0.1240174E-006  0.9118800E+02  0.7816164E-02  0.1184000E+00
        -11   -1    0    0    0    0  0.00000000000E+00  0.00000000000E+00  0.45593999997E+02  0.45594000000E+02  0.51100000000E-03 0.  1.
         11   -1    0    0    0    0 -0.00000000000E+00 -0.00000000000E+00 -0.45593999997E+02  0.45594000000E+02  0.51100000000E-03 0. -1.
         23    2    1    2    0    0  0.35527136788E-14  0.17763568394E-14 -0.71054273576E-14  0.91188000000E+02  0.91188000000E+02 0.  0.
    9900012    2    3    3    0    0 -0.10712335248E+02 -0.11865752151E+02  0.33169689595E+02  0.54367102287E+02  0.40000041283E+02 0.  0.
         12    1    3    3    0    0  0.10712335248E+02  0.11865752151E+02 -0.33169689595E+02  0.36820897713E+02  0.00000000000E+00 0. -1.
         11    1    4    4    0    0 -0.39077122518E+01 -0.11174942417E+01 -0.26409847770E+01  0.48470412910E+01  0.51100000000E-03 0. -1.
        -11    1    4    4    0    0 -0.17942071503E+02 -0.13667510272E+02  0.21587775242E+02  0.31220999456E+02  0.51100000000E-03 0.  1.
         12    1    4    4    0    0  0.11137448507E+02  0.29192523628E+01  0.14222899130E+02  0.18299061540E+02  0.00000000000E+00 0. -1.
</event>
<event>
 8    1  0.1240174E-006  0.9118800E+02  0.7816164E-02  0.1184000E+00
        -11   -1    0    0    0    0  0.00000000000E+00  0.00000000000E+00  0.45593999997E+02  0.45594000000E+02  0.51100000000E-03 0.  1.
         11   -1    0    0    0    0 -0.00000000000E+00 -0.00000000000E+00 -0.45593999997E+02  0.45594000000E+02  0.51100000000E-03 0. -1.
         23    2    1    2    0    0 -0.17763568394E-14  0.00000000000E+00  0.00000000000E+00  0.91188000000E+02  0.91188000000E+02 0.  0.
    9900012    2    3    3    0    0 -0.11212976100E+02 -0.13967266927E+02 -0.32170873857E+02  0.54367075199E+02  0.39999979532E+02 0.  0.
        -12    1    3    3    0    0  0.11212976100E+02  0.13967266927E+02  0.32170873857E+02  0.36820924801E+02  0.00000000000E+00 0.  1.
         11    1    4    4    0    0 -0.18297543309E+01 -0.16678057338E+01  0.15992796824E+01  0.29474179616E+01  0.51100000000E-03 0. -1.
        -11    1    4    4    0    0 -0.50257194915E+01  0.27287308970E+00  0.69497478446E+01  0.85808689243E+01  0.51100000000E-03 0.  1.
         12    1    4    4    0    0 -0.43575022779E+01 -0.12572334283E+02 -0.40719901384E+02  0.42838788314E+02  0.00000000000E+00 0. -1.
</event>
<event>
 8    1  0.1240174E-006  0.9118800E+02  0.7816164E-02  0.1184000E+00
        -11   -1    0    0    0    0  0.00000000000E+00  0.00000000000E+00  0.45593999997E+02  0.45594000000E+02  0.51100000000E-03 0. -1.
         11   -1    0    0    0    0 -0.00000000000E+00 -0.00000000000E+00 -0.45593999997E+02  0.45594000000E+02  0.51100000000E-03 0.  1.
         23    2    1    2    0    0  0.00000000000E+00  0.17763568394E-14 -0.17763568394E-14  0.91188000000E+02  0.91188000000E+02 0.  0.
    9900012    2    3    3    0    0  0.35453954720E+02 -0.86810024372E+01  0.48411143648E+01  0.54367094296E+02  0.40000023066E+02 0.  0.
        -12    1    3    3    0    0 -0.35453954720E+02  0.86810024372E+01 -0.48411143648E+01  0.36820905704E+02  0.00000000000E+00 0.  1.
         11    1    4    4    0    0  0.79607167853E+01  0.57997129954E-01  0.82920256281E+00  0.80039960366E+01  0.51100000000E-03 0. -1.
        -11    1    4    4    0    0  0.23007637918E+02 -0.10307540796E+02 -0.13234748048E+02  0.28473766101E+02  0.51100000000E-03 0.  1.
         12    1    4    4    0    0  0.44856000167E+01  0.15685412291E+01  0.17246659850E+02  0.17889332158E+02  0.00000000000E+00 0. -1.
</event>
<event>
 8    1  0.1240174E-006  0.9118800E+02  0.7816164E-02  0.1184000E+00
        -11   -1    0    0    0    0  0.00000000000E+00  0.00000000000E+00  0.45593999997E+02  0.45594000000E+02  0.51100000000E-03 0.  1.
         11   -1    0    0    0    0 -0.00000000000E+00 -0.00000000000E+00 -0.45593999997E+02  0.45594000000E+02  0.51100000000E-03 0. -1.
         23    2    1    2    0    0 -0.17763568394E-14  0.00000000000E+00 -0.17763568394E-14  0.91188000000E+02  0.91188000000E+02 0.  0.
    9900012    2    3    3    0    0 -0.15817518665E+02  0.32819627545E+02  0.53347064440E+01  0.54367069244E+02  0.39999965956E+02 0.  0.
         12    1    3    3    0    0  0.15817518665E+02 -0.32819627545E+02 -0.53347064440E+01  0.36820930756E+02  0.00000000000E+00 0. -1.
         11    1    4    4    0    0  0.83470419373E+01  0.54024396872E+01 -0.27985716947E+01  0.10329156184E+02  0.51100000000E-03 0. -1.
        -11    1    4    4    0    0  0.22651926199E+01  0.41539340589E+01 -0.45977856034E+01  0.65974160462E+01  0.51100000000E-03 0.  1.
        -12    1    4    4    0    0 -0.26429753222E+02  0.23263253798E+02  0.12731063742E+02  0.37440497014E+02  0.00000000000E+00 0.  1.
</event>
<event>
 8    1  0.1240174E-006  0.9118800E+02  0.7816164E-02  0.1184000E+00
        -11   -1    0    0    0    0  0.00000000000E+00  0.00000000000E+00  0.45593999997E+02  0.45594000000E+02  0.51100000000E-03 0.  1.
         11   -1    0    0    0    0 -0.00000000000E+00 -0.00000000000E+00 -0.45593999997E+02  0.45594000000E+02  0.51100000000E-03 0. -1.
         23    2    1    2    0    0  0.00000000000E+00  0.00000000000E+00  0.00000000000E+00  0.91188000000E+02  0.91188000000E+02 0.  0.
    9900012    2    3    3    0    0  0.69767062726E+01  0.31473149269E+02 -0.17791753839E+02  0.54367081217E+02  0.39999993251E+02 0.  0.
        -12    1    3    3    0    0 -0.69767062726E+01 -0.31473149269E+02  0.17791753839E+02  0.36820918783E+02  0.00000000000E+00 0.  1.
         11    1    4    4    0    0 -0.53115636384E+01  0.81752645375E+00 -0.92837896983E+01  0.10727059672E+02  0.51100000000E-03 0. -1.
        -11    1    4    4    0    0  0.62234505066E+01 -0.37047234878E+01  0.13833451752E+01  0.73735986102E+01  0.51100000000E-03 0.  1.
         12    1    4    4    0    0  0.60648194043E+01  0.34360346303E+02 -0.98913093161E+01  0.36266422935E+02  0.00000000000E+00 0. -1.
</event>
<event>
 8    1  0.1240174E-006  0.9118800E+02  0.7816164E-02  0.1184000E+00
        -11   -1    0    0    0    0  0.00000000000E+00  0.00000000000E+00  0.45593999997E+02  0.45594000000E+02  0.51100000000E-03 0.  1.
         11   -1    0    0    0    0 -0.00000000000E+00 -0.00000000000E+00 -0.45593999997E+02  0.45594000000E+02  0.51100000000E-03 0. -1.
         23    2    1    2    0    0  0.00000000000E+00  0.00000000000E+00 -0.35527136788E-14  0.91188000000E+02  0.91188000000E+02 0.  0.
    9900012    2    3    3    0    0 -0.11780145284E+02 -0.15728435246E+02  0.31138799761E+02  0.54367077296E+02  0.39999984312E+02 0.  0.
         12    1    3    3    0    0  0.11780145284E+02  0.15728435246E+02 -0.31138799761E+02  0.36820922704E+02  0.00000000000E+00 0. -1.
         11    1    4    4    0    0 -0.26039705020E+01  0.86671388034E+00 -0.12218691803E+01  0.30041337987E+01  0.51100000000E-03 0. -1.
        -11    1    4    4    0    0 -0.18375222167E+02  0.19633478901E+01  0.10529484633E+02  0.21269075474E+02  0.51100000000E-03 0.  1.
        -12    1    4    4    0    0  0.91990473847E+01 -0.18558497016E+02  0.21831184308E+02  0.30093868023E+02  0.00000000000E+00 0.  1.
</event>
<event>
 8    1  0.1240174E-006  0.9118800E+02  0.7816164E-02  0.1184000E+00
        -11   -1    0    0    0    0  0.00000000000E+00  0.00000000000E+00  0.45593999997E+02  0.45594000000E+02  0.51100000000E-03 0. -1.
         11   -1    0    0    0    0 -0.00000000000E+00 -0.00000000000E+00 -0.45593999997E+02  0.45594000000E+02  0.51100000000E-03 0.  1.
         23    2    1    2    0    0  0.35527136788E-14 -0.35527136788E-14  0.00000000000E+00  0.91188000000E+02  0.91188000000E+02 0.  0.
    9900012    2    3    3    0    0 -0.22852017087E+02  0.23023174180E+02  0.17421206030E+02  0.54367086733E+02  0.40000005825E+02 0.  0.
        -12    1    3    3    0    0  0.22852017087E+02 -0.23023174180E+02 -0.17421206030E+02  0.36820913267E+02  0.00000000000E+00 0.  1.
         11    1    4    4    0    0 -0.11846692870E+00 -0.18586831881E+01  0.98414115958E+01  0.10016093054E+02  0.51100000000E-03 0. -1.
        -11    1    4    4    0    0 -0.92648721732E+01  0.28307927225E+02  0.46194178180E+01  0.30141592880E+02  0.51100000000E-03 0.  1.
         12    1    4    4    0    0 -0.13468677986E+02 -0.34260698564E+01  0.29603766162E+01  0.14209400798E+02  0.00000000000E+00 0. -1.
</event>
<event>
 8    1  0.1240174E-006  0.9118800E+02  0.7816164E-02  0.1184000E+00
        -11   -1    0    0    0    0  0.00000000000E+00  0.00000000000E+00  0.45593999997E+02  0.45594000000E+02  0.51100000000E-03 0. -1.
         11   -1    0    0    0    0 -0.00000000000E+00 -0.00000000000E+00 -0.45593999997E+02  0.45594000000E+02  0.51100000000E-03 0.  1.
         23    2    1    2    0    0  0.71054273576E-14 -0.88817841970E-15  0.00000000000E+00  0.91188000000E+02  0.91188000000E+02 0.  0.
    9900012    2    3    3    0    0  0.32273560625E+02 -0.59899494927E+01 -0.16682883376E+02  0.54367071059E+02  0.39999970093E+02 0.  0.
        -12    1    3    3    0    0 -0.32273560625E+02  0.59899494927E+01  0.16682883376E+02  0.36820928941E+02  0.00000000000E+00 0.  1.
         11    1    4    4    0    0  0.17143344198E+02 -0.10871492851E+02 -0.23033068122E+02  0.30701886497E+02  0.51100000000E-03 0. -1.
        -11    1    4    4    0    0  0.77540397255E+01  0.97566182803E+01 -0.51188070782E+00  0.12473121280E+02  0.51100000000E-03 0.  1.
         12    1    4    4    0    0  0.73761767010E+01 -0.48750749219E+01  0.68620654536E+01  0.11192063282E+02  0.00000000000E+00 0. -1.
</event>
<event>
 8    1  0.1240174E-006  0.9118800E+02  0.7816164E-02  0.1184000E+00
        -11   -1    0    0    0    0  0.00000000000E+00  0.00000000000E+00  0.45593999997E+02  0.45594000000E+02  0.51100000000E-03 0.  1.
         11   -1    0    0    0    0 -0.00000000000E+00 -0.00000000000E+00 -0.45593999997E+02  0.45594000000E+02  0.51100000000E-03 0. -1.
         23    2    1    2    0    0  0.00000000000E+00  0.00000000000E+00  0.00000000000E+00  0.91188000000E+02  0.91188000000E+02 0.  0.
    9900012    2    3    3    0    0  0.81257786233E+01 -0.26146453566E+02  0.24619395443E+02  0.54367082788E+02  0.39999996832E+02 0.  0.
         12    1    3    3    0    0 -0.81257786233E+01  0.26146453566E+02 -0.24619395443E+02  0.36820917212E+02  0.00000000000E+00 0. -1.
         11    1    4    4    0    0  0.58672610577E+01 -0.10789151285E+01  0.68882659746E+00  0.60052720602E+01  0.51100000000E-03 0. -1.
        -11    1    4    4    0    0  0.13452043588E+02 -0.26338887339E+02  0.11898331154E+02  0.31878907564E+02  0.51100000000E-03 0.  1.
         12    1    4    4    0    0 -0.11193526023E+02  0.12713489007E+01  0.12032237692E+02  0.16482903164E+02  0.00000000000E+00 0. -1.
</event>
<event>
 8    1  0.1240174E-006  0.9118800E+02  0.7816164E-02  0.1184000E+00
        -11   -1    0    0    0    0  0.00000000000E+00  0.00000000000E+00  0.45593999997E+02  0.45594000000E+02  0.51100000000E-03 0. -1.
         11   -1    0    0    0    0 -0.00000000000E+00 -0.00000000000E+00 -0.45593999997E+02  0.45594000000E+02  0.51100000000E-03 0.  1.
         23    2    1    2    0    0 -0.17763568394E-14  0.35527136788E-14  0.00000000000E+00  0.91188000000E+02  0.91188000000E+02 0.  0.
    9900012    2    3    3    0    0 -0.13455766601E+02  0.18989044220E+02 -0.28533094186E+02  0.54367096711E+02  0.40000028571E+02 0.  0.
        -12    1    3    3    0    0  0.13455766601E+02 -0.18989044220E+02  0.28533094186E+02  0.36820903289E+02  0.00000000000E+00 0.  1.
         11    1    4    4    0    0 -0.92140517039E+01  0.20822773049E+02 -0.11202224378E+02  0.25376691225E+02  0.51100000000E-03 0. -1.
        -11    1    4    4    0    0 -0.48537688371E+01  0.39530165811E+01  0.36304266267E+01  0.72363948045E+01  0.51100000000E-03 0.  1.
        -12    1    4    4    0    0  0.61205393971E+00 -0.57867454101E+01 -0.20961296435E+02  0.21754010681E+02  0.00000000000E+00 0.  1.
</event>
<event>
 8    1  0.1240174E-006  0.9118800E+02  0.7816164E-02  0.1184000E+00
        -11   -1    0    0    0    0  0.00000000000E+00  0.00000000000E+00  0.45593999997E+02  0.45594000000E+02  0.51100000000E-03 0. -1.
         11   -1    0    0    0    0 -0.00000000000E+00 -0.00000000000E+00 -0.45593999997E+02  0.45594000000E+02  0.51100000000E-03 0.  1.
         23    2    1    2    0    0  0.35527136788E-14  0.88817841970E-15  0.00000000000E+00  0.91188000000E+02  0.91188000000E+02 0.  0.
    9900012    2    3    3    0    0  0.20429297886E+02 -0.68584171369E+01 -0.29856107953E+02  0.54367064653E+02  0.39999955489E+02 0.  0.
         12    1    3    3    0    0 -0.20429297886E+02  0.68584171369E+01  0.29856107953E+02  0.36820935347E+02  0.00000000000E+00 0. -1.
         11    1    4    4    0    0 -0.46560881253E+01 -0.26914616795E+01 -0.24769675258E+02  0.25346793391E+02  0.51100000000E-03 0. -1.
        -11    1    4    4    0    0  0.25305430475E+02 -0.53521594392E+01 -0.69664569535E+01  0.26786973418E+02  0.51100000000E-03 0.  1.
         12    1    4    4    0    0 -0.22004446322E+00  0.11852039817E+01  0.18800242579E+01  0.22332978428E+01  0.00000000000E+00 0. -1.
</event>
<event>
 8    1  0.1240174E-006  0.9118800E+02  0.7816164E-02  0.1184000E+00
        -11   -1    0    0    0    0  0.00000000000E+00  0.00000000000E+00  0.45593999997E+02  0.45594000000E+02  0.51100000000E-03 0.  1.
         11   -1    0    0    0    0 -0.00000000000E+00 -0.00000000000E+00 -0.45593999997E+02  0.45594000000E+02  0.51100000000E-03 0. -1.
         23    2    1    2    0    0  0.35527136788E-14 -0.88817841970E-15  0.00000000000E+00  0.91188000000E+02  0.91188000000E+02 0.  0.
    9900012    2    3    3    0    0  0.24241255822E+02 -0.73321642988E+01  0.26727884201E+02  0.54367096820E+02  0.40000028821E+02 0.  0.
         12    1    3    3    0    0 -0.24241255822E+02  0.73321642988E+01 -0.26727884201E+02  0.36820903180E+02  0.00000000000E+00 0. -1.
         11    1    4    4    0    0  0.15554029946E+02 -0.11463868237E+00  0.39776441343E+01  0.16054988094E+02  0.51100000000E-03 0. -1.
        -11    1    4    4    0    0 -0.75364623330E+01 -0.64438967788E+01 -0.52543039542E+00  0.99296599919E+01  0.51100000000E-03 0.  1.
        -12    1    4    4    0    0  0.16223688209E+02 -0.77362883754E+00  0.23275670462E+02  0.28382448734E+02  0.00000000000E+00 0.  1.
</event>
<event>
 8    1  0.1240174E-006  0.9118800E+02  0.7816164E-02  0.1184000E+00
        -11   -1    0    0    0    0  0.00000000000E+00  0.00000000000E+00  0.45593999997E+02  0.45594000000E+02  0.51100000000E-03 0. -1.
         11   -1    0    0    0    0 -0.00000000000E+00 -0.00000000000E+00 -0.45593999997E+02  0.45594000000E+02  0.51100000000E-03 0.  1.
         23    2    1    2    0    0 -0.35527136788E-14  0.00000000000E+00  0.35527136788E-14  0.91188000000E+02  0.91188000000E+02 0.  0.
    9900012    2    3    3    0    0 -0.31212269425E+02 -0.36660409531E+01  0.19186833386E+02  0.54367079393E+02  0.39999989093E+02 0.  0.
        -12    1    3    3    0    0  0.31212269425E+02  0.36660409531E+01 -0.19186833386E+02  0.36820920607E+02  0.00000000000E+00 0.  1.
         11    1    4    4    0    0 -0.13310429592E+02  0.10000024344E+02  0.76949842493E+01  0.18340687165E+02  0.51100000000E-03 0. -1.
        -11    1    4    4    0    0 -0.17372458658E+02 -0.58006275506E+01 -0.39066419183E+01  0.18727291612E+02  0.51100000000E-03 0.  1.
        -12    1    4    4    0    0 -0.52938117503E+00 -0.78654377464E+01  0.15398491055E+02  0.17299100616E+02  0.00000000000E+00 0.  1.
</event>
<event>
 8    1  0.1240174E-006  0.9118800E+02  0.7816164E-02  0.1184000E+00
        -11   -1    0    0    0    0  0.00000000000E+00  0.00000000000E+00  0.45593999997E+02  0.45594000000E+02  0.51100000000E-03 0. -1.
         11   -1    0    0    0    0 -0.00000000000E+00 -0.00000000000E+00 -0.45593999997E+02  0.45594000000E+02  0.51100000000E-03 0.  1.
         23    2    1    2    0    0 -0.17763568394E-14 -0.17763568394E-14 -0.71054273576E-14  0.91188000000E+02  0.91188000000E+02 0.  0.
    9900012    2    3    3    0    0  0.14025110405E+02 -0.14704134817E+02 -0.30706091003E+02  0.54367091167E+02  0.40000015933E+02 0.  0.
         12    1    3    3    0    0 -0.14025110405E+02  0.14704134817E+02  0.30706091003E+02  0.36820908833E+02  0.00000000000E+00 0. -1.
         11    1    4    4    0    0  0.29896095594E+01 -0.59694240420E+01  0.59560387047E+01  0.89468534147E+01  0.51100000000E-03 0. -1.
        -11    1    4    4    0    0 -0.11003855707E+01 -0.13663341601E+02 -0.18268801437E+02  0.22839589714E+02  0.51100000000E-03 0.  1.
         12    1    4    4    0    0  0.12135886416E+02  0.49286308262E+01 -0.18393328271E+02  0.22580648038E+02  0.00000000000E+00 0. -1.
</event>
<event>
 8    1  0.1240174E-006  0.9118800E+02  0.7816164E-02  0.1184000E+00
        -11   -1    0    0    0    0  0.00000000000E+00  0.00000000000E+00  0.45593999997E+02  0.45594000000E+02  0.51100000000E-03 0.  1.
         11   -1    0    0    0    0 -0.00000000000E+00 -0.00000000000E+00 -0.45593999997E+02  0.45594000000E+02  0.51100000000E-03 0. -1.
         23    2    1    2    0    0  0.71054273576E-14  0.00000000000E+00 -0.22204460493E-15  0.91188000000E+02  0.91188000000E+02 0.  0.
    9900012    2    3    3    0    0  0.30553499232E+02  0.20496405941E+02  0.14702234880E+01  0.54367074849E+02  0.39999978734E+02 0.  0.
        -12    1    3    3    0    0 -0.30553499232E+02 -0.20496405941E+02 -0.14702234880E+01  0.36820925151E+02  0.00000000000E+00 0.  1.
         11    1    4    4    0    0 -0.23293712672E+01  0.10808488943E+02  0.80098843361E+01  0.13653118730E+02  0.51100000000E-03 0. -1.
        -11    1    4    4    0    0  0.12764697341E+02 -0.63662093987E+01 -0.48294434795E+00  0.14272328325E+02  0.51100000000E-03 0.  1.
         12    1    4    4    0    0  0.20118173158E+02  0.16054126397E+02 -0.60567165002E+01  0.26441627793E+02  0.00000000000E+00 0. -1.
</event>
<event>
 8    1  0.1240174E-006  0.9118800E+02  0.7816164E-02  0.1184000E+00
        -11   -1    0    0    0    0  0.00000000000E+00  0.00000000000E+00  0.45593999997E+02  0.45594000000E+02  0.51100000000E-03 0. -1.
         11   -1    0    0    0    0 -0.00000000000E+00 -0.00000000000E+00 -0.45593999997E+02  0.45594000000E+02  0.51100000000E-03 0.  1.
         23    2    1    2    0    0 -0.35527136788E-14  0.35527136788E-14  0.00000000000E+00  0.91188000000E+02  0.91188000000E+02 0.  0.
    9900012    2    3    3    0    0  0.20344192549E+02 -0.30402615015E+02 -0.41921942375E+01  0.54367086612E+02  0.40000005548E+02 0.  0.
         12    1    3    3    0    0 -0.20344192549E+02  0.30402615015E+02  0.41921942375E+01  0.36820913388E+02  0.00000000000E+00 0. -1.
         11    1    4    4    0    0 -0.92883005933E+01 -0.25346883855E+01  0.11946579431E+00  0.96286782821E+01  0.51100000000E-03 0. -1.
        -11    1    4    4    0    0  0.22536307875E+02 -0.93958995487E+01  0.30655714438E+00  0.24418478219E+02  0.51100000000E-03 0.  1.
        -12    1    4    4    0    0  0.70961852673E+01 -0.18472027081E+02 -0.46182171762E+01  0.20319930111E+02  0.00000000000E+00 0.  1.
</event>
<event>
 8    1  0.1240174E-006  0.9118800E+02  0.7816164E-02  0.1184000E+00
        -11   -1    0    0    0    0  0.00000000000E+00  0.00000000000E+00  0.45593999997E+02  0.45594000000E+02  0.51100000000E-03 0. -1.
         11   -1    0    0    0    0 -0.00000000000E+00 -0.00000000000E+00 -0.45593999997E+02  0.45594000000E+02  0.51100000000E-03 0.  1.
         23    2    1    2    0    0  0.35527136788E-14  0.00000000000E+00 -0.35527136788E-14  0.91188000000E+02  0.91188000000E+02 0.  0.
    9900012    2    3    3    0    0 -0.23525979475E+02 -0.10980849950E+02  0.26109928981E+02  0.54367093340E+02  0.40000020887E+02 0.  0.
        -12    1    3    3    0    0  0.23525979475E+02  0.10980849950E+02 -0.26109928981E+02  0.36820906660E+02  0.00000000000E+00 0.  1.
         11    1    4    4    0    0 -0.74688343325E+01 -0.17899264598E+01  0.29987066693E+02  0.30954991392E+02  0.51100000000E-03 0. -1.
        -11    1    4    4    0    0 -0.11902021224E+02 -0.10963291715E+02 -0.72923212912E+01  0.17749079540E+02  0.51100000000E-03 0.  1.
         12    1    4    4    0    0 -0.41551239179E+01  0.17723682251E+01  0.34151835798E+01  0.56630224070E+01  0.00000000000E+00 0. -1.
</event>
<event>
 8    1  0.1240174E-006  0.9118800E+02  0.7816164E-02  0.1184000E+00
        -11   -1    0    0    0    0  0.00000000000E+00  0.00000000000E+00  0.45593999997E+02  0.45594000000E+02  0.51100000000E-03 0.  1.
         11   -1    0    0    0    0 -0.00000000000E+00 -0.00000000000E+00 -0.45593999997E+02  0.45594000000E+02  0.51100000000E-03 0. -1.
         23    2    1    2    0    0  0.00000000000E+00 -0.78756445809E-15  0.00000000000E+00  0.91188000000E+02  0.91188000000E+02 0.  0.
    9900012    2    3    3    0    0  0.26579435410E+02  0.94351952006E-02  0.25481582838E+02  0.54367115441E+02  0.40000071272E+02 0.  0.
         12    1    3    3    0    0 -0.26579435410E+02 -0.94351952006E-02 -0.25481582838E+02  0.36820884559E+02  0.00000000000E+00 0. -1.
         11    1    4    4    0    0  0.16018014468E+02 -0.60831469696E+01  0.15677011033E+02  0.23223913101E+02  0.51100000000E-03 0. -1.
        -11    1    4    4    0    0  0.15968953190E+02  0.12924907323E+02  0.48091907743E+01  0.21099502636E+02  0.51100000000E-03 0.  1.
         12    1    4    4    0    0 -0.54075322491E+01 -0.68323251585E+01  0.49953810315E+01  0.10043699704E+02  0.00000000000E+00 0. -1.
</event>
<event>
 8    1  0.1240174E-006  0.9118800E+02  0.7816164E-02  0.1184000E+00
        -11   -1    0    0    0    0  0.00000000000E+00  0.00000000000E+00  0.45593999997E+02  0.45594000000E+02  0.51100000000E-03 0. -1.
         11   -1    0    0    0    0 -0.00000000000E+00 -0.00000000000E+00 -0.45593999997E+02  0.45594000000E+02  0.51100000000E-03 0.  1.
         23    2    1    2    0    0 -0.17763568394E-14  0.00000000000E+00  0.00000000000E+00  0.91188000000E+02  0.91188000000E+02 0.  0.
    9900012    2    3    3    0    0  0.11419829694E+02  0.13401252554E+02  0.32338435507E+02  0.54367075361E+02  0.39999979899E+02 0.  0.
        -12    1    3    3    0    0 -0.11419829694E+02 -0.13401252554E+02 -0.32338435507E+02  0.36820924639E+02  0.00000000000E+00 0.  1.
         11    1    4    4    0    0  0.92439262762E+01  0.19133409433E+02  0.19946123311E+02  0.29144216664E+02  0.51100000000E-03 0. -1.
        -11    1    4    4    0    0  0.54391705813E+01  0.66868221528E+01  0.23858027245E+01  0.89437252874E+01  0.51100000000E-03 0.  1.
        -12    1    4    4    0    0 -0.32632671637E+01 -0.12418979031E+02  0.10006509472E+02  0.16279133410E+02  0.00000000000E+00 0.  1.
</event>
<event>
 8    1  0.1240174E-006  0.9118800E+02  0.7816164E-02  0.1184000E+00
        -11   -1    0    0    0    0  0.00000000000E+00  0.00000000000E+00  0.45593999997E+02  0.45594000000E+02  0.51100000000E-03 0.  1.
         11   -1    0    0    0    0 -0.00000000000E+00 -0.00000000000E+00 -0.45593999997E+02  0.45594000000E+02  0.51100000000E-03 0. -1.
         23    2    1    2    0    0  0.00000000000E+00  0.00000000000E+00  0.00000000000E+00  0.91188000000E+02  0.91188000000E+02 0.  0.
    9900012    2    3    3    0    0  0.19245719675E+02 -0.71388637601E+01  0.30568266874E+02  0.54367081471E+02  0.39999993830E+02 0.  0.
         12    1    3    3    0    0 -0.19245719675E+02  0.71388637601E+01 -0.30568266874E+02  0.36820918529E+02  0.00000000000E+00 0. -1.
         11    1    4    4    0    0 -0.46784452630E+01  0.52931647686E+01  0.86046283013E+01  0.11133062104E+02  0.51100000000E-03 0. -1.
        -11    1    4    4    0    0  0.82249960672E+00 -0.85650767832E+01  0.17342090205E+02  0.19359368245E+02  0.51100000000E-03 0.  1.
        -12    1    4    4    0    0  0.23101665331E+02 -0.38669517455E+01  0.46215483675E+01  0.23874651122E+02  0.00000000000E+00 0.  1.
</event>
<event>
 8    1  0.1240174E-006  0.9118800E+02  0.7816164E-02  0.1184000E+00
        -11   -1    0    0    0    0  0.00000000000E+00  0.00000000000E+00  0.45593999997E+02  0.45594000000E+02  0.51100000000E-03 0. -1.
         11   -1    0    0    0    0 -0.00000000000E+00 -0.00000000000E+00 -0.45593999997E+02  0.45594000000E+02  0.51100000000E-03 0.  1.
         23    2    1    2    0    0  0.35527136788E-14 -0.35527136788E-14  0.00000000000E+00  0.91188000000E+02  0.91188000000E+02 0.  0.
    9900012    2    3    3    0    0 -0.23277149220E+02  0.28144641941E+02  0.46724756436E+01  0.54367101390E+02  0.40000039238E+02 0.  0.
        -12    1    3    3    0    0  0.23277149220E+02 -0.28144641941E+02 -0.46724756436E+01  0.36820898610E+02  0.00000000000E+00 0.  1.
         11    1    4    4    0    0 -0.38039259842E+01  0.16230821185E+02  0.48467831861E+01  0.17360896197E+02  0.51100000000E-03 0. -1.
        -11    1    4    4    0    0 -0.18260116380E+02  0.90438965129E+00 -0.11149016987E+02  0.21413788803E+02  0.51100000000E-03 0.  1.
         12    1    4    4    0    0 -0.12131068559E+01  0.11009431104E+02  0.10974709445E+02  0.15592416390E+02  0.00000000000E+00 0. -1.
</event>
<event>
 8    1  0.1240174E-006  0.9118800E+02  0.7816164E-02  0.1184000E+00
        -11   -1    0    0    0    0  0.00000000000E+00  0.00000000000E+00  0.45593999997E+02  0.45594000000E+02  0.51100000000E-03 0.  1.
         11   -1    0    0    0    0 -0.00000000000E+00 -0.00000000000E+00 -0.45593999997E+02  0.45594000000E+02  0.51100000000E-03 0. -1.
         23    2    1    2    0    0 -0.88817841970E-15  0.00000000000E+00  0.35527136788E-14  0.91188000000E+02  0.91188000000E+02 0.  0.
    9900012    2    3    3    0    0  0.76805582454E+01  0.24841508546E+02  0.26070808970E+02  0.54367101014E+02  0.40000038381E+02 0.  0.
         12    1    3    3    0    0 -0.76805582454E+01 -0.24841508546E+02 -0.26070808970E+02  0.36820898986E+02  0.00000000000E+00 0. -1.
         11    1    4    4    0    0 -0.11244463905E+02  0.11172809467E+02  0.37688574422E+01  0.16293370633E+02  0.51100000000E-03 0. -1.
        -11    1    4    4    0    0  0.19506806558E+01  0.10665648952E+02  0.16770110152E+02  0.19969922818E+02  0.51100000000E-03 0.  1.
         12    1    4    4    0    0  0.16974341495E+02  0.30030501269E+01  0.55318413757E+01  0.18103807563E+02  0.00000000000E+00 0. -1.
</event>
<event>
 8    1  0.1240174E-006  0.9118800E+02  0.7816164E-02  0.1184000E+00
        -11   -1    0    0    0    0  0.00000000000E+00  0.00000000000E+00  0.45593999997E+02  0.45594000000E+02  0.51100000000E-03 0.  1.
         11   -1    0    0    0    0 -0.00000000000E+00 -0.00000000000E+00 -0.45593999997E+02  0.45594000000E+02  0.51100000000E-03 0. -1.
         23    2    1    2    0    0  0.17763568394E-14  0.22204460493E-15  0.00000000000E+00  0.91188000000E+02  0.91188000000E+02 0.  0.
    9900012    2    3    3    0    0  0.11356228444E+02 -0.18717507628E+01  0.34975846671E+02  0.54367119704E+02  0.40000080989E+02 0.  0.
         12    1    3    3    0    0 -0.11356228444E+02  0.18717507628E+01 -0.34975846671E+02  0.36820880296E+02  0.00000000000E+00 0. -1.
         11    1    4    4    0    0 -0.86412742616E+01  0.17836816410E+01  0.38012991526E+01  0.96074458921E+01  0.51100000000E-03 0. -1.
        -11    1    4    4    0    0  0.72963404018E+01 -0.13923529452E+02  0.16725319629E+02  0.22952942570E+02  0.51100000000E-03 0.  1.
         12    1    4    4    0    0  0.12701162304E+02  0.10268097048E+02  0.14449227890E+02  0.21806731242E+02  0.00000000000E+00 0. -1.
</event>
<event>
 8    1  0.1240174E-006  0.9118800E+02  0.7816164E-02  0.1184000E+00
        -11   -1    0    0    0    0  0.00000000000E+00  0.00000000000E+00  0.45593999997E+02  0.45594000000E+02  0.51100000000E-03 0.  1.
         11   -1    0    0    0    0 -0.00000000000E+00 -0.00000000000E+00 -0.45593999997E+02  0.45594000000E+02  0.51100000000E-03 0. -1.
         23    2    1    2    0    0  0.00000000000E+00  0.00000000000E+00 -0.88817841970E-15  0.91188000000E+02  0.91188000000E+02 0.  0.
    9900012    2    3    3    0    0  0.12173533780E+02  0.34342864350E+02 -0.53058898183E+01  0.54367085791E+02  0.40000003677E+02 0.  0.
        -12    1    3    3    0    0 -0.12173533780E+02 -0.34342864350E+02  0.53058898183E+01  0.36820914209E+02  0.00000000000E+00 0.  1.
         11    1    4    4    0    0 -0.72193984959E+01  0.29849027043E+02  0.39840094039E+01  0.30967022157E+02  0.51100000000E-03 0. -1.
        -11    1    4    4    0    0 -0.53453674171E+00  0.39003954836E+00  0.49247165221E+00  0.82485693722E+00  0.51100000000E-03 0.  1.
        -12    1    4    4    0    0  0.19927469017E+02  0.41037977586E+01 -0.97823708744E+01  0.22575206697E+02  0.00000000000E+00 0.  1.
</event>
<event>
 8    1  0.1240174E-006  0.9118800E+02  0.7816164E-02  0.1184000E+00
        -11   -1    0    0    0    0  0.00000000000E+00  0.00000000000E+00  0.45593999997E+02  0.45594000000E+02  0.51100000000E-03 0. -1.
         11   -1    0    0    0    0 -0.00000000000E+00 -0.00000000000E+00 -0.45593999997E+02  0.45594000000E+02  0.51100000000E-03 0.  1.
         23    2    1    2    0    0  0.88817841970E-15  0.13322676296E-14  0.00000000000E+00  0.91188000000E+02  0.91188000000E+02 0.  0.
    9900012    2    3    3    0    0 -0.11649037308E+01 -0.30043037626E+01 -0.36679652522E+02  0.54367085414E+02  0.40000002819E+02 0.  0.
         12    1    3    3    0    0  0.11649037308E+01  0.30043037626E+01  0.36679652522E+02  0.36820914586E+02  0.00000000000E+00 0. -1.
         11    1    4    4    0    0  0.45002883827E+01 -0.51659703974E+00 -0.21118175367E+01  0.49979237288E+01  0.51100000000E-03 0. -1.
        -11    1    4    4    0    0 -0.11322934462E+02 -0.15290132224E+02 -0.28136228787E+02  0.33965340553E+02  0.51100000000E-03 0.  1.
         12    1    4    4    0    0  0.56577423485E+01  0.12802425501E+02 -0.64316061976E+01  0.15403821132E+02  0.00000000000E+00 0. -1.
</event>
<event>
 8    1  0.1240174E-006  0.9118800E+02  0.7816164E-02  0.1184000E+00
        -11   -1    0    0    0    0  0.00000000000E+00  0.00000000000E+00  0.45593999997E+02  0.45594000000E+02  0.51100000000E-03 0. -1.
         11   -1    0    0    0    0 -0.00000000000E+00 -0.00000000000E+00 -0.45593999997E+02  0.45594000000E+02  0.51100000000E-03 0.  1.
         23    2    1    2    0    0  0.22204460493E-15  0.00000000000E+00  0.35527136788E-14  0.91188000000E+02  0.91188000000E+02 0.  0.
    9900012    2    3    3    0    0 -0.13945777318E+01  0.31020877748E+02 -0.19787384690E+02  0.54367078010E+02  0.39999985940E+02 0.  0.
         12    1    3    3    0    0  0.13945777318E+01 -0.31020877748E+02  0.19787384690E+02  0.36820921990E+02  0.00000000000E+00 0. -1.
         11    1    4    4    0    0 -0.96387173785E+00  0.22385328677E+02  0.23824989163E+01  0.22532383142E+02  0.51100000000E-03 0.  1.
        -11    1    4    4    0    0  0.95165227992E+01  0.45373865087E+01 -0.16741021877E+02  0.19784182982E+02  0.51100000000E-03 0. -1.
         12    1    4    4    0    0 -0.99472287932E+01  0.40981625620E+01 -0.54288617297E+01  0.12050511887E+02  0.00000000000E+00 0. -1.
</event>
<event>
 8    1  0.1240174E-006  0.9118800E+02  0.7816164E-02  0.1184000E+00
        -11   -1    0    0    0    0  0.00000000000E+00  0.00000000000E+00  0.45593999997E+02  0.45594000000E+02  0.51100000000E-03 0.  1.
         11   -1    0    0    0    0 -0.00000000000E+00 -0.00000000000E+00 -0.45593999997E+02  0.45594000000E+02  0.51100000000E-03 0. -1.
         23    2    1    2    0    0 -0.17763568394E-14 -0.71054273576E-14 -0.35527136788E-14  0.91188000000E+02  0.91188000000E+02 0.  0.
    9900012    2    3    3    0    0  0.53253679607E+01  0.32477910698E+02  0.16510706764E+02  0.54367113739E+02  0.40000067391E+02 0.  0.
        -12    1    3    3    0    0 -0.53253679607E+01 -0.32477910698E+02 -0.16510706764E+02  0.36820886261E+02  0.00000000000E+00 0.  1.
         11    1    4    4    0    0 -0.21581387770E+01  0.52026888620E+01 -0.31437000975E+01  0.64504561808E+01  0.51100000000E-03 0. -1.
        -11    1    4    4    0    0 -0.11239118225E+02  0.15841616461E+01  0.19087954645E+01  0.11509598037E+02  0.51100000000E-03 0.  1.
        -12    1    4    4    0    0  0.18722624962E+02  0.25691060190E+02  0.17745611397E+02  0.36407059521E+02  0.00000000000E+00 0.  1.
</event>
<event>
 8    1  0.1240174E-006  0.9118800E+02  0.7816164E-02  0.1184000E+00
        -11   -1    0    0    0    0  0.00000000000E+00  0.00000000000E+00  0.45593999997E+02  0.45594000000E+02  0.51100000000E-03 0.  1.
         11   -1    0    0    0    0 -0.00000000000E+00 -0.00000000000E+00 -0.45593999997E+02  0.45594000000E+02  0.51100000000E-03 0. -1.
         23    2    1    2    0    0  0.17763568394E-14 -0.35527136788E-14  0.35527136788E-14  0.91188000000E+02  0.91188000000E+02 0.  0.
    9900012    2    3    3    0    0  0.10997574799E+02 -0.21069071593E+02  0.28123437348E+02  0.54367079893E+02  0.39999990233E+02 0.  0.
         12    1    3    3    0    0 -0.10997574799E+02  0.21069071593E+02 -0.28123437348E+02  0.36820920107E+02  0.00000000000E+00 0. -1.
         11    1    4    4    0    0  0.18463469775E+01  0.40236451094E+01  0.38218630971E+01  0.58485344251E+01  0.51100000000E-03 0. -1.
        -11    1    4    4    0    0  0.21147541015E+02 -0.12679487032E+02  0.12871917054E+02  0.27814998315E+02  0.51100000000E-03 0.  1.
         12    1    4    4    0    0 -0.11996313194E+02 -0.12413229671E+02  0.11429657197E+02  0.20703547153E+02  0.00000000000E+00 0. -1.
</event>
<event>
 8    1  0.1240174E-006  0.9118800E+02  0.7816164E-02  0.1184000E+00
        -11   -1    0    0    0    0  0.00000000000E+00  0.00000000000E+00  0.45593999997E+02  0.45594000000E+02  0.51100000000E-03 0. -1.
         11   -1    0    0    0    0 -0.00000000000E+00 -0.00000000000E+00 -0.45593999997E+02  0.45594000000E+02  0.51100000000E-03 0.  1.
         23    2    1    2    0    0  0.00000000000E+00  0.88817841970E-15  0.00000000000E+00  0.91188000000E+02  0.91188000000E+02 0.  0.
    9900012    2    3    3    0    0  0.14172954145E+02  0.58133462988E+01  0.33483024150E+02  0.54367074827E+02  0.39999978683E+02 0.  0.
        -12    1    3    3    0    0 -0.14172954145E+02 -0.58133462988E+01 -0.33483024150E+02  0.36820925173E+02  0.00000000000E+00 0.  1.
         11    1    4    4    0    0  0.13611518030E+02 -0.13463798431E+02  0.12595035186E+02  0.22916854122E+02  0.51100000000E-03 0. -1.
        -11    1    4    4    0    0  0.77964631730E+00  0.72570869665E+01 -0.58328501863E-01  0.72990795375E+01  0.51100000000E-03 0.  1.
         12    1    4    4    0    0 -0.21821020159E+00  0.12020057763E+02  0.20946317466E+02  0.24151141168E+02  0.00000000000E+00 0. -1.
</event>
<event>
 8    1  0.1240174E-006  0.9118800E+02  0.7816164E-02  0.1184000E+00
        -11   -1    0    0    0    0  0.00000000000E+00  0.00000000000E+00  0.45593999997E+02  0.45594000000E+02  0.51100000000E-03 0.  1.
         11   -1    0    0    0    0 -0.00000000000E+00 -0.00000000000E+00 -0.45593999997E+02  0.45594000000E+02  0.51100000000E-03 0. -1.
         23    2    1    2    0    0  0.35527136788E-14  0.00000000000E+00  0.00000000000E+00  0.91188000000E+02  0.91188000000E+02 0.  0.
    9900012    2    3    3    0    0 -0.28408687037E+02 -0.22611405966E+02  0.61197102617E+01  0.54367081589E+02  0.39999994098E+02 0.  0.
         12    1    3    3    0    0  0.28408687037E+02  0.22611405966E+02 -0.61197102617E+01  0.36820918411E+02  0.00000000000E+00 0. -1.
         11    1    4    4    0    0 -0.14817968509E+02 -0.45508475354E+01  0.20851651117E+02  0.25982181559E+02  0.51100000000E-03 0.  1.
        -11    1    4    4    0    0 -0.11534796100E+02 -0.12790803252E+02 -0.65267997224E+01  0.18418883891E+02  0.51100000000E-03 0. -1.
        -12    1    4    4    0    0 -0.20559224289E+01 -0.52697551781E+01 -0.82051411328E+01  0.99660161388E+01  0.00000000000E+00 0.  1.
</event>
<event>
 8    1  0.1240174E-006  0.9118800E+02  0.7816164E-02  0.1184000E+00
        -11   -1    0    0    0    0  0.00000000000E+00  0.00000000000E+00  0.45593999997E+02  0.45594000000E+02  0.51100000000E-03 0.  1.
         11   -1    0    0    0    0 -0.00000000000E+00 -0.00000000000E+00 -0.45593999997E+02  0.45594000000E+02  0.51100000000E-03 0. -1.
         23    2    1    2    0    0  0.00000000000E+00  0.88817841970E-15  0.00000000000E+00  0.91188000000E+02  0.91188000000E+02 0.  0.
    9900012    2    3    3    0    0  0.29205527115E+02  0.65935681693E+01  0.21432264485E+02  0.54367083169E+02  0.39999997702E+02 0.  0.
         12    1    3    3    0    0 -0.29205527115E+02 -0.65935681693E+01 -0.21432264485E+02  0.36820916831E+02  0.00000000000E+00 0. -1.
         11    1    4    4    0    0  0.32835606842E+01  0.94540482548E+01  0.20910787355E+01  0.10224158142E+02  0.51100000000E-03 0. -1.
        -11    1    4    4    0    0  0.11228814002E+02 -0.15727619033E+02  0.51450367093E+01  0.19997891572E+02  0.51100000000E-03 0.  1.
        -12    1    4    4    0    0  0.14693152429E+02  0.12867138947E+02  0.14196149040E+02  0.24145033455E+02  0.00000000000E+00 0.  1.
</event>
<event>
 8    1  0.1240174E-006  0.9118800E+02  0.7816164E-02  0.1184000E+00
        -11   -1    0    0    0    0  0.00000000000E+00  0.00000000000E+00  0.45593999997E+02  0.45594000000E+02  0.51100000000E-03 0.  1.
         11   -1    0    0    0    0 -0.00000000000E+00 -0.00000000000E+00 -0.45593999997E+02  0.45594000000E+02  0.51100000000E-03 0. -1.
         23    2    1    2    0    0  0.35527136788E-14  0.35527136788E-14  0.35527136788E-14  0.91188000000E+02  0.91188000000E+02 0.  0.
    9900012    2    3    3    0    0  0.17774281773E+02  0.21458633337E+02 -0.24070352682E+02  0.54367083180E+02  0.39999997725E+02 0.  0.
        -12    1    3    3    0    0 -0.17774281773E+02 -0.21458633337E+02  0.24070352682E+02  0.36820916820E+02  0.00000000000E+00 0.  1.
         11    1    4    4    0    0  0.21288295398E+02  0.21994800370E+02 -0.36633738247E+01  0.30828283642E+02  0.51100000000E-03 0. -1.
        -11    1    4    4    0    0 -0.24554971814E+01  0.18532045241E+01 -0.11421697221E+00  0.30784540266E+01  0.51100000000E-03 0.  1.
         12    1    4    4    0    0 -0.10585164431E+01 -0.23893715574E+01 -0.20292761885E+02  0.20460345511E+02  0.00000000000E+00 0. -1.
</event>
<event>
 8    1  0.1240174E-006  0.9118800E+02  0.7816164E-02  0.1184000E+00
        -11   -1    0    0    0    0  0.00000000000E+00  0.00000000000E+00  0.45593999997E+02  0.45594000000E+02  0.51100000000E-03 0.  1.
         11   -1    0    0    0    0 -0.00000000000E+00 -0.00000000000E+00 -0.45593999997E+02  0.45594000000E+02  0.51100000000E-03 0. -1.
         23    2    1    2    0    0  0.17763568394E-14  0.00000000000E+00  0.00000000000E+00  0.91188000000E+02  0.91188000000E+02 0.  0.
    9900012    2    3    3    0    0 -0.15587712488E+02 -0.14554531813E+02  0.30016130824E+02  0.54367091720E+02  0.40000017194E+02 0.  0.
         12    1    3    3    0    0  0.15587712488E+02  0.14554531813E+02 -0.30016130824E+02  0.36820908280E+02  0.00000000000E+00 0. -1.
         11    1    4    4    0    0 -0.88094466752E+01  0.49155367074E+01 -0.32081499500E+01  0.10585890525E+02  0.51100000000E-03 0. -1.
        -11    1    4    4    0    0  0.64503384970E+01 -0.32023484950E+01  0.11653272512E+02  0.13698929269E+02  0.51100000000E-03 0.  1.
         12    1    4    4    0    0 -0.13228604310E+02 -0.16267720026E+02  0.21571008262E+02  0.30082271926E+02  0.00000000000E+00 0. -1.
</event>
<event>
 8    1  0.1240174E-006  0.9118800E+02  0.7816164E-02  0.1184000E+00
        -11   -1    0    0    0    0  0.00000000000E+00  0.00000000000E+00  0.45593999997E+02  0.45594000000E+02  0.51100000000E-03 0. -1.
         11   -1    0    0    0    0 -0.00000000000E+00 -0.00000000000E+00 -0.45593999997E+02  0.45594000000E+02  0.51100000000E-03 0.  1.
         23    2    1    2    0    0 -0.35527136788E-14  0.00000000000E+00  0.00000000000E+00  0.91188000000E+02  0.91188000000E+02 0.  0.
    9900012    2    3    3    0    0 -0.22397532254E+02 -0.45032645384E+01  0.28876479556E+02  0.54367083198E+02  0.39999997766E+02 0.  0.
        -12    1    3    3    0    0  0.22397532254E+02  0.45032645384E+01 -0.28876479556E+02  0.36820916802E+02  0.00000000000E+00 0.  1.
         11    1    4    4    0    0  0.29666118530E+01 -0.10699834941E+02 -0.63152147414E+00  0.11121424067E+02  0.51100000000E-03 0.  1.
        -11    1    4    4    0    0 -0.14973931927E+02  0.13056848104E+01  0.27844019896E+02  0.31641948335E+02  0.51100000000E-03 0. -1.
        -12    1    4    4    0    0 -0.10390212180E+02  0.48908855918E+01  0.16639811345E+01  0.11603710796E+02  0.00000000000E+00 0.  1.
</event>
<event>
 8    1  0.1240174E-006  0.9118800E+02  0.7816164E-02  0.1184000E+00
        -11   -1    0    0    0    0  0.00000000000E+00  0.00000000000E+00  0.45593999997E+02  0.45594000000E+02  0.51100000000E-03 0.  1.
         11   -1    0    0    0    0 -0.00000000000E+00 -0.00000000000E+00 -0.45593999997E+02  0.45594000000E+02  0.51100000000E-03 0. -1.
         23    2    1    2    0    0  0.00000000000E+00 -0.88817841970E-15  0.00000000000E+00  0.91188000000E+02  0.91188000000E+02 0.  0.
    9900012    2    3    3    0    0 -0.19364420522E+02  0.70808713144E+01  0.30506700890E+02  0.54367104846E+02  0.40000047118E+02 0.  0.
         12    1    3    3    0    0  0.19364420522E+02 -0.70808713144E+01 -0.30506700890E+02  0.36820895154E+02  0.00000000000E+00 0. -1.
         11    1    4    4    0    0 -0.97099067951E+01  0.18207699971E+01  0.11042216714E+02  0.14816478784E+02  0.51100000000E-03 0. -1.
        -11    1    4    4    0    0 -0.86648785201E+01  0.98344943026E+01  0.27379656440E+02  0.30355279359E+02  0.51100000000E-03 0.  1.
         12    1    4    4    0    0 -0.98963520728E+00 -0.45743929852E+01 -0.79151722633E+01  0.91953467028E+01  0.00000000000E+00 0. -1.
</event>
<event>
 8    1  0.1240174E-006  0.9118800E+02  0.7816164E-02  0.1184000E+00
        -11   -1    0    0    0    0  0.00000000000E+00  0.00000000000E+00  0.45593999997E+02  0.45594000000E+02  0.51100000000E-03 0.  1.
         11   -1    0    0    0    0 -0.00000000000E+00 -0.00000000000E+00 -0.45593999997E+02  0.45594000000E+02  0.51100000000E-03 0. -1.
         23    2    1    2    0    0 -0.17763568394E-14  0.00000000000E+00  0.00000000000E+00  0.91188000000E+02  0.91188000000E+02 0.  0.
    9900012    2    3    3    0    0  0.12831707526E+02  0.26658754483E+02 -0.21918898766E+02  0.54367081601E+02  0.39999994126E+02 0.  0.
        -12    1    3    3    0    0 -0.12831707526E+02 -0.26658754483E+02  0.21918898766E+02  0.36820918399E+02  0.00000000000E+00 0.  1.
         11    1    4    4    0    0  0.66181424719E+01  0.96561558571E+00 -0.12846251237E+02  0.14483038160E+02  0.51100000000E-03 0. -1.
        -11    1    4    4    0    0  0.10369655150E+02  0.29679528417E+02 -0.31066288155E+01  0.31592013197E+02  0.51100000000E-03 0.  1.
         12    1    4    4    0    0 -0.41560900967E+01 -0.39863895189E+01 -0.59660187133E+01  0.82920302445E+01  0.00000000000E+00 0. -1.
</event>
<event>
 8    1  0.1240174E-006  0.9118800E+02  0.7816164E-02  0.1184000E+00
        -11   -1    0    0    0    0  0.00000000000E+00  0.00000000000E+00  0.45593999997E+02  0.45594000000E+02  0.51100000000E-03 0.  1.
         11   -1    0    0    0    0 -0.00000000000E+00 -0.00000000000E+00 -0.45593999997E+02  0.45594000000E+02  0.51100000000E-03 0. -1.
         23    2    1    2    0    0  0.00000000000E+00 -0.35527136788E-14 -0.35527136788E-14  0.91188000000E+02  0.91188000000E+02 0.  0.
    9900012    2    3    3    0    0 -0.19303218947E+02 -0.25618091046E+02 -0.18079794453E+02  0.54367084503E+02  0.40000000741E+02 0.  0.
        -12    1    3    3    0    0  0.19303218947E+02  0.25618091046E+02  0.18079794453E+02  0.36820915497E+02  0.00000000000E+00 0.  1.
         11    1    4    4    0    0 -0.13276093318E+02  0.17773215568E+01 -0.73673445257E+01  0.15286964752E+02  0.51100000000E-03 0. -1.
        -11    1    4    4    0    0 -0.84065744839E+00 -0.28114210173E+02 -0.11169039540E+01  0.28148943023E+02  0.51100000000E-03 0.  1.
        -12    1    4    4    0    0 -0.51864681804E+01  0.71879757007E+00 -0.95955459732E+01  0.10931176728E+02  0.00000000000E+00 0.  1.
</event>
<event>
 8    1  0.1240174E-006  0.9118800E+02  0.7816164E-02  0.1184000E+00
        -11   -1    0    0    0    0  0.00000000000E+00  0.00000000000E+00  0.45593999997E+02  0.45594000000E+02  0.51100000000E-03 0.  1.
         11   -1    0    0    0    0 -0.00000000000E+00 -0.00000000000E+00 -0.45593999997E+02  0.45594000000E+02  0.51100000000E-03 0. -1.
         23    2    1    2    0    0  0.00000000000E+00  0.17763568394E-14  0.88817841970E-15  0.91188000000E+02  0.91188000000E+02 0.  0.
    9900012    2    3    3    0    0 -0.34054474496E+02  0.13779762829E+02  0.24883540655E+01  0.54367068415E+02  0.39999964066E+02 0.  0.
         12    1    3    3    0    0  0.34054474496E+02 -0.13779762829E+02 -0.24883540655E+01  0.36820931585E+02  0.00000000000E+00 0. -1.
         11    1    4    4    0    0 -0.28554013243E+02  0.56811676907E+01  0.15592325133E+01  0.29155420506E+02  0.51100000000E-03 0. -1.
        -11    1    4    4    0    0 -0.13039683506E+02  0.16515438925E+01  0.55509047616E+01  0.14267918106E+02  0.51100000000E-03 0.  1.
         12    1    4    4    0    0  0.75392222530E+01  0.64470512460E+01 -0.46217832094E+01  0.10943729802E+02  0.00000000000E+00 0. -1.
</event>
<event>
 8    1  0.1240174E-006  0.9118800E+02  0.7816164E-02  0.1184000E+00
        -11   -1    0    0    0    0  0.00000000000E+00  0.00000000000E+00  0.45593999997E+02  0.45594000000E+02  0.51100000000E-03 0. -1.
         11   -1    0    0    0    0 -0.00000000000E+00 -0.00000000000E+00 -0.45593999997E+02  0.45594000000E+02  0.51100000000E-03 0.  1.
         23    2    1    2    0    0  0.00000000000E+00  0.00000000000E+00  0.00000000000E+00  0.91188000000E+02  0.91188000000E+02 0.  0.
    9900012    2    3    3    0    0  0.31260897480E+01 -0.29271268800E+02  0.22117709203E+02  0.54367181505E+02  0.40000221876E+02 0.  0.
        -12    1    3    3    0    0 -0.31260897480E+01  0.29271268800E+02 -0.22117709203E+02  0.36820818495E+02  0.00000000000E+00 0.  1.
         11    1    4    4    0    0  0.50510863668E+01 -0.31247511836E+02  0.20492384503E+02  0.37707536280E+02  0.51100000000E-03 0. -1.
        -11    1    4    4    0    0 -0.48233653998E+01  0.29246808418E+01 -0.61275236889E+01  0.83285748256E+01  0.51100000000E-03 0.  1.
         12    1    4    4    0    0  0.28983687809E+01 -0.94843780632E+00  0.77528483887E+01  0.83310703995E+01  0.00000000000E+00 0. -1.
</event>
<event>
 8    1  0.1240174E-006  0.9118800E+02  0.7816164E-02  0.1184000E+00
        -11   -1    0    0    0    0  0.00000000000E+00  0.00000000000E+00  0.45593999997E+02  0.45594000000E+02  0.51100000000E-03 0.  1.
         11   -1    0    0    0    0 -0.00000000000E+00 -0.00000000000E+00 -0.45593999997E+02  0.45594000000E+02  0.51100000000E-03 0. -1.
         23    2    1    2    0    0  0.00000000000E+00  0.88817841970E-15  0.00000000000E+00  0.91188000000E+02  0.91188000000E+02 0.  0.
    9900012    2    3    3    0    0  0.27983598243E+02  0.61537982029E+01 -0.23126388856E+02  0.54367070293E+02  0.39999968347E+02 0.  0.
        -12    1    3    3    0    0 -0.27983598243E+02 -0.61537982029E+01  0.23126388856E+02  0.36820929707E+02  0.00000000000E+00 0.  1.
         11    1    4    4    0    0  0.20113654450E+02  0.18911688273E+02 -0.15525072032E+02  0.31673946873E+02  0.51100000000E-03 0. -1.
        -11    1    4    4    0    0  0.56681219196E+01 -0.87279812674E+01 -0.12307501309E+02  0.16117687546E+02  0.51100000000E-03 0.  1.
        -12    1    4    4    0    0  0.22018218739E+01 -0.40299088030E+01  0.47061844846E+01  0.65754358736E+01  0.00000000000E+00 0.  1.
</event>
<event>
 8    1  0.1240174E-006  0.9118800E+02  0.7816164E-02  0.1184000E+00
        -11   -1    0    0    0    0  0.00000000000E+00  0.00000000000E+00  0.45593999997E+02  0.45594000000E+02  0.51100000000E-03 0. -1.
         11   -1    0    0    0    0 -0.00000000000E+00 -0.00000000000E+00 -0.45593999997E+02  0.45594000000E+02  0.51100000000E-03 0.  1.
         23    2    1    2    0    0  0.00000000000E+00 -0.17763568394E-14  0.00000000000E+00  0.91188000000E+02  0.91188000000E+02 0.  0.
    9900012    2    3    3    0    0 -0.12938179607E+02  0.10306603039E+02  0.32896137671E+02  0.54367103332E+02  0.40000043667E+02 0.  0.
        -12    1    3    3    0    0  0.12938179607E+02 -0.10306603039E+02 -0.32896137671E+02  0.36820896668E+02  0.00000000000E+00 0.  1.
         11    1    4    4    0    0 -0.23849410405E+01  0.68345126172E+01  0.15680817315E+02  0.17270973869E+02  0.51100000000E-03 0. -1.
        -11    1    4    4    0    0  0.70143010915E+01 -0.22576881315E+01  0.17097095232E+02  0.18617417682E+02  0.51100000000E-03 0.  1.
        -12    1    4    4    0    0 -0.17567539658E+02  0.57297785537E+01  0.11822512392E+00  0.18478711781E+02  0.00000000000E+00 0.  1.
</event>
<event>
 8    1  0.1240174E-006  0.9118800E+02  0.7816164E-02  0.1184000E+00
        -11   -1    0    0    0    0  0.00000000000E+00  0.00000000000E+00  0.45593999997E+02  0.45594000000E+02  0.51100000000E-03 0.  1.
         11   -1    0    0    0    0 -0.00000000000E+00 -0.00000000000E+00 -0.45593999997E+02  0.45594000000E+02  0.51100000000E-03 0. -1.
         23    2    1    2    0    0 -0.17763568394E-14 -0.17763568394E-14  0.35527136788E-14  0.91188000000E+02  0.91188000000E+02 0.  0.
    9900012    2    3    3    0    0 -0.13824134489E+02  0.13595936631E+02 -0.31302120597E+02  0.54367096411E+02  0.40000027889E+02 0.  0.
        -12    1    3    3    0    0  0.13824134489E+02 -0.13595936631E+02  0.31302120597E+02  0.36820903589E+02  0.00000000000E+00 0.  1.
         11    1    4    4    0    0 -0.14819568966E+02  0.57824292348E+01  0.93567416300E+00  0.15935231363E+02  0.51100000000E-03 0. -1.
        -11    1    4    4    0    0 -0.29627370167E+01  0.29122870297E+01  0.12643279854E+01  0.43425513111E+01  0.51100000000E-03 0.  1.
        -12    1    4    4    0    0  0.39581714940E+01  0.49012203667E+01 -0.33502122745E+02  0.34089313737E+02  0.00000000000E+00 0.  1.
</event>
<event>
 8    1  0.1240174E-006  0.9118800E+02  0.7816164E-02  0.1184000E+00
        -11   -1    0    0    0    0  0.00000000000E+00  0.00000000000E+00  0.45593999997E+02  0.45594000000E+02  0.51100000000E-03 0.  1.
         11   -1    0    0    0    0 -0.00000000000E+00 -0.00000000000E+00 -0.45593999997E+02  0.45594000000E+02  0.51100000000E-03 0. -1.
         23    2    1    2    0    0  0.35527136788E-14  0.00000000000E+00 -0.35527136788E-14  0.91188000000E+02  0.91188000000E+02 0.  0.
    9900012    2    3    3    0    0  0.17011344508E+02  0.23723140878E+02 -0.22441211404E+02  0.54367065406E+02  0.39999957205E+02 0.  0.
        -12    1    3    3    0    0 -0.17011344508E+02 -0.23723140878E+02  0.22441211404E+02  0.36820934594E+02  0.00000000000E+00 0.  1.
         11    1    4    4    0    0  0.11705421435E+02  0.10045251192E+02  0.95671439904E+00  0.15454425424E+02  0.51100000000E-03 0. -1.
        -11    1    4    4    0    0 -0.10617765413E+02  0.22860311678E+01 -0.12292617364E+02  0.16403393636E+02  0.51100000000E-03 0.  1.
         12    1    4    4    0    0  0.15923688486E+02  0.11391858519E+02 -0.11105308440E+02  0.22509246346E+02  0.00000000000E+00 0. -1.
</event>
<event>
 8    1  0.1240174E-006  0.9118800E+02  0.7816164E-02  0.1184000E+00
        -11   -1    0    0    0    0  0.00000000000E+00  0.00000000000E+00  0.45593999997E+02  0.45594000000E+02  0.51100000000E-03 0. -1.
         11   -1    0    0    0    0 -0.00000000000E+00 -0.00000000000E+00 -0.45593999997E+02  0.45594000000E+02  0.51100000000E-03 0.  1.
         23    2    1    2    0    0 -0.17763568394E-14  0.00000000000E+00 -0.35527136788E-14  0.91188000000E+02  0.91188000000E+02 0.  0.
    9900012    2    3    3    0    0  0.77615015684E+01  0.16839952590E+02 -0.31811268959E+02  0.54367058368E+02  0.39999941163E+02 0.  0.
         12    1    3    3    0    0 -0.77615015684E+01 -0.16839952590E+02  0.31811268959E+02  0.36820941632E+02  0.00000000000E+00 0. -1.
         11    1    4    4    0    0 -0.12187686018E+02  0.15954396426E+02 -0.16828549668E+02  0.26196994866E+02  0.51100000000E-03 0. -1.
        -11    1    4    4    0    0  0.18797086275E+02  0.27081339771E+01 -0.16795896481E+02  0.25352841673E+02  0.51100000000E-03 0.  1.
         12    1    4    4    0    0  0.11521013119E+01 -0.18225778131E+01  0.18131771894E+01  0.28172218297E+01  0.00000000000E+00 0. -1.
</event>
<event>
 8    1  0.1240174E-006  0.9118800E+02  0.7816164E-02  0.1184000E+00
        -11   -1    0    0    0    0  0.00000000000E+00  0.00000000000E+00  0.45593999997E+02  0.45594000000E+02  0.51100000000E-03 0. -1.
         11   -1    0    0    0    0 -0.00000000000E+00 -0.00000000000E+00 -0.45593999997E+02  0.45594000000E+02  0.51100000000E-03 0.  1.
         23    2    1    2    0    0  0.00000000000E+00 -0.88817841970E-15  0.00000000000E+00  0.91188000000E+02  0.91188000000E+02 0.  0.
    9900012    2    3    3    0    0 -0.15397693227E+02 -0.70684289448E+01 -0.32691401668E+02  0.54367090350E+02  0.40000014070E+02 0.  0.
         12    1    3    3    0    0  0.15397693227E+02  0.70684289448E+01  0.32691401668E+02  0.36820909650E+02  0.00000000000E+00 0. -1.
         11    1    4    4    0    0  0.67272363349E+01 -0.14110724011E+02 -0.15246613714E+02  0.21836379526E+02  0.51100000000E-03 0. -1.
        -11    1    4    4    0    0 -0.87665596227E+01  0.99856538221E+01 -0.55381294035E+01  0.14395719066E+02  0.51100000000E-03 0.  1.
        -12    1    4    4    0    0 -0.13358369939E+02 -0.29433587562E+01 -0.11906658551E+02  0.18134991758E+02  0.00000000000E+00 0.  1.
</event>
<event>
 8    1  0.1240174E-006  0.9118800E+02  0.7816164E-02  0.1184000E+00
        -11   -1    0    0    0    0  0.00000000000E+00  0.00000000000E+00  0.45593999997E+02  0.45594000000E+02  0.51100000000E-03 0.  1.
         11   -1    0    0    0    0 -0.00000000000E+00 -0.00000000000E+00 -0.45593999997E+02  0.45594000000E+02  0.51100000000E-03 0. -1.
         23    2    1    2    0    0  0.00000000000E+00 -0.88817841970E-15  0.88817841970E-15  0.91188000000E+02  0.91188000000E+02 0.  0.
    9900012    2    3    3    0    0  0.36268828940E+02  0.55986587189E+01  0.30022497610E+01  0.54366994640E+02  0.39999795880E+02 0.  0.
         12    1    3    3    0    0 -0.36268828940E+02 -0.55986587189E+01 -0.30022497610E+01  0.36821005360E+02  0.00000000000E+00 0. -1.
         11    1    4    4    0    0  0.24874022540E+02  0.47974158689E+01 -0.56141645914E+01  0.25947081544E+02  0.51100000000E-03 0.  1.
        -11    1    4    4    0    0  0.17707995461E+02 -0.34583609739E+01  0.16832077478E+01  0.18120887187E+02  0.51100000000E-03 0. -1.
        -12    1    4    4    0    0 -0.63131890608E+01  0.42596038239E+01  0.69332066046E+01  0.10299025909E+02  0.00000000000E+00 0.  1.
</event>
<event>
 8    1  0.1240174E-006  0.9118800E+02  0.7816164E-02  0.1184000E+00
        -11   -1    0    0    0    0  0.00000000000E+00  0.00000000000E+00  0.45593999997E+02  0.45594000000E+02  0.51100000000E-03 0.  1.
         11   -1    0    0    0    0 -0.00000000000E+00 -0.00000000000E+00 -0.45593999997E+02  0.45594000000E+02  0.51100000000E-03 0. -1.
         23    2    1    2    0    0  0.44408920985E-15  0.00000000000E+00  0.00000000000E+00  0.91188000000E+02  0.91188000000E+02 0.  0.
    9900012    2    3    3    0    0 -0.31286486214E+01 -0.19121856376E+02  0.31310491032E+02  0.54367072770E+02  0.39999973993E+02 0.  0.
         12    1    3    3    0    0  0.31286486214E+01  0.19121856376E+02 -0.31310491032E+02  0.36820927230E+02  0.00000000000E+00 0. -1.
         11    1    4    4    0    0 -0.15571276276E+02 -0.86490148024E+01 -0.92047324653E+00  0.17835845177E+02  0.51100000000E-03 0. -1.
        -11    1    4    4    0    0  0.43076387757E+01 -0.72691472506E+01  0.15495143850E+02  0.17649241819E+02  0.51100000000E-03 0.  1.
         12    1    4    4    0    0  0.81349888787E+01 -0.32036943226E+01  0.16735820428E+02  0.18881985774E+02  0.00000000000E+00 0. -1.
</event>
<event>
 8    1  0.1240174E-006  0.9118800E+02  0.7816164E-02  0.1184000E+00
        -11   -1    0    0    0    0  0.00000000000E+00  0.00000000000E+00  0.45593999997E+02  0.45594000000E+02  0.51100000000E-03 0.  1.
         11   -1    0    0    0    0 -0.00000000000E+00 -0.00000000000E+00 -0.45593999997E+02  0.45594000000E+02  0.51100000000E-03 0. -1.
         23    2    1    2    0    0 -0.35527136788E-14 -0.35527136788E-14  0.00000000000E+00  0.91188000000E+02  0.91188000000E+02 0.  0.
    9900012    2    3    3    0    0  0.20450509356E+02 -0.27365788270E+02 -0.13735709651E+02  0.54367089906E+02  0.40000013059E+02 0.  0.
        -12    1    3    3    0    0 -0.20450509356E+02  0.27365788270E+02  0.13735709651E+02  0.36820910094E+02  0.00000000000E+00 0.  1.
         11    1    4    4    0    0  0.13261879113E+02  0.68838205261E+01 -0.63008351521E+01  0.16216193959E+02  0.51100000000E-03 0. -1.
        -11    1    4    4    0    0  0.33871681479E+01 -0.32482474178E+02 -0.43521007568E+01  0.32947303653E+02  0.51100000000E-03 0.  1.
        -12    1    4    4    0    0  0.38014620951E+01 -0.17671346178E+01 -0.30827737419E+01  0.52035922939E+01  0.00000000000E+00 0.  1.
</event>
<event>
 8    1  0.1240174E-006  0.9118800E+02  0.7816164E-02  0.1184000E+00
        -11   -1    0    0    0    0  0.00000000000E+00  0.00000000000E+00  0.45593999997E+02  0.45594000000E+02  0.51100000000E-03 0.  1.
         11   -1    0    0    0    0 -0.00000000000E+00 -0.00000000000E+00 -0.45593999997E+02  0.45594000000E+02  0.51100000000E-03 0. -1.
         23    2    1    2    0    0 -0.35527136788E-14  0.17763568394E-14  0.00000000000E+00  0.91188000000E+02  0.91188000000E+02 0.  0.
    9900012    2    3    3    0    0  0.26394212222E+02  0.40360758690E+01 -0.25354300663E+02  0.54367015367E+02  0.39999843132E+02 0.  0.
        -12    1    3    3    0    0 -0.26394212222E+02 -0.40360758690E+01  0.25354300663E+02  0.36820984633E+02  0.00000000000E+00 0.  1.
         11    1    4    4    0    0  0.38445782375E+01 -0.77618252590E-01 -0.14292121780E+02  0.14800390254E+02  0.51100000000E-03 0. -1.
        -11    1    4    4    0    0  0.16750851824E+02  0.14484374453E+02  0.16002667558E+01  0.22202454686E+02  0.51100000000E-03 0.  1.
        -12    1    4    4    0    0  0.57987821607E+01 -0.10370680332E+02 -0.12662445638E+02  0.17364170427E+02  0.00000000000E+00 0.  1.
</event>
<event>
 8    1  0.1240174E-006  0.9118800E+02  0.7816164E-02  0.1184000E+00
        -11   -1    0    0    0    0  0.00000000000E+00  0.00000000000E+00  0.45593999997E+02  0.45594000000E+02  0.51100000000E-03 0.  1.
         11   -1    0    0    0    0 -0.00000000000E+00 -0.00000000000E+00 -0.45593999997E+02  0.45594000000E+02  0.51100000000E-03 0. -1.
         23    2    1    2    0    0  0.00000000000E+00  0.35527136788E-14 -0.17763568394E-14  0.91188000000E+02  0.91188000000E+02 0.  0.
    9900012    2    3    3    0    0 -0.17177172625E+02 -0.29856811581E+02  0.13011378602E+02  0.54367076189E+02  0.39999981787E+02 0.  0.
        -12    1    3    3    0    0  0.17177172625E+02  0.29856811581E+02 -0.13011378602E+02  0.36820923811E+02  0.00000000000E+00 0.  1.
         11    1    4    4    0    0 -0.17173455416E+02 -0.97937128602E+01 -0.88356288923E+01  0.21654392642E+02  0.51100000000E-03 0. -1.
        -11    1    4    4    0    0 -0.61085342378E+01 -0.15692774247E+02  0.15022919798E+02  0.22566911034E+02  0.51100000000E-03 0.  1.
         12    1    4    4    0    0  0.61048170296E+01 -0.43703244738E+01  0.68240876967E+01  0.10145772512E+02  0.00000000000E+00 0. -1.
</event>
<event>
 8    1  0.1240174E-006  0.9118800E+02  0.7816164E-02  0.1184000E+00
        -11   -1    0    0    0    0  0.00000000000E+00  0.00000000000E+00  0.45593999997E+02  0.45594000000E+02  0.51100000000E-03 0.  1.
         11   -1    0    0    0    0 -0.00000000000E+00 -0.00000000000E+00 -0.45593999997E+02  0.45594000000E+02  0.51100000000E-03 0. -1.
         23    2    1    2    0    0  0.35527136788E-14  0.17763568394E-14 -0.35527136788E-14  0.91188000000E+02  0.91188000000E+02 0.  0.
    9900012    2    3    3    0    0  0.24557489405E+02 -0.66744480585E+01 -0.26611305886E+02  0.54367080080E+02  0.39999990659E+02 0.  0.
        -12    1    3    3    0    0 -0.24557489405E+02  0.66744480585E+01  0.26611305886E+02  0.36820919920E+02  0.00000000000E+00 0.  1.
         11    1    4    4    0    0  0.15491701161E+02 -0.60244599939E+01 -0.14384474635E+02  0.21981811433E+02  0.51100000000E-03 0. -1.
        -11    1    4    4    0    0 -0.39614356909E+01  0.79123560149E+01 -0.14138630853E+02  0.16679305534E+02  0.51100000000E-03 0.  1.
        -12    1    4    4    0    0  0.13027223935E+02 -0.85623440795E+01  0.19117996022E+01  0.15705963113E+02  0.00000000000E+00 0.  1.
</event>
<event>
 8    1  0.1240174E-006  0.9118800E+02  0.7816164E-02  0.1184000E+00
        -11   -1    0    0    0    0  0.00000000000E+00  0.00000000000E+00  0.45593999997E+02  0.45594000000E+02  0.51100000000E-03 0. -1.
         11   -1    0    0    0    0 -0.00000000000E+00 -0.00000000000E+00 -0.45593999997E+02  0.45594000000E+02  0.51100000000E-03 0.  1.
         23    2    1    2    0    0 -0.17763568394E-14 -0.17763568394E-14  0.00000000000E+00  0.91188000000E+02  0.91188000000E+02 0.  0.
    9900012    2    3    3    0    0 -0.69511157353E+01 -0.94334693999E+01 -0.34906635235E+02  0.54367061143E+02  0.39999947487E+02 0.  0.
         12    1    3    3    0    0  0.69511157353E+01  0.94334693999E+01  0.34906635235E+02  0.36820938857E+02  0.00000000000E+00 0. -1.
         11    1    4    4    0    0  0.45806953458E+01  0.90639756658E-01 -0.10813103614E+02  0.11743687472E+02  0.51100000000E-03 0. -1.
        -11    1    4    4    0    0 -0.10172633115E+02 -0.21136970513E+02 -0.16573802621E+02  0.28721854406E+02  0.51100000000E-03 0.  1.
         12    1    4    4    0    0 -0.13591779665E+01  0.11612861356E+02 -0.75197290002E+01  0.13901519264E+02  0.00000000000E+00 0. -1.
</event>
<event>
 8    1  0.1240174E-006  0.9118800E+02  0.7816164E-02  0.1184000E+00
        -11   -1    0    0    0    0  0.00000000000E+00  0.00000000000E+00  0.45593999997E+02  0.45594000000E+02  0.51100000000E-03 0.  1.
         11   -1    0    0    0    0 -0.00000000000E+00 -0.00000000000E+00 -0.45593999997E+02  0.45594000000E+02  0.51100000000E-03 0. -1.
         23    2    1    2    0    0  0.88817841970E-15  0.00000000000E+00 -0.88817841970E-15  0.91188000000E+02  0.91188000000E+02 0.  0.
    9900012    2    3    3    0    0 -0.26049856414E+01 -0.36643971025E+02 -0.24926497336E+01  0.54367083860E+02  0.39999999276E+02 0.  0.
        -12    1    3    3    0    0  0.26049856414E+01  0.36643971025E+02  0.24926497336E+01  0.36820916140E+02  0.00000000000E+00 0.  1.
         11    1    4    4    0    0 -0.49566008462E+01  0.11270272366E+01 -0.10011140673E+02  0.11227689886E+02  0.51100000000E-03 0. -1.
        -11    1    4    4    0    0 -0.84786143583E+01 -0.17875906232E+02  0.25427478135E+01  0.19947443239E+02  0.51100000000E-03 0.  1.
         12    1    4    4    0    0  0.10830229563E+02 -0.19895092030E+02  0.49757431259E+01  0.23191950735E+02  0.00000000000E+00 0. -1.
</event>
<event>
 8    1  0.1240174E-006  0.9118800E+02  0.7816164E-02  0.1184000E+00
        -11   -1    0    0    0    0  0.00000000000E+00  0.00000000000E+00  0.45593999997E+02  0.45594000000E+02  0.51100000000E-03 0.  1.
         11   -1    0    0    0    0 -0.00000000000E+00 -0.00000000000E+00 -0.45593999997E+02  0.45594000000E+02  0.51100000000E-03 0. -1.
         23    2    1    2    0    0  0.88817841970E-15  0.00000000000E+00  0.00000000000E+00  0.91188000000E+02  0.91188000000E+02 0.  0.
    9900012    2    3    3    0    0 -0.24750384428E+01 -0.29193640258E+02  0.22302193346E+02  0.54367051142E+02  0.39999924687E+02 0.  0.
        -12    1    3    3    0    0  0.24750384428E+01  0.29193640258E+02 -0.22302193346E+02  0.36820948858E+02  0.00000000000E+00 0.  1.
         11    1    4    4    0    0 -0.54178435800E+01  0.51663570689E+01 -0.28447054474E+00  0.74916752581E+01  0.51100000000E-03 0. -1.
        -11    1    4    4    0    0 -0.43714269146E+01 -0.23300530190E+02  0.23759926357E+02  0.33564239619E+02  0.51100000000E-03 0.  1.
        -12    1    4    4    0    0  0.73142320518E+01 -0.11059467136E+02 -0.11732624662E+01  0.13311136265E+02  0.00000000000E+00 0.  1.
</event>
<event>
 8    1  0.1240174E-006  0.9118800E+02  0.7816164E-02  0.1184000E+00
        -11   -1    0    0    0    0  0.00000000000E+00  0.00000000000E+00  0.45593999997E+02  0.45594000000E+02  0.51100000000E-03 0. -1.
         11   -1    0    0    0    0 -0.00000000000E+00 -0.00000000000E+00 -0.45593999997E+02  0.45594000000E+02  0.51100000000E-03 0.  1.
         23    2    1    2    0    0 -0.17763568394E-14  0.00000000000E+00 -0.71054273576E-14  0.91188000000E+02  0.91188000000E+02 0.  0.
    9900012    2    3    3    0    0 -0.10882877776E+02 -0.14422802764E+02 -0.32083116741E+02  0.54367073232E+02  0.39999975046E+02 0.  0.
         12    1    3    3    0    0  0.10882877776E+02  0.14422802764E+02  0.32083116741E+02  0.36820926768E+02  0.00000000000E+00 0. -1.
         11    1    4    4    0    0 -0.25558638761E+01 -0.15834061881E+01  0.22951692194E+01  0.37825146816E+01  0.51100000000E-03 0. -1.
        -11    1    4    4    0    0 -0.16999093820E+02 -0.13125485234E+02 -0.35843212024E+02  0.41784966217E+02  0.51100000000E-03 0.  1.
        -12    1    4    4    0    0  0.86720799198E+01  0.28608865788E+00  0.14649260633E+01  0.87995923329E+01  0.00000000000E+00 0.  1.
</event>
<event>
 8    1  0.1240174E-006  0.9118800E+02  0.7816164E-02  0.1184000E+00
        -11   -1    0    0    0    0  0.00000000000E+00  0.00000000000E+00  0.45593999997E+02  0.45594000000E+02  0.51100000000E-03 0.  1.
         11   -1    0    0    0    0 -0.00000000000E+00 -0.00000000000E+00 -0.45593999997E+02  0.45594000000E+02  0.51100000000E-03 0. -1.
         23    2    1    2    0    0 -0.88817841970E-15  0.35527136788E-14  0.35527136788E-14  0.91188000000E+02  0.91188000000E+02 0.  0.
    9900012    2    3    3    0    0  0.55344996065E+01  0.28833850149E+02 -0.22220746540E+02  0.54367038889E+02  0.39999896756E+02 0.  0.
        -12    1    3    3    0    0 -0.55344996065E+01 -0.28833850149E+02  0.22220746540E+02  0.36820961111E+02  0.00000000000E+00 0.  1.
         11    1    4    4    0    0  0.13184294361E+02  0.18592329318E+02 -0.16027068078E+02  0.27863367326E+02  0.51100000000E-03 0. -1.
        -11    1    4    4    0    0  0.10656768903E+01 -0.65876881719E+01 -0.39791614833E+00  0.66851806414E+01  0.51100000000E-03 0.  1.
         12    1    4    4    0    0 -0.87154716450E+01  0.16829209003E+02 -0.57957623137E+01  0.19818490923E+02  0.00000000000E+00 0. -1.
</event>
<event>
 8    1  0.1240174E-006  0.9118800E+02  0.7816164E-02  0.1184000E+00
        -11   -1    0    0    0    0  0.00000000000E+00  0.00000000000E+00  0.45593999997E+02  0.45594000000E+02  0.51100000000E-03 0.  1.
         11   -1    0    0    0    0 -0.00000000000E+00 -0.00000000000E+00 -0.45593999997E+02  0.45594000000E+02  0.51100000000E-03 0. -1.
         23    2    1    2    0    0  0.00000000000E+00  0.88817841970E-15  0.00000000000E+00  0.91188000000E+02  0.91188000000E+02 0.  0.
    9900012    2    3    3    0    0  0.25408029157E+02 -0.45201734458E+01  0.26263666450E+02  0.54367080823E+02  0.39999992352E+02 0.  0.
         12    1    3    3    0    0 -0.25408029157E+02  0.45201734458E+01 -0.26263666450E+02  0.36820919177E+02  0.00000000000E+00 0. -1.
         11    1    4    4    0    0 -0.23786619321E+01 -0.20728906814E+01  0.12545798759E+02  0.12936459141E+02  0.51100000000E-03 0. -1.
        -11    1    4    4    0    0  0.10025067047E+02 -0.12125355184E+02  0.14205930515E+02  0.21197515649E+02  0.51100000000E-03 0.  1.
         12    1    4    4    0    0  0.17761624043E+02  0.96780724197E+01 -0.48806282328E+00  0.20233106032E+02  0.00000000000E+00 0. -1.
</event>
<event>
 8    1  0.1240174E-006  0.9118800E+02  0.7816164E-02  0.1184000E+00
        -11   -1    0    0    0    0  0.00000000000E+00  0.00000000000E+00  0.45593999997E+02  0.45594000000E+02  0.51100000000E-03 0.  1.
         11   -1    0    0    0    0 -0.00000000000E+00 -0.00000000000E+00 -0.45593999997E+02  0.45594000000E+02  0.51100000000E-03 0. -1.
         23    2    1    2    0    0 -0.35527136788E-14  0.00000000000E+00  0.35527136788E-14  0.91188000000E+02  0.91188000000E+02 0.  0.
    9900012    2    3    3    0    0  0.27226801875E+02  0.22454555725E+01  0.24686821137E+02  0.54367082726E+02  0.39999996690E+02 0.  0.
         12    1    3    3    0    0 -0.27226801875E+02 -0.22454555725E+01 -0.24686821137E+02  0.36820917274E+02  0.00000000000E+00 0. -1.
         11    1    4    4    0    0  0.28102821614E+02  0.44462132512E+01  0.89291457366E-01  0.28452510753E+02  0.51100000000E-03 0. -1.
        -11    1    4    4    0    0  0.20089169461E+01 -0.40330689274E+01  0.10844852824E+02  0.11743603591E+02  0.51100000000E-03 0.  1.
         12    1    4    4    0    0 -0.28849366846E+01  0.18323112487E+01  0.13752676856E+02  0.14170968382E+02  0.00000000000E+00 0. -1.
</event>
<event>
 8    1  0.1240174E-006  0.9118800E+02  0.7816164E-02  0.1184000E+00
        -11   -1    0    0    0    0  0.00000000000E+00  0.00000000000E+00  0.45593999997E+02  0.45594000000E+02  0.51100000000E-03 0.  1.
         11   -1    0    0    0    0 -0.00000000000E+00 -0.00000000000E+00 -0.45593999997E+02  0.45594000000E+02  0.51100000000E-03 0. -1.
         23    2    1    2    0    0 -0.17763568394E-14  0.00000000000E+00  0.00000000000E+00  0.91188000000E+02  0.91188000000E+02 0.  0.
    9900012    2    3    3    0    0  0.96070495220E+01  0.30559884919E+02 -0.18154317052E+02  0.54367065813E+02  0.39999958135E+02 0.  0.
        -12    1    3    3    0    0 -0.96070495220E+01 -0.30559884919E+02  0.18154317052E+02  0.36820934187E+02  0.00000000000E+00 0.  1.
         11    1    4    4    0    0 -0.33625473649E+01  0.20053587289E+02 -0.10720835864E+02  0.22986722468E+02  0.51100000000E-03 0. -1.
        -11    1    4    4    0    0 -0.68011891414E+01  0.60710080300E+01  0.14946554520E+01  0.92383606457E+01  0.51100000000E-03 0.  1.
        -12    1    4    4    0    0  0.19770786028E+02  0.44352895993E+01 -0.89281366401E+01  0.22141982700E+02  0.00000000000E+00 0.  1.
</event>
<event>
 8    1  0.1240174E-006  0.9118800E+02  0.7816164E-02  0.1184000E+00
        -11   -1    0    0    0    0  0.00000000000E+00  0.00000000000E+00  0.45593999997E+02  0.45594000000E+02  0.51100000000E-03 0.  1.
         11   -1    0    0    0    0 -0.00000000000E+00 -0.00000000000E+00 -0.45593999997E+02  0.45594000000E+02  0.51100000000E-03 0. -1.
         23    2    1    2    0    0  0.00000000000E+00  0.00000000000E+00  0.00000000000E+00  0.91188000000E+02  0.91188000000E+02 0.  0.
    9900012    2    3    3    0    0 -0.22850794052E+02  0.12850653692E+02  0.25855018654E+02  0.54367080963E+02  0.39999992670E+02 0.  0.
         12    1    3    3    0    0  0.22850794052E+02 -0.12850653692E+02 -0.25855018654E+02  0.36820919037E+02  0.00000000000E+00 0. -1.
         11    1    4    4    0    0  0.27097566062E+00  0.12442852874E+02  0.22778372793E+01  0.12652531699E+02  0.51100000000E-03 0. -1.
        -11    1    4    4    0    0 -0.12432953907E+02  0.68460584601E+01  0.25407411637E+02  0.29102979670E+02  0.51100000000E-03 0.  1.
        -12    1    4    4    0    0 -0.10688815806E+02 -0.64382576420E+01 -0.18302302624E+01  0.12611569594E+02  0.00000000000E+00 0.  1.
</event>
<event>
 8    1  0.1240174E-006  0.9118800E+02  0.7816164E-02  0.1184000E+00
        -11   -1    0    0    0    0  0.00000000000E+00  0.00000000000E+00  0.45593999997E+02  0.45594000000E+02  0.51100000000E-03 0.  1.
         11   -1    0    0    0    0 -0.00000000000E+00 -0.00000000000E+00 -0.45593999997E+02  0.45594000000E+02  0.51100000000E-03 0. -1.
         23    2    1    2    0    0  0.00000000000E+00  0.88817841970E-15  0.00000000000E+00  0.91188000000E+02  0.91188000000E+02 0.  0.
    9900012    2    3    3    0    0  0.30247257338E+02 -0.64697196538E+01  0.19975633797E+02  0.54367084823E+02  0.40000001472E+02 0.  0.
         12    1    3    3    0    0 -0.30247257338E+02  0.64697196538E+01 -0.19975633797E+02  0.36820915177E+02  0.00000000000E+00 0. -1.
         11    1    4    4    0    0  0.65337503202E+01  0.97262039798E+01 -0.37824385638E+01  0.12312423760E+02  0.51100000000E-03 0. -1.
        -11    1    4    4    0    0  0.13438237513E+02  0.17255111747E+00  0.16799571849E+02  0.21513754110E+02  0.51100000000E-03 0.  1.
        -12    1    4    4    0    0  0.10275269505E+02 -0.16368474751E+02  0.69585005122E+01  0.20540906953E+02  0.00000000000E+00 0.  1.
</event>
<event>
 8    1  0.1240174E-006  0.9118800E+02  0.7816164E-02  0.1184000E+00
        -11   -1    0    0    0    0  0.00000000000E+00  0.00000000000E+00  0.45593999997E+02  0.45594000000E+02  0.51100000000E-03 0.  1.
         11   -1    0    0    0    0 -0.00000000000E+00 -0.00000000000E+00 -0.45593999997E+02  0.45594000000E+02  0.51100000000E-03 0. -1.
         23    2    1    2    0    0 -0.35527136788E-14  0.00000000000E+00  0.00000000000E+00  0.91188000000E+02  0.91188000000E+02 0.  0.
    9900012    2    3    3    0    0 -0.23658731777E+02 -0.88391312611E+01 -0.26793818574E+02  0.54367156114E+02  0.40000163992E+02 0.  0.
         12    1    3    3    0    0  0.23658731777E+02  0.88391312611E+01  0.26793818574E+02  0.36820843886E+02  0.00000000000E+00 0. -1.
         11    1    4    4    0    0  0.40186101688E+01 -0.46888830152E+01 -0.23516284996E+00  0.61798182373E+01  0.51100000000E-03 0. -1.
        -11    1    4    4    0    0  0.46776864394E+01  0.67020978416E+00 -0.10982800890E+02  0.11956247205E+02  0.51100000000E-03 0.  1.
        -12    1    4    4    0    0 -0.32355028385E+02 -0.48204580301E+01 -0.15575854834E+02  0.36231090671E+02  0.00000000000E+00 0.  1.
</event>
<event>
 8    1  0.1240174E-006  0.9118800E+02  0.7816164E-02  0.1184000E+00
        -11   -1    0    0    0    0  0.00000000000E+00  0.00000000000E+00  0.45593999997E+02  0.45594000000E+02  0.51100000000E-03 0. -1.
         11   -1    0    0    0    0 -0.00000000000E+00 -0.00000000000E+00 -0.45593999997E+02  0.45594000000E+02  0.51100000000E-03 0.  1.
         23    2    1    2    0    0  0.00000000000E+00  0.71054273576E-14  0.00000000000E+00  0.91188000000E+02  0.91188000000E+02 0.  0.
    9900012    2    3    3    0    0  0.78308602614E+01  0.34556035901E+02 -0.10016807376E+02  0.54367103492E+02  0.40000044030E+02 0.  0.
        -12    1    3    3    0    0 -0.78308602614E+01 -0.34556035901E+02  0.10016807376E+02  0.36820896508E+02  0.00000000000E+00 0.  1.
         11    1    4    4    0    0 -0.60895833538E+01  0.13748505520E+02 -0.31474236396E+01  0.15362639919E+02  0.51100000000E-03 0. -1.
        -11    1    4    4    0    0  0.62678997992E+01 -0.66057017272E+01 -0.52181546378E+01  0.10495284717E+02  0.51100000000E-03 0.  1.
        -12    1    4    4    0    0  0.76525438160E+01  0.27413232109E+02 -0.16512290988E+01  0.28509178856E+02  0.00000000000E+00 0.  1.
</event>
<event>
 8    1  0.1240174E-006  0.9118800E+02  0.7816164E-02  0.1184000E+00
        -11   -1    0    0    0    0  0.00000000000E+00  0.00000000000E+00  0.45593999997E+02  0.45594000000E+02  0.51100000000E-03 0.  1.
         11   -1    0    0    0    0 -0.00000000000E+00 -0.00000000000E+00 -0.45593999997E+02  0.45594000000E+02  0.51100000000E-03 0. -1.
         23    2    1    2    0    0  0.00000000000E+00  0.00000000000E+00 -0.35527136788E-14  0.91188000000E+02  0.91188000000E+02 0.  0.
    9900012    2    3    3    0    0 -0.17644247317E+02  0.21175078588E+02 -0.24414705087E+02  0.54367065180E+02  0.39999956690E+02 0.  0.
        -12    1    3    3    0    0  0.17644247317E+02 -0.21175078588E+02  0.24414705087E+02  0.36820934820E+02  0.00000000000E+00 0.  1.
         11    1    4    4    0    0  0.50447767630E+01  0.78851982325E+00 -0.15052137260E+02  0.15894601991E+02  0.51100000000E-03 0. -1.
        -11    1    4    4    0    0 -0.11349693660E+02  0.10059525559E+02 -0.15744145570E+02  0.21860643189E+02  0.51100000000E-03 0.  1.
        -12    1    4    4    0    0 -0.11339330419E+02  0.10327033206E+02  0.63815777433E+01  0.16611819999E+02  0.00000000000E+00 0.  1.
</event>
<event>
 8    1  0.1240174E-006  0.9118800E+02  0.7816164E-02  0.1184000E+00
        -11   -1    0    0    0    0  0.00000000000E+00  0.00000000000E+00  0.45593999997E+02  0.45594000000E+02  0.51100000000E-03 0.  1.
         11   -1    0    0    0    0 -0.00000000000E+00 -0.00000000000E+00 -0.45593999997E+02  0.45594000000E+02  0.51100000000E-03 0. -1.
         23    2    1    2    0    0  0.00000000000E+00  0.35527136788E-14  0.00000000000E+00  0.91188000000E+02  0.91188000000E+02 0.  0.
    9900012    2    3    3    0    0  0.17169979801E+02  0.27618358864E+02 -0.17268377114E+02  0.54367098316E+02  0.40000032230E+02 0.  0.
        -12    1    3    3    0    0 -0.17169979801E+02 -0.27618358864E+02  0.17268377114E+02  0.36820901684E+02  0.00000000000E+00 0.  1.
         11    1    4    4    0    0  0.60894346142E+01  0.37194730911E+01  0.10715918887E+01  0.72155390258E+01  0.51100000000E-03 0. -1.
        -11    1    4    4    0    0  0.15115266601E+02  0.20647112494E+02  0.24686873234E+01  0.25707371629E+02  0.51100000000E-03 0.  1.
        -12    1    4    4    0    0 -0.40347214133E+01  0.32517732790E+01 -0.20808656326E+02  0.21444187661E+02  0.00000000000E+00 0.  1.
</event>
<event>
 8    1  0.1240174E-006  0.9118800E+02  0.7816164E-02  0.1184000E+00
        -11   -1    0    0    0    0  0.00000000000E+00  0.00000000000E+00  0.45593999997E+02  0.45594000000E+02  0.51100000000E-03 0. -1.
         11   -1    0    0    0    0 -0.00000000000E+00 -0.00000000000E+00 -0.45593999997E+02  0.45594000000E+02  0.51100000000E-03 0.  1.
         23    2    1    2    0    0  0.22204460493E-15  0.00000000000E+00  0.00000000000E+00  0.91188000000E+02  0.91188000000E+02 0.  0.
    9900012    2    3    3    0    0 -0.10116922792E+01 -0.28179259785E+02  0.23678764640E+02  0.54367107858E+02  0.40000053984E+02 0.  0.
        -12    1    3    3    0    0  0.10116922792E+01  0.28179259785E+02 -0.23678764640E+02  0.36820892142E+02  0.00000000000E+00 0.  1.
         11    1    4    4    0    0 -0.64095694853E+01 -0.13970789768E+02  0.11311978507E+02  0.19084716549E+02  0.51100000000E-03 0. -1.
        -11    1    4    4    0    0 -0.20202483942E+01 -0.21688805153E+02  0.11700986138E+02  0.24726478710E+02  0.51100000000E-03 0.  1.
        -12    1    4    4    0    0  0.74181256003E+01  0.74803351365E+01  0.66579999455E+00  0.10555912599E+02  0.00000000000E+00 0.  1.
</event>
<event>
 8    1  0.1240174E-006  0.9118800E+02  0.7816164E-02  0.1184000E+00
        -11   -1    0    0    0    0  0.00000000000E+00  0.00000000000E+00  0.45593999997E+02  0.45594000000E+02  0.51100000000E-03 0.  1.
         11   -1    0    0    0    0 -0.00000000000E+00 -0.00000000000E+00 -0.45593999997E+02  0.45594000000E+02  0.51100000000E-03 0. -1.
         23    2    1    2    0    0 -0.71054273576E-14  0.00000000000E+00 -0.17763568394E-14  0.91188000000E+02  0.91188000000E+02 0.  0.
    9900012    2    3    3    0    0 -0.33835388467E+02 -0.66566708060E+01  0.12908735885E+02  0.54367078759E+02  0.39999987646E+02 0.  0.
         12    1    3    3    0    0  0.33835388467E+02  0.66566708060E+01 -0.12908735885E+02  0.36820921241E+02  0.00000000000E+00 0. -1.
         11    1    4    4    0    0  0.37165157183E+01 -0.26926456452E+00 -0.30896568372E+01  0.48405549395E+01  0.51100000000E-03 0. -1.
        -11    1    4    4    0    0  0.43899342587E+01 -0.96115873128E+00  0.24475329221E+01  0.51172030024E+01  0.51100000000E-03 0.  1.
        -12    1    4    4    0    0 -0.41941838444E+02 -0.54262475102E+01  0.13550859800E+02  0.44409320817E+02  0.00000000000E+00 0.  1.
</event>
<event>
 8    1  0.1240174E-006  0.9118800E+02  0.7816164E-02  0.1184000E+00
        -11   -1    0    0    0    0  0.00000000000E+00  0.00000000000E+00  0.45593999997E+02  0.45594000000E+02  0.51100000000E-03 0.  1.
         11   -1    0    0    0    0 -0.00000000000E+00 -0.00000000000E+00 -0.45593999997E+02  0.45594000000E+02  0.51100000000E-03 0. -1.
         23    2    1    2    0    0 -0.35527136788E-14 -0.13322676296E-14  0.00000000000E+00  0.91188000000E+02  0.91188000000E+02 0.  0.
    9900012    2    3    3    0    0 -0.23376795410E+02 -0.26966646045E+01 -0.28320181538E+02  0.54367092272E+02  0.40000018452E+02 0.  0.
        -12    1    3    3    0    0  0.23376795410E+02  0.26966646045E+01  0.28320181538E+02  0.36820907728E+02  0.00000000000E+00 0.  1.
         11    1    4    4    0    0 -0.95703433537E+00  0.13485443816E+02 -0.73109008659E+01  0.15369527689E+02  0.51100000000E-03 0. -1.
        -11    1    4    4    0    0  0.18142417194E+01 -0.49661656155E+01 -0.72053574616E+01  0.89370828768E+01  0.51100000000E-03 0.  1.
        -12    1    4    4    0    0 -0.24234002794E+02 -0.11215942805E+02 -0.13803923210E+02  0.30060481706E+02  0.00000000000E+00 0.  1.
</event>
<event>
 8    1  0.1240174E-006  0.9118800E+02  0.7816164E-02  0.1184000E+00
        -11   -1    0    0    0    0  0.00000000000E+00  0.00000000000E+00  0.45593999997E+02  0.45594000000E+02  0.51100000000E-03 0. -1.
         11   -1    0    0    0    0 -0.00000000000E+00 -0.00000000000E+00 -0.45593999997E+02  0.45594000000E+02  0.51100000000E-03 0.  1.
         23    2    1    2    0    0  0.00000000000E+00  0.13322676296E-14  0.00000000000E+00  0.91188000000E+02  0.91188000000E+02 0.  0.
    9900012    2    3    3    0    0 -0.36739809935E+02 -0.10716612251E+01  0.21948717683E+01  0.54367088089E+02  0.40000008918E+02 0.  0.
         12    1    3    3    0    0  0.36739809935E+02  0.10716612251E+01 -0.21948717683E+01  0.36820911911E+02  0.00000000000E+00 0. -1.
         11    1    4    4    0    0 -0.14515724450E+02  0.15736298859E+02 -0.16325974239E+01  0.21470974191E+02  0.51100000000E-03 0. -1.
        -11    1    4    4    0    0 -0.14551616321E+02 -0.44479249983E+00  0.88276099005E+00  0.14585151530E+02  0.51100000000E-03 0.  1.
         12    1    4    4    0    0 -0.76724691637E+01 -0.16363167585E+02  0.29447082021E+01  0.18310962369E+02  0.00000000000E+00 0. -1.
</event>
<event>
 8    1  0.1240174E-006  0.9118800E+02  0.7816164E-02  0.1184000E+00
        -11   -1    0    0    0    0  0.00000000000E+00  0.00000000000E+00  0.45593999997E+02  0.45594000000E+02  0.51100000000E-03 0.  1.
         11   -1    0    0    0    0 -0.00000000000E+00 -0.00000000000E+00 -0.45593999997E+02  0.45594000000E+02  0.51100000000E-03 0. -1.
         23    2    1    2    0    0  0.00000000000E+00  0.00000000000E+00  0.00000000000E+00  0.91188000000E+02  0.91188000000E+02 0.  0.
    9900012    2    3    3    0    0  0.28633810989E+02 -0.21447196513E+02 -0.87122037763E+01  0.54367083870E+02  0.39999999298E+02 0.  0.
        -12    1    3    3    0    0 -0.28633810989E+02  0.21447196513E+02  0.87122037763E+01  0.36820916130E+02  0.00000000000E+00 0.  1.
         11    1    4    4    0    0  0.51385136758E+01 -0.76468627836E+01  0.90549308744E+01  0.12917840633E+02  0.51100000000E-03 0.  1.
        -11    1    4    4    0    0  0.15622609366E+02 -0.21301467506E+01  0.33026922072E+01  0.16109352087E+02  0.51100000000E-03 0. -1.
         12    1    4    4    0    0  0.78726879472E+01 -0.11670186979E+02 -0.21069826858E+02  0.25339891149E+02  0.00000000000E+00 0. -1.
</event>
<event>
 8    1  0.1240174E-006  0.9118800E+02  0.7816164E-02  0.1184000E+00
        -11   -1    0    0    0    0  0.00000000000E+00  0.00000000000E+00  0.45593999997E+02  0.45594000000E+02  0.51100000000E-03 0. -1.
         11   -1    0    0    0    0 -0.00000000000E+00 -0.00000000000E+00 -0.45593999997E+02  0.45594000000E+02  0.51100000000E-03 0.  1.
         23    2    1    2    0    0  0.35527136788E-14  0.88817841970E-15  0.00000000000E+00  0.91188000000E+02  0.91188000000E+02 0.  0.
    9900012    2    3    3    0    0 -0.27972671857E+02  0.69659732515E+01  0.22908194700E+02  0.54367074719E+02  0.39999978437E+02 0.  0.
         12    1    3    3    0    0  0.27972671857E+02 -0.69659732515E+01 -0.22908194700E+02  0.36820925281E+02  0.00000000000E+00 0. -1.
         11    1    4    4    0    0 -0.13435770339E+01 -0.28767857921E+01 -0.86057784442E+01  0.91728141065E+01  0.51100000000E-03 0. -1.
        -11    1    4    4    0    0 -0.13696232692E+02 -0.31506911503E+01  0.14162171614E+02  0.19951961051E+02  0.51100000000E-03 0.  1.
        -12    1    4    4    0    0 -0.12932862131E+02  0.12993450194E+02  0.17351801530E+02  0.25242299562E+02  0.00000000000E+00 0.  1.
</event>
<event>
 8    1  0.1240174E-006  0.9118800E+02  0.7816164E-02  0.1184000E+00
        -11   -1    0    0    0    0  0.00000000000E+00  0.00000000000E+00  0.45593999997E+02  0.45594000000E+02  0.51100000000E-03 0. -1.
         11   -1    0    0    0    0 -0.00000000000E+00 -0.00000000000E+00 -0.45593999997E+02  0.45594000000E+02  0.51100000000E-03 0.  1.
         23    2    1    2    0    0 -0.88817841970E-15 -0.88817841970E-15 -0.14210854715E-13  0.91188000000E+02  0.91188000000E+02 0.  0.
    9900012    2    3    3    0    0 -0.49885181465E+01 -0.57820518395E+01 -0.36020261727E+02  0.54367126957E+02  0.40000097523E+02 0.  0.
         12    1    3    3    0    0  0.49885181465E+01  0.57820518395E+01  0.36020261727E+02  0.36820873043E+02  0.00000000000E+00 0. -1.
         11    1    4    4    0    0 -0.87060645497E+01 -0.12282134226E+02 -0.10853961318E+02  0.18559495080E+02  0.51100000000E-03 0. -1.
        -11    1    4    4    0    0 -0.46657172875E+01  0.24999500245E+00  0.31414583193E+01  0.56302909286E+01  0.51100000000E-03 0.  1.
        -12    1    4    4    0    0  0.83832636907E+01  0.62500873841E+01 -0.28307758729E+02  0.30177340947E+02  0.00000000000E+00 0.  1.
</event>
<event>
 8    1  0.1240174E-006  0.9118800E+02  0.7816164E-02  0.1184000E+00
        -11   -1    0    0    0    0  0.00000000000E+00  0.00000000000E+00  0.45593999997E+02  0.45594000000E+02  0.51100000000E-03 0. -1.
         11   -1    0    0    0    0 -0.00000000000E+00 -0.00000000000E+00 -0.45593999997E+02  0.45594000000E+02  0.51100000000E-03 0.  1.
         23    2    1    2    0    0  0.00000000000E+00  0.00000000000E+00 -0.17763568394E-14  0.91188000000E+02  0.91188000000E+02 0.  0.
    9900012    2    3    3    0    0 -0.21644585820E+02  0.27558635054E+02  0.11305802414E+02  0.54366978429E+02  0.39999758923E+02 0.  0.
         12    1    3    3    0    0  0.21644585820E+02 -0.27558635054E+02 -0.11305802414E+02  0.36821021571E+02  0.00000000000E+00 0. -1.
         11    1    4    4    0    0 -0.26760925820E+02  0.13677576351E+02 -0.41531771790E+01  0.30339283553E+02  0.51100000000E-03 0. -1.
        -11    1    4    4    0    0 -0.93977301230E+00  0.11757688249E+02  0.83567779666E+01  0.14455522977E+02  0.51100000000E-03 0.  1.
         12    1    4    4    0    0  0.60561130131E+01  0.21233704537E+01  0.71022016267E+01  0.95721718987E+01  0.00000000000E+00 0. -1.
</event>
<event>
 8    1  0.1240174E-006  0.9118800E+02  0.7816164E-02  0.1184000E+00
        -11   -1    0    0    0    0  0.00000000000E+00  0.00000000000E+00  0.45593999997E+02  0.45594000000E+02  0.51100000000E-03 0.  1.
         11   -1    0    0    0    0 -0.00000000000E+00 -0.00000000000E+00 -0.45593999997E+02  0.45594000000E+02  0.51100000000E-03 0. -1.
         23    2    1    2    0    0 -0.66613381478E-15  0.35527136788E-14  0.00000000000E+00  0.91188000000E+02  0.91188000000E+02 0.  0.
    9900012    2    3    3    0    0  0.18872934667E+01  0.23966702527E+02 -0.27889335982E+02  0.54367085180E+02  0.40000002284E+02 0.  0.
        -12    1    3    3    0    0 -0.18872934667E+01 -0.23966702527E+02  0.27889335982E+02  0.36820914820E+02  0.00000000000E+00 0.  1.
         11    1    4    4    0    0  0.14533162938E+02  0.18434590073E+02 -0.21490887004E+02  0.31826171002E+02  0.51100000000E-03 0. -1.
        -11    1    4    4    0    0 -0.13842957916E+02  0.18750216817E+01  0.12029032284E+01  0.14021061536E+02  0.51100000000E-03 0.  1.
        -12    1    4    4    0    0  0.11970884442E+01  0.36570907727E+01 -0.76013522069E+01  0.85198526417E+01  0.00000000000E+00 0.  1.
</event>
<event>
 8    1  0.1240174E-006  0.9118800E+02  0.7816164E-02  0.1184000E+00
        -11   -1    0    0    0    0  0.00000000000E+00  0.00000000000E+00  0.45593999997E+02  0.45594000000E+02  0.51100000000E-03 0. -1.
         11   -1    0    0    0    0 -0.00000000000E+00 -0.00000000000E+00 -0.45593999997E+02  0.45594000000E+02  0.51100000000E-03 0.  1.
         23    2    1    2    0    0  0.00000000000E+00  0.00000000000E+00  0.00000000000E+00  0.91188000000E+02  0.91188000000E+02 0.  0.
    9900012    2    3    3    0    0  0.32669293325E+02 -0.80382606460E+01 -0.14962704704E+02  0.54367097069E+02  0.40000029389E+02 0.  0.
         12    1    3    3    0    0 -0.32669293325E+02  0.80382606460E+01  0.14962704704E+02  0.36820902931E+02  0.00000000000E+00 0. -1.
         11    1    4    4    0    0  0.14801132092E+02  0.90899080566E+01 -0.24502405385E+01  0.17541482795E+02  0.51100000000E-03 0. -1.
        -11    1    4    4    0    0  0.12251965766E+02  0.35381209057E+01 -0.76279473045E+01  0.14859829912E+02  0.51100000000E-03 0.  1.
        -12    1    4    4    0    0  0.56161954680E+01 -0.20666289608E+02 -0.48845168607E+01  0.21965784363E+02  0.00000000000E+00 0.  1.
</event>
<event>
 8    1  0.1240174E-006  0.9118800E+02  0.7816164E-02  0.1184000E+00
        -11   -1    0    0    0    0  0.00000000000E+00  0.00000000000E+00  0.45593999997E+02  0.45594000000E+02  0.51100000000E-03 0. -1.
         11   -1    0    0    0    0 -0.00000000000E+00 -0.00000000000E+00 -0.45593999997E+02  0.45594000000E+02  0.51100000000E-03 0.  1.
         23    2    1    2    0    0 -0.35527136788E-14 -0.17763568394E-14 -0.35527136788E-14  0.91188000000E+02  0.91188000000E+02 0.  0.
    9900012    2    3    3    0    0 -0.14152450757E+02 -0.13921480421E+02 -0.31010988839E+02  0.54367069698E+02  0.39999966991E+02 0.  0.
         12    1    3    3    0    0  0.14152450757E+02  0.13921480421E+02  0.31010988839E+02  0.36820930302E+02  0.00000000000E+00 0. -1.
         11    1    4    4    0    0 -0.40277778944E+01  0.81860771948E+01 -0.23250769630E+01  0.94149263275E+01  0.51100000000E-03 0. -1.
        -11    1    4    4    0    0 -0.16148903710E+02 -0.12880160724E+02 -0.93007305397E+01  0.22653680057E+02  0.51100000000E-03 0.  1.
         12    1    4    4    0    0  0.60242308472E+01 -0.92273968916E+01 -0.19385181336E+02  0.22298463313E+02  0.00000000000E+00 0. -1.
</event>
<event>
 8    1  0.1240174E-006  0.9118800E+02  0.7816164E-02  0.1184000E+00
        -11   -1    0    0    0    0  0.00000000000E+00  0.00000000000E+00  0.45593999997E+02  0.45594000000E+02  0.51100000000E-03 0.  1.
         11   -1    0    0    0    0 -0.00000000000E+00 -0.00000000000E+00 -0.45593999997E+02  0.45594000000E+02  0.51100000000E-03 0. -1.
         23    2    1    2    0    0  0.00000000000E+00 -0.35527136788E-14  0.00000000000E+00  0.91188000000E+02  0.91188000000E+02 0.  0.
    9900012    2    3    3    0    0  0.90905777444E+01 -0.17204191264E+02  0.31259507164E+02  0.54367087614E+02  0.40000007835E+02 0.  0.
         12    1    3    3    0    0 -0.90905777444E+01  0.17204191264E+02 -0.31259507164E+02  0.36820912386E+02  0.00000000000E+00 0. -1.
         11    1    4    4    0    0  0.14655659221E+02 -0.87743104933E+00  0.15397440537E+02  0.21275323917E+02  0.51100000000E-03 0.  1.
        -11    1    4    4    0    0 -0.31185156061E+01 -0.11822240547E+02 -0.37754228816E+01  0.12796262319E+02  0.51100000000E-03 0. -1.
         12    1    4    4    0    0 -0.24465658704E+01 -0.45045196676E+01  0.19637489509E+02  0.20295501379E+02  0.00000000000E+00 0. -1.
</event>
<event>
 8    1  0.1240174E-006  0.9118800E+02  0.7816164E-02  0.1184000E+00
        -11   -1    0    0    0    0  0.00000000000E+00  0.00000000000E+00  0.45593999997E+02  0.45594000000E+02  0.51100000000E-03 0.  1.
         11   -1    0    0    0    0 -0.00000000000E+00 -0.00000000000E+00 -0.45593999997E+02  0.45594000000E+02  0.51100000000E-03 0. -1.
         23    2    1    2    0    0 -0.35527136788E-14 -0.71054273576E-14  0.71054273576E-14  0.91188000000E+02  0.91188000000E+02 0.  0.
    9900012    2    3    3    0    0 -0.13191491727E+02 -0.26074871757E+02  0.22402354279E+02  0.54367083819E+02  0.39999999183E+02 0.  0.
         12    1    3    3    0    0  0.13191491727E+02  0.26074871757E+02 -0.22402354279E+02  0.36820916181E+02  0.00000000000E+00 0. -1.
         11    1    4    4    0    0  0.88794002462E+01 -0.73240960574E+01  0.78708438477E+00  0.11537141495E+02  0.51100000000E-03 0. -1.
        -11    1    4    4    0    0  0.39177520070E+01 -0.19414981944E+00  0.62814216355E+01  0.74055879554E+01  0.51100000000E-03 0.  1.
        -12    1    4    4    0    0 -0.25988643981E+02 -0.18556625880E+02  0.15333848259E+02  0.35424354369E+02  0.00000000000E+00 0.  1.
</event>
<event>
 8    1  0.1240174E-006  0.9118800E+02  0.7816164E-02  0.1184000E+00
        -11   -1    0    0    0    0  0.00000000000E+00  0.00000000000E+00  0.45593999997E+02  0.45594000000E+02  0.51100000000E-03 0.  1.
         11   -1    0    0    0    0 -0.00000000000E+00 -0.00000000000E+00 -0.45593999997E+02  0.45594000000E+02  0.51100000000E-03 0. -1.
         23    2    1    2    0    0  0.00000000000E+00  0.00000000000E+00  0.35527136788E-14  0.91188000000E+02  0.91188000000E+02 0.  0.
    9900012    2    3    3    0    0 -0.17716311109E+02 -0.11251897102E+02  0.30254043693E+02  0.54367081659E+02  0.39999994258E+02 0.  0.
         12    1    3    3    0    0  0.17716311109E+02  0.11251897102E+02 -0.30254043693E+02  0.36820918341E+02  0.00000000000E+00 0. -1.
         11    1    4    4    0    0 -0.25172951473E+02 -0.16856241657E+02  0.29312416539E+02  0.42154811496E+02  0.51100000000E-03 0. -1.
        -11    1    4    4    0    0  0.11421379897E+01  0.56971323733E+01  0.10050247398E+01  0.58967678821E+01  0.51100000000E-03 0.  1.
         12    1    4    4    0    0  0.63145023741E+01 -0.92787818482E-01 -0.63397585806E-01  0.63155022814E+01  0.00000000000E+00 0. -1.
</event>
<event>
 8    1  0.1240174E-006  0.9118800E+02  0.7816164E-02  0.1184000E+00
        -11   -1    0    0    0    0  0.00000000000E+00  0.00000000000E+00  0.45593999997E+02  0.45594000000E+02  0.51100000000E-03 0. -1.
         11   -1    0    0    0    0 -0.00000000000E+00 -0.00000000000E+00 -0.45593999997E+02  0.45594000000E+02  0.51100000000E-03 0.  1.
         23    2    1    2    0    0  0.00000000000E+00  0.00000000000E+00  0.17763568394E-14  0.91188000000E+02  0.91188000000E+02 0.  0.
    9900012    2    3    3    0    0 -0.29167308538E+02 -0.16425022854E+02  0.15338427229E+02  0.54367073708E+02  0.39999976132E+02 0.  0.
        -12    1    3    3    0    0  0.29167308538E+02  0.16425022854E+02 -0.15338427229E+02  0.36820926292E+02  0.00000000000E+00 0.  1.
         11    1    4    4    0    0 -0.56275425593E+01  0.46407751226E+01  0.40233357521E+01  0.83302616904E+01  0.51100000000E-03 0. -1.
        -11    1    4    4    0    0 -0.10071130289E+02 -0.63481758147E+01 -0.10926250081E+02  0.16158896700E+02  0.51100000000E-03 0.  1.
         12    1    4    4    0    0 -0.13468635690E+02 -0.14717622162E+02  0.22241341558E+02  0.29877915318E+02  0.00000000000E+00 0. -1.
</event>
<event>
 8    1  0.1240174E-006  0.9118800E+02  0.7816164E-02  0.1184000E+00
        -11   -1    0    0    0    0  0.00000000000E+00  0.00000000000E+00  0.45593999997E+02  0.45594000000E+02  0.51100000000E-03 0.  1.
         11   -1    0    0    0    0 -0.00000000000E+00 -0.00000000000E+00 -0.45593999997E+02  0.45594000000E+02  0.51100000000E-03 0. -1.
         23    2    1    2    0    0  0.00000000000E+00 -0.71054273576E-14 -0.35527136788E-14  0.91188000000E+02  0.91188000000E+02 0.  0.
    9900012    2    3    3    0    0  0.81499346323E+01  0.17607754062E+02  0.31294177522E+02  0.54367082243E+02  0.39999995590E+02 0.  0.
         12    1    3    3    0    0 -0.81499346323E+01 -0.17607754062E+02 -0.31294177522E+02  0.36820917757E+02  0.00000000000E+00 0. -1.
         11    1    4    4    0    0  0.57478690353E+01 -0.23361457756E+01  0.30844115388E+01  0.69288650105E+01  0.51100000000E-03 0. -1.
        -11    1    4    4    0    0  0.14177864275E+02  0.12102668699E+01  0.43095785626E+01  0.14867718351E+02  0.51100000000E-03 0.  1.
        -12    1    4    4    0    0 -0.11775798678E+02  0.18733632968E+02  0.23900187421E+02  0.32570498882E+02  0.00000000000E+00 0.  1.
</event>
<event>
 8    1  0.1240174E-006  0.9118800E+02  0.7816164E-02  0.1184000E+00
        -11   -1    0    0    0    0  0.00000000000E+00  0.00000000000E+00  0.45593999997E+02  0.45594000000E+02  0.51100000000E-03 0. -1.
         11   -1    0    0    0    0 -0.00000000000E+00 -0.00000000000E+00 -0.45593999997E+02  0.45594000000E+02  0.51100000000E-03 0.  1.
         23    2    1    2    0    0 -0.44408920985E-15  0.35527136788E-14  0.00000000000E+00  0.91188000000E+02  0.91188000000E+02 0.  0.
    9900012    2    3    3    0    0 -0.29685265512E+01 -0.31375965872E+02 -0.19039864751E+02  0.54367084286E+02  0.40000000247E+02 0.  0.
        -12    1    3    3    0    0  0.29685265512E+01  0.31375965872E+02  0.19039864751E+02  0.36820915714E+02  0.00000000000E+00 0.  1.
         11    1    4    4    0    0 -0.50323970657E+01 -0.10462972520E+02 -0.51364100104E+01  0.12695728504E+02  0.51100000000E-03 0. -1.
        -11    1    4    4    0    0 -0.69488076363E+01  0.68017874793E+01 -0.92136862259E+00  0.97672494019E+01  0.51100000000E-03 0.  1.
        -12    1    4    4    0    0  0.90126781507E+01 -0.27714780831E+02 -0.12982086118E+02  0.31904106380E+02  0.00000000000E+00 0.  1.
</event>
<event>
 8    1  0.1240174E-006  0.9118800E+02  0.7816164E-02  0.1184000E+00
        -11   -1    0    0    0    0  0.00000000000E+00  0.00000000000E+00  0.45593999997E+02  0.45594000000E+02  0.51100000000E-03 0.  1.
         11   -1    0    0    0    0 -0.00000000000E+00 -0.00000000000E+00 -0.45593999997E+02  0.45594000000E+02  0.51100000000E-03 0. -1.
         23    2    1    2    0    0 -0.88817841970E-15  0.00000000000E+00  0.10658141036E-13  0.91188000000E+02  0.91188000000E+02 0.  0.
    9900012    2    3    3    0    0  0.31685362278E+01  0.19828154759E+02  0.30863971653E+02  0.54367080821E+02  0.39999992349E+02 0.  0.
         12    1    3    3    0    0 -0.31685362278E+01 -0.19828154759E+02 -0.30863971653E+02  0.36820919179E+02  0.00000000000E+00 0. -1.
         11    1    4    4    0    0 -0.33130024481E+01 -0.89986918470E-02 -0.17887517522E+01  0.37650629861E+01  0.51100000000E-03 0. -1.
        -11    1    4    4    0    0 -0.65984055857E+01  0.28326654934E+01 -0.39352633475E+01  0.81883605163E+01  0.51100000000E-03 0.  1.
        -12    1    4    4    0    0  0.13079944262E+02  0.17004487958E+02  0.36587986752E+02  0.42413657319E+02  0.00000000000E+00 0.  1.
</event>
<event>
 8    1  0.1240174E-006  0.9118800E+02  0.7816164E-02  0.1184000E+00
        -11   -1    0    0    0    0  0.00000000000E+00  0.00000000000E+00  0.45593999997E+02  0.45594000000E+02  0.51100000000E-03 0. -1.
         11   -1    0    0    0    0 -0.00000000000E+00 -0.00000000000E+00 -0.45593999997E+02  0.45594000000E+02  0.51100000000E-03 0.  1.
         23    2    1    2    0    0  0.00000000000E+00  0.13322676296E-14 -0.35527136788E-14  0.91188000000E+02  0.91188000000E+02 0.  0.
    9900012    2    3    3    0    0 -0.19790683319E+02 -0.22246849629E+01  0.30970309198E+02  0.54367076312E+02  0.39999982068E+02 0.  0.
        -12    1    3    3    0    0  0.19790683319E+02  0.22246849629E+01 -0.30970309198E+02  0.36820923688E+02  0.00000000000E+00 0.  1.
         11    1    4    4    0    0 -0.38503437049E+01  0.71992201257E+01  0.27549329126E+02  0.28733594496E+02  0.51100000000E-03 0. -1.
        -11    1    4    4    0    0 -0.15026542793E+02 -0.10602436902E+02 -0.33561776257E+01  0.18694185863E+02  0.51100000000E-03 0.  1.
        -12    1    4    4    0    0 -0.91379682070E+00  0.11785318130E+01  0.67771576976E+01  0.69392959529E+01  0.00000000000E+00 0.  1.
</event>
<event>
 8    1  0.1240174E-006  0.9118800E+02  0.7816164E-02  0.1184000E+00
        -11   -1    0    0    0    0  0.00000000000E+00  0.00000000000E+00  0.45593999997E+02  0.45594000000E+02  0.51100000000E-03 0.  1.
         11   -1    0    0    0    0 -0.00000000000E+00 -0.00000000000E+00 -0.45593999997E+02  0.45594000000E+02  0.51100000000E-03 0. -1.
         23    2    1    2    0    0  0.00000000000E+00  0.88817841970E-15  0.35527136788E-14  0.91188000000E+02  0.91188000000E+02 0.  0.
    9900012    2    3    3    0    0  0.29268886866E+02  0.51571756852E+01 -0.21737423505E+02  0.54367085019E+02  0.40000001917E+02 0.  0.
         12    1    3    3    0    0 -0.29268886866E+02 -0.51571756852E+01  0.21737423505E+02  0.36820914981E+02  0.00000000000E+00 0. -1.
         11    1    4    4    0    0 -0.29509748179E+01 -0.61857164348E+01  0.31309422355E+00  0.68607119486E+01  0.51100000000E-03 0. -1.
        -11    1    4    4    0    0  0.13213507051E+01  0.90644774212E+01  0.51908396319E+00  0.91749750423E+01  0.51100000000E-03 0.  1.
        -12    1    4    4    0    0  0.30898510978E+02  0.22784146988E+01 -0.22569601692E+02  0.38331398028E+02  0.00000000000E+00 0.  1.
</event>
<event>
 8    1  0.1240174E-006  0.9118800E+02  0.7816164E-02  0.1184000E+00
        -11   -1    0    0    0    0  0.00000000000E+00  0.00000000000E+00  0.45593999997E+02  0.45594000000E+02  0.51100000000E-03 0. -1.
         11   -1    0    0    0    0 -0.00000000000E+00 -0.00000000000E+00 -0.45593999997E+02  0.45594000000E+02  0.51100000000E-03 0.  1.
         23    2    1    2    0    0  0.17763568394E-14  0.00000000000E+00 -0.35527136788E-14  0.91188000000E+02  0.91188000000E+02 0.  0.
    9900012    2    3    3    0    0  0.83121696362E+01  0.28822921790E+02 -0.21352484953E+02  0.54367060329E+02  0.39999945633E+02 0.  0.
         12    1    3    3    0    0 -0.83121696362E+01 -0.28822921790E+02  0.21352484953E+02  0.36820939671E+02  0.00000000000E+00 0. -1.
         11    1    4    4    0    0 -0.93054213119E+01  0.33997585280E+01 -0.24867789471E+01  0.10214367021E+02  0.51100000000E-03 0. -1.
        -11    1    4    4    0    0  0.12327406131E+02  0.39916429828E+01 -0.17846515191E+02  0.22054393221E+02  0.51100000000E-03 0.  1.
        -12    1    4    4    0    0  0.52901848169E+01  0.21431520279E+02 -0.10191908154E+01  0.22098300088E+02  0.00000000000E+00 0.  1.
</event>
<event>
 8    1  0.1240174E-006  0.9118800E+02  0.7816164E-02  0.1184000E+00
        -11   -1    0    0    0    0  0.00000000000E+00  0.00000000000E+00  0.45593999997E+02  0.45594000000E+02  0.51100000000E-03 0.  1.
         11   -1    0    0    0    0 -0.00000000000E+00 -0.00000000000E+00 -0.45593999997E+02  0.45594000000E+02  0.51100000000E-03 0. -1.
         23    2    1    2    0    0 -0.35527136788E-14  0.00000000000E+00  0.00000000000E+00  0.91188000000E+02  0.91188000000E+02 0.  0.
    9900012    2    3    3    0    0  0.20535988609E+02 -0.26761233549E+02  0.14761063078E+02  0.54367089740E+02  0.40000012680E+02 0.  0.
         12    1    3    3    0    0 -0.20535988609E+02  0.26761233549E+02 -0.14761063078E+02  0.36820910260E+02  0.00000000000E+00 0. -1.
         11    1    4    4    0    0 -0.81837904253E+01 -0.39005252269E+01  0.15967844319E+01  0.92053377751E+01  0.51100000000E-03 0. -1.
        -11    1    4    4    0    0  0.19518648172E+02 -0.70515286157E+01  0.16568409959E+02  0.26555863592E+02  0.51100000000E-03 0.  1.
         12    1    4    4    0    0  0.92011308618E+01 -0.15809179706E+02 -0.34041313135E+01  0.18605888372E+02  0.00000000000E+00 0. -1.
</event>
<event>
 8    1  0.1240174E-006  0.9118800E+02  0.7816164E-02  0.1184000E+00
        -11   -1    0    0    0    0  0.00000000000E+00  0.00000000000E+00  0.45593999997E+02  0.45594000000E+02  0.51100000000E-03 0. -1.
         11   -1    0    0    0    0 -0.00000000000E+00 -0.00000000000E+00 -0.45593999997E+02  0.45594000000E+02  0.51100000000E-03 0.  1.
         23    2    1    2    0    0 -0.22204460493E-15  0.00000000000E+00  0.00000000000E+00  0.91188000000E+02  0.91188000000E+02 0.  0.
    9900012    2    3    3    0    0  0.11006029823E+01 -0.33086907513E+02  0.16119083985E+02  0.54367086863E+02  0.40000006123E+02 0.  0.
        -12    1    3    3    0    0 -0.11006029823E+01  0.33086907513E+02 -0.16119083985E+02  0.36820913137E+02  0.00000000000E+00 0.  1.
         11    1    4    4    0    0 -0.12079475281E+00 -0.22114436326E+01 -0.10609665894E+02  0.10838361729E+02  0.51100000000E-03 0. -1.
        -11    1    4    4    0    0 -0.39136883018E+01 -0.82456175457E+01  0.14979188079E+01  0.92493743491E+01  0.51100000000E-03 0.  1.
         12    1    4    4    0    0  0.51350860370E+01 -0.22629846335E+02  0.25230831071E+02  0.34279350786E+02  0.00000000000E+00 0. -1.
</event>
<event>
 8    1  0.1240174E-006  0.9118800E+02  0.7816164E-02  0.1184000E+00
        -11   -1    0    0    0    0  0.00000000000E+00  0.00000000000E+00  0.45593999997E+02  0.45594000000E+02  0.51100000000E-03 0. -1.
         11   -1    0    0    0    0 -0.00000000000E+00 -0.00000000000E+00 -0.45593999997E+02  0.45594000000E+02  0.51100000000E-03 0.  1.
         23    2    1    2    0    0  0.00000000000E+00 -0.35527136788E-14  0.00000000000E+00  0.91188000000E+02  0.91188000000E+02 0.  0.
    9900012    2    3    3    0    0 -0.58718349978E+01 -0.29370311771E+02  0.21416965780E+02  0.54367080905E+02  0.39999992539E+02 0.  0.
        -12    1    3    3    0    0  0.58718349978E+01  0.29370311771E+02 -0.21416965780E+02  0.36820919095E+02  0.00000000000E+00 0.  1.
         11    1    4    4    0    0 -0.10658844564E+02 -0.52010382284E+01  0.15632936061E+02  0.19622702573E+02  0.51100000000E-03 0. -1.
        -11    1    4    4    0    0  0.14013822879E+02 -0.19122718223E+02  0.32810283880E+01  0.23933882499E+02  0.51100000000E-03 0.  1.
         12    1    4    4    0    0 -0.92268133129E+01 -0.50465553197E+01  0.25030013306E+01  0.10810495834E+02  0.00000000000E+00 0. -1.
</event>
<event>
 8    1  0.1240174E-006  0.9118800E+02  0.7816164E-02  0.1184000E+00
        -11   -1    0    0    0    0  0.00000000000E+00  0.00000000000E+00  0.45593999997E+02  0.45594000000E+02  0.51100000000E-03 0. -1.
         11   -1    0    0    0    0 -0.00000000000E+00 -0.00000000000E+00 -0.45593999997E+02  0.45594000000E+02  0.51100000000E-03 0.  1.
         23    2    1    2    0    0  0.00000000000E+00  0.71054273576E-14  0.17763568394E-14  0.91188000000E+02  0.91188000000E+02 0.  0.
    9900012    2    3    3    0    0  0.20330017269E+02  0.29735960379E+02  0.76316531176E+01  0.54367094645E+02  0.40000023863E+02 0.  0.
        -12    1    3    3    0    0 -0.20330017269E+02 -0.29735960379E+02 -0.76316531176E+01  0.36820905355E+02  0.00000000000E+00 0.  1.
         11    1    4    4    0    0  0.11875901597E+02 -0.17626865481E+01 -0.11755252334E+01  0.12063414212E+02  0.51100000000E-03 0. -1.
        -11    1    4    4    0    0 -0.28518112047E+01 -0.88668746967E+00 -0.45917618258E+01  0.54775285250E+01  0.51100000000E-03 0.  1.
        -12    1    4    4    0    0  0.11305926876E+02  0.32385334397E+02  0.13398940177E+02  0.36826151909E+02  0.00000000000E+00 0.  1.
</event>
<event>
 8    1  0.1240174E-006  0.9118800E+02  0.7816164E-02  0.1184000E+00
        -11   -1    0    0    0    0  0.00000000000E+00  0.00000000000E+00  0.45593999997E+02  0.45594000000E+02  0.51100000000E-03 0.  1.
         11   -1    0    0    0    0 -0.00000000000E+00 -0.00000000000E+00 -0.45593999997E+02  0.45594000000E+02  0.51100000000E-03 0. -1.
         23    2    1    2    0    0  0.00000000000E+00  0.00000000000E+00  0.00000000000E+00  0.91188000000E+02  0.91188000000E+02 0.  0.
    9900012    2    3    3    0    0  0.34709483540E+02  0.22286851058E+01 -0.12085675522E+02  0.54367097815E+02  0.40000031089E+02 0.  0.
        -12    1    3    3    0    0 -0.34709483540E+02 -0.22286851058E+01  0.12085675522E+02  0.36820902185E+02  0.00000000000E+00 0.  1.
         11    1    4    4    0    0  0.32462024861E+02  0.10601617233E+02 -0.21407849400E+02  0.40304756074E+02  0.51100000000E-03 0. -1.
        -11    1    4    4    0    0  0.37264771803E+01 -0.73908836750E+01  0.57657169018E+01  0.10087382481E+02  0.51100000000E-03 0.  1.
         12    1    4    4    0    0 -0.14790185016E+01 -0.98204845192E+00  0.35564569762E+01  0.39749592594E+01  0.00000000000E+00 0. -1.
</event>
<event>
 8    1  0.1240174E-006  0.9118800E+02  0.7816164E-02  0.1184000E+00
        -11   -1    0    0    0    0  0.00000000000E+00  0.00000000000E+00  0.45593999997E+02  0.45594000000E+02  0.51100000000E-03 0.  1.
         11   -1    0    0    0    0 -0.00000000000E+00 -0.00000000000E+00 -0.45593999997E+02  0.45594000000E+02  0.51100000000E-03 0. -1.
         23    2    1    2    0    0 -0.17763568394E-14  0.71054273576E-14  0.71054273576E-14  0.91188000000E+02  0.91188000000E+02 0.  0.
    9900012    2    3    3    0    0 -0.13992991544E+02  0.22809866917E+02  0.25292012454E+02  0.54367085629E+02  0.40000003308E+02 0.  0.
         12    1    3    3    0    0  0.13992991544E+02 -0.22809866917E+02 -0.25292012454E+02  0.36820914371E+02  0.00000000000E+00 0. -1.
         11    1    4    4    0    0 -0.41660838976E+01 -0.33726511815E+01 -0.21924443026E+01  0.57911866932E+01  0.51100000000E-03 0. -1.
        -11    1    4    4    0    0 -0.13894034263E+02  0.14911101809E+01  0.47283150290E+01  0.14752103611E+02  0.51100000000E-03 0.  1.
         12    1    4    4    0    0  0.40671266158E+01  0.24691407918E+02  0.22756141727E+02  0.33823795325E+02  0.00000000000E+00 0. -1.
</event>
<event>
 8    1  0.1240174E-006  0.9118800E+02  0.7816164E-02  0.1184000E+00
        -11   -1    0    0    0    0  0.00000000000E+00  0.00000000000E+00  0.45593999997E+02  0.45594000000E+02  0.51100000000E-03 0.  1.
         11   -1    0    0    0    0 -0.00000000000E+00 -0.00000000000E+00 -0.45593999997E+02  0.45594000000E+02  0.51100000000E-03 0. -1.
         23    2    1    2    0    0 -0.35527136788E-14  0.00000000000E+00  0.00000000000E+00  0.91188000000E+02  0.91188000000E+02 0.  0.
    9900012    2    3    3    0    0 -0.27491396558E+02 -0.12690060335E+02 -0.20951514333E+02  0.54367075665E+02  0.39999980594E+02 0.  0.
        -12    1    3    3    0    0  0.27491396558E+02  0.12690060335E+02  0.20951514333E+02  0.36820924335E+02  0.00000000000E+00 0.  1.
         11    1    4    4    0    0 -0.46165016085E+00 -0.11901627680E+01  0.79181301000E+01  0.80203736090E+01  0.51100000000E-03 0.  1.
        -11    1    4    4    0    0 -0.17150152824E+02  0.41188704002E+01 -0.16119074428E+02  0.23893877792E+02  0.51100000000E-03 0. -1.
         12    1    4    4    0    0 -0.98795935734E+01 -0.15618767967E+02 -0.12750570006E+02  0.22452824265E+02  0.00000000000E+00 0. -1.
</event>
<event>
 8    1  0.1240174E-006  0.9118800E+02  0.7816164E-02  0.1184000E+00
        -11   -1    0    0    0    0  0.00000000000E+00  0.00000000000E+00  0.45593999997E+02  0.45594000000E+02  0.51100000000E-03 0.  1.
         11   -1    0    0    0    0 -0.00000000000E+00 -0.00000000000E+00 -0.45593999997E+02  0.45594000000E+02  0.51100000000E-03 0. -1.
         23    2    1    2    0    0 -0.17763568394E-14  0.00000000000E+00  0.00000000000E+00  0.91188000000E+02  0.91188000000E+02 0.  0.
    9900012    2    3    3    0    0  0.11491401758E+02 -0.49312375043E+01 -0.34632497363E+02  0.54367091656E+02  0.40000017048E+02 0.  0.
        -12    1    3    3    0    0 -0.11491401758E+02  0.49312375043E+01  0.34632497363E+02  0.36820908344E+02  0.00000000000E+00 0.  1.
         11    1    4    4    0    0 -0.12578099562E+01 -0.59063521777E+01 -0.24926113339E+02  0.25647187144E+02  0.51100000000E-03 0. -1.
        -11    1    4    4    0    0  0.88217176377E+01  0.62382449632E+01 -0.16207809814E+02  0.19479001554E+02  0.51100000000E-03 0.  1.
         12    1    4    4    0    0  0.39274940764E+01 -0.52631302898E+01  0.65014257905E+01  0.92409029579E+01  0.00000000000E+00 0. -1.
</event>
<event>
 8    1  0.1240174E-006  0.9118800E+02  0.7816164E-02  0.1184000E+00
        -11   -1    0    0    0    0  0.00000000000E+00  0.00000000000E+00  0.45593999997E+02  0.45594000000E+02  0.51100000000E-03 0.  1.
         11   -1    0    0    0    0 -0.00000000000E+00 -0.00000000000E+00 -0.45593999997E+02  0.45594000000E+02  0.51100000000E-03 0. -1.
         23    2    1    2    0    0  0.00000000000E+00 -0.26645352591E-14  0.00000000000E+00  0.91188000000E+02  0.91188000000E+02 0.  0.
    9900012    2    3    3    0    0 -0.33832183917E+02  0.68201717795E+01 -0.12831531206E+02  0.54367087399E+02  0.40000007343E+02 0.  0.
        -12    1    3    3    0    0  0.33832183917E+02 -0.68201717795E+01  0.12831531206E+02  0.36820912601E+02  0.00000000000E+00 0.  1.
         11    1    4    4    0    0 -0.24948019385E+02 -0.72481543742E+01 -0.36331880847E+01  0.26232412565E+02  0.51100000000E-03 0. -1.
        -11    1    4    4    0    0  0.45639596831E+01 -0.24957264368E+01 -0.11222360234E+01  0.53214464565E+01  0.51100000000E-03 0.  1.
        -12    1    4    4    0    0 -0.13448124215E+02  0.16564052590E+02 -0.80761070974E+01  0.22813228377E+02  0.00000000000E+00 0.  1.
</event>
<event>
 8    1  0.1240174E-006  0.9118800E+02  0.7816164E-02  0.1184000E+00
        -11   -1    0    0    0    0  0.00000000000E+00  0.00000000000E+00  0.45593999997E+02  0.45594000000E+02  0.51100000000E-03 0. -1.
         11   -1    0    0    0    0 -0.00000000000E+00 -0.00000000000E+00 -0.45593999997E+02  0.45594000000E+02  0.51100000000E-03 0.  1.
         23    2    1    2    0    0  0.00000000000E+00  0.00000000000E+00  0.35527136788E-14  0.91188000000E+02  0.91188000000E+02 0.  0.
    9900012    2    3    3    0    0 -0.40123339762E+01 -0.23026375256E+02  0.28451148651E+02  0.54367073329E+02  0.39999975269E+02 0.  0.
        -12    1    3    3    0    0  0.40123339762E+01  0.23026375256E+02 -0.28451148651E+02  0.36820926671E+02  0.00000000000E+00 0.  1.
         11    1    4    4    0    0 -0.48690355527E+01 -0.26114821047E+02  0.11563003392E+02  0.28972304590E+02  0.51100000000E-03 0. -1.
        -11    1    4    4    0    0 -0.71936317445E+01  0.22797377027E+01  0.10622736291E+01  0.76206277427E+01  0.51100000000E-03 0.  1.
        -12    1    4    4    0    0  0.80503333210E+01  0.80870808887E+00  0.15825871629E+02  0.17774140997E+02  0.00000000000E+00 0.  1.
</event>
<event>
 8    1  0.1240174E-006  0.9118800E+02  0.7816164E-02  0.1184000E+00
        -11   -1    0    0    0    0  0.00000000000E+00  0.00000000000E+00  0.45593999997E+02  0.45594000000E+02  0.51100000000E-03 0.  1.
         11   -1    0    0    0    0 -0.00000000000E+00 -0.00000000000E+00 -0.45593999997E+02  0.45594000000E+02  0.51100000000E-03 0. -1.
         23    2    1    2    0    0  0.71054273576E-14 -0.88817841970E-15  0.00000000000E+00  0.91188000000E+02  0.91188000000E+02 0.  0.
    9900012    2    3    3    0    0  0.34605673465E+02 -0.79508663697E+01 -0.97473549761E+01  0.54367084191E+02  0.40000000031E+02 0.  0.
        -12    1    3    3    0    0 -0.34605673465E+02  0.79508663697E+01  0.97473549761E+01  0.36820915809E+02  0.00000000000E+00 0.  1.
         11    1    4    4    0    0  0.10476368179E+02 -0.99710806118E+01 -0.17315696701E+02  0.22561251988E+02  0.51100000000E-03 0. -1.
        -11    1    4    4    0    0  0.14925185658E+01 -0.35781272764E+01  0.75497886394E+01  0.84870439634E+01  0.51100000000E-03 0.  1.
        -12    1    4    4    0    0  0.22636786719E+02  0.55983415186E+01  0.18553085114E-01  0.23318788239E+02  0.00000000000E+00 0.  1.
</event>
<event>
 8    1  0.1240174E-006  0.9118800E+02  0.7816164E-02  0.1184000E+00
        -11   -1    0    0    0    0  0.00000000000E+00  0.00000000000E+00  0.45593999997E+02  0.45594000000E+02  0.51100000000E-03 0. -1.
         11   -1    0    0    0    0 -0.00000000000E+00 -0.00000000000E+00 -0.45593999997E+02  0.45594000000E+02  0.51100000000E-03 0.  1.
         23    2    1    2    0    0  0.35527136788E-14 -0.10658141036E-13  0.00000000000E+00  0.91188000000E+02  0.91188000000E+02 0.  0.
    9900012    2    3    3    0    0  0.22896443225E+02 -0.26253043165E+02  0.11929361098E+02  0.54367095015E+02  0.40000024705E+02 0.  0.
        -12    1    3    3    0    0 -0.22896443225E+02  0.26253043165E+02 -0.11929361098E+02  0.36820904985E+02  0.00000000000E+00 0.  1.
         11    1    4    4    0    0  0.78106572368E+01 -0.53270771382E+01 -0.12084271709E+02  0.15343198503E+02  0.51100000000E-03 0. -1.
        -11    1    4    4    0    0  0.91666799171E+00  0.28947149142E+01  0.21117142526E+01  0.36985121316E+01  0.51100000000E-03 0.  1.
         12    1    4    4    0    0  0.14169117996E+02 -0.23820680941E+02  0.21901918554E+02  0.35325384380E+02  0.00000000000E+00 0. -1.
</event>
<event>
 8    1  0.1240174E-006  0.9118800E+02  0.7816164E-02  0.1184000E+00
        -11   -1    0    0    0    0  0.00000000000E+00  0.00000000000E+00  0.45593999997E+02  0.45594000000E+02  0.51100000000E-03 0. -1.
         11   -1    0    0    0    0 -0.00000000000E+00 -0.00000000000E+00 -0.45593999997E+02  0.45594000000E+02  0.51100000000E-03 0.  1.
         23    2    1    2    0    0  0.00000000000E+00  0.00000000000E+00  0.00000000000E+00  0.91188000000E+02  0.91188000000E+02 0.  0.
    9900012    2    3    3    0    0  0.29479495921E+02 -0.17046320408E+02  0.14005838180E+02  0.54367065433E+02  0.39999957268E+02 0.  0.
        -12    1    3    3    0    0 -0.29479495921E+02  0.17046320408E+02 -0.14005838180E+02  0.36820934567E+02  0.00000000000E+00 0.  1.
         11    1    4    4    0    0  0.12825562927E+02 -0.13505332745E+02  0.20213986555E+02  0.27486257105E+02  0.51100000000E-03 0. -1.
        -11    1    4    4    0    0  0.15992455433E+02 -0.10336266158E+02 -0.62868166212E+01  0.20052957197E+02  0.51100000000E-03 0.  1.
        -12    1    4    4    0    0  0.66147756145E+00  0.67952784942E+01  0.78668246309E-01  0.68278511313E+01  0.00000000000E+00 0.  1.
</event>
<event>
 8    1  0.1240174E-006  0.9118800E+02  0.7816164E-02  0.1184000E+00
        -11   -1    0    0    0    0  0.00000000000E+00  0.00000000000E+00  0.45593999997E+02  0.45594000000E+02  0.51100000000E-03 0.  1.
         11   -1    0    0    0    0 -0.00000000000E+00 -0.00000000000E+00 -0.45593999997E+02  0.45594000000E+02  0.51100000000E-03 0. -1.
         23    2    1    2    0    0  0.00000000000E+00 -0.17763568394E-14 -0.35527136788E-14  0.91188000000E+02  0.91188000000E+02 0.  0.
    9900012    2    3    3    0    0  0.29937875198E+02  0.12420382265E+02  0.17471061920E+02  0.54367078344E+02  0.39999986700E+02 0.  0.
         12    1    3    3    0    0 -0.29937875198E+02 -0.12420382265E+02 -0.17471061920E+02  0.36820921656E+02  0.00000000000E+00 0. -1.
         11    1    4    4    0    0  0.43665651757E+01  0.95400931168E+01  0.55513565686E+01  0.11870039095E+02  0.51100000000E-03 0.  1.
        -11    1    4    4    0    0  0.10634061225E+02  0.98828501891E+01  0.19525464629E+02  0.24331003991E+02  0.51100000000E-03 0. -1.
         12    1    4    4    0    0  0.14937248798E+02 -0.70025610404E+01 -0.76057592775E+01  0.18166035257E+02  0.00000000000E+00 0. -1.
</event>
<event>
 8    1  0.1240174E-006  0.9118800E+02  0.7816164E-02  0.1184000E+00
        -11   -1    0    0    0    0  0.00000000000E+00  0.00000000000E+00  0.45593999997E+02  0.45594000000E+02  0.51100000000E-03 0.  1.
         11   -1    0    0    0    0 -0.00000000000E+00 -0.00000000000E+00 -0.45593999997E+02  0.45594000000E+02  0.51100000000E-03 0. -1.
         23    2    1    2    0    0  0.17763568394E-14  0.00000000000E+00  0.71054273576E-14  0.91188000000E+02  0.91188000000E+02 0.  0.
    9900012    2    3    3    0    0 -0.42647437063E+01  0.15826272844E+02  0.32971494617E+02  0.54367103647E+02  0.40000044384E+02 0.  0.
         12    1    3    3    0    0  0.42647437063E+01 -0.15826272844E+02 -0.32971494617E+02  0.36820896353E+02  0.00000000000E+00 0. -1.
         11    1    4    4    0    0  0.14276058794E+02  0.73536507753E+01  0.15119685284E+02  0.22056448440E+02  0.51100000000E-03 0. -1.
        -11    1    4    4    0    0 -0.11521914394E+02  0.28335545147E+01  0.19814739159E+02  0.23095614967E+02  0.51100000000E-03 0.  1.
         12    1    4    4    0    0 -0.70188881065E+01  0.56390675536E+01 -0.19629298264E+01  0.92150402403E+01  0.00000000000E+00 0. -1.
</event>
<event>
 8    1  0.1240174E-006  0.9118800E+02  0.7816164E-02  0.1184000E+00
        -11   -1    0    0    0    0  0.00000000000E+00  0.00000000000E+00  0.45593999997E+02  0.45594000000E+02  0.51100000000E-03 0. -1.
         11   -1    0    0    0    0 -0.00000000000E+00 -0.00000000000E+00 -0.45593999997E+02  0.45594000000E+02  0.51100000000E-03 0.  1.
         23    2    1    2    0    0  0.00000000000E+00  0.71054273576E-14  0.00000000000E+00  0.91188000000E+02  0.91188000000E+02 0.  0.
    9900012    2    3    3    0    0  0.16598174503E+02  0.32838717864E+02 -0.13825396754E+01  0.54366916315E+02  0.39999617321E+02 0.  0.
         12    1    3    3    0    0 -0.16598174503E+02 -0.32838717864E+02  0.13825396754E+01  0.36821083685E+02  0.00000000000E+00 0. -1.
         11    1    4    4    0    0  0.36594390790E+01 -0.20128905257E+00 -0.94115864792E-01  0.36661791708E+01  0.51100000000E-03 0. -1.
        -11    1    4    4    0    0  0.76635452275E+01 -0.68967122546E+01 -0.14872025832E+01  0.10416637517E+02  0.51100000000E-03 0.  1.
        -12    1    4    4    0    0  0.52751901968E+01  0.39936719171E+02  0.19877877255E+00  0.40284099627E+02  0.00000000000E+00 0.  1.
</event>
<event>
 8    1  0.1240174E-006  0.9118800E+02  0.7816164E-02  0.1184000E+00
        -11   -1    0    0    0    0  0.00000000000E+00  0.00000000000E+00  0.45593999997E+02  0.45594000000E+02  0.51100000000E-03 0.  1.
         11   -1    0    0    0    0 -0.00000000000E+00 -0.00000000000E+00 -0.45593999997E+02  0.45594000000E+02  0.51100000000E-03 0. -1.
         23    2    1    2    0    0  0.22204460493E-14  0.00000000000E+00 -0.35527136788E-14  0.91188000000E+02  0.91188000000E+02 0.  0.
    9900012    2    3    3    0    0 -0.20649727981E+01  0.23083095194E+02 -0.28612729311E+02  0.54367059287E+02  0.39999943257E+02 0.  0.
        -12    1    3    3    0    0  0.20649727981E+01 -0.23083095194E+02  0.28612729311E+02  0.36820940713E+02  0.00000000000E+00 0.  1.
         11    1    4    4    0    0 -0.11210952369E+02  0.28757852418E+02 -0.11675717040E+02  0.33000331777E+02  0.51100000000E-03 0. -1.
        -11    1    4    4    0    0  0.63753854168E+01  0.35957249349E+00 -0.83894439822E+01  0.10543130568E+02  0.51100000000E-03 0.  1.
         12    1    4    4    0    0  0.27705941543E+01 -0.60343297180E+01 -0.85475682881E+01  0.10823596942E+02  0.00000000000E+00 0. -1.
</event>
<event>
 8    1  0.1240174E-006  0.9118800E+02  0.7816164E-02  0.1184000E+00
        -11   -1    0    0    0    0  0.00000000000E+00  0.00000000000E+00  0.45593999997E+02  0.45594000000E+02  0.51100000000E-03 0.  1.
         11   -1    0    0    0    0 -0.00000000000E+00 -0.00000000000E+00 -0.45593999997E+02  0.45594000000E+02  0.51100000000E-03 0. -1.
         23    2    1    2    0    0  0.00000000000E+00 -0.35527136788E-14  0.00000000000E+00  0.91188000000E+02  0.91188000000E+02 0.  0.
    9900012    2    3    3    0    0  0.15973059230E+02  0.30794005100E+02 -0.12343844226E+02  0.54367083912E+02  0.39999999393E+02 0.  0.
        -12    1    3    3    0    0 -0.15973059230E+02 -0.30794005100E+02  0.12343844226E+02  0.36820916088E+02  0.00000000000E+00 0.  1.
         11    1    4    4    0    0  0.55617853027E+01  0.26431293152E+00 -0.62187921158E+01  0.83472565984E+01  0.51100000000E-03 0. -1.
        -11    1    4    4    0    0  0.66481793854E+01 -0.34524565470E+01  0.61509433246E+01  0.96928762188E+01  0.51100000000E-03 0.  1.
         12    1    4    4    0    0  0.37630945424E+01  0.33982148716E+02 -0.12275995435E+02  0.36326951094E+02  0.00000000000E+00 0. -1.
</event>
<event>
 8    1  0.1240174E-006  0.9118800E+02  0.7816164E-02  0.1184000E+00
        -11   -1    0    0    0    0  0.00000000000E+00  0.00000000000E+00  0.45593999997E+02  0.45594000000E+02  0.51100000000E-03 0. -1.
         11   -1    0    0    0    0 -0.00000000000E+00 -0.00000000000E+00 -0.45593999997E+02  0.45594000000E+02  0.51100000000E-03 0.  1.
         23    2    1    2    0    0  0.00000000000E+00 -0.22204460493E-14  0.88817841970E-15  0.91188000000E+02  0.91188000000E+02 0.  0.
    9900012    2    3    3    0    0  0.36676486262E+02  0.13292139052E+01  0.29746463508E+01  0.54367082371E+02  0.39999995880E+02 0.  0.
        -12    1    3    3    0    0 -0.36676486262E+02 -0.13292139052E+01 -0.29746463508E+01  0.36820917629E+02  0.00000000000E+00 0.  1.
         11    1    4    4    0    0  0.66381349539E+01  0.93110130958E+01  0.67405755899E+01  0.13273852496E+02  0.51100000000E-03 0. -1.
        -11    1    4    4    0    0  0.17565824825E+02 -0.15282027875E+02  0.55028131999E+01  0.23924454667E+02  0.51100000000E-03 0.  1.
        -12    1    4    4    0    0  0.12472526483E+02  0.73002286844E+01 -0.92687424391E+01  0.17168775208E+02  0.00000000000E+00 0.  1.
</event>
<event>
 8    1  0.1240174E-006  0.9118800E+02  0.7816164E-02  0.1184000E+00
        -11   -1    0    0    0    0  0.00000000000E+00  0.00000000000E+00  0.45593999997E+02  0.45594000000E+02  0.51100000000E-03 0.  1.
         11   -1    0    0    0    0 -0.00000000000E+00 -0.00000000000E+00 -0.45593999997E+02  0.45594000000E+02  0.51100000000E-03 0. -1.
         23    2    1    2    0    0  0.17763568394E-14  0.71054273576E-14 -0.35527136788E-14  0.91188000000E+02  0.91188000000E+02 0.  0.
    9900012    2    3    3    0    0 -0.13112052784E+02 -0.29495063011E+02  0.17716792661E+02  0.54367225804E+02  0.40000322863E+02 0.  0.
        -12    1    3    3    0    0  0.13112052784E+02  0.29495063011E+02 -0.17716792661E+02  0.36820774196E+02  0.00000000000E+00 0.  1.
         11    1    4    4    0    0 -0.33083876083E+01 -0.14331243116E+02 -0.26968168192E+01  0.14953353438E+02  0.51100000000E-03 0. -1.
        -11    1    4    4    0    0 -0.47400665980E+00 -0.13594131502E+02 -0.32015608440E+01  0.13974086221E+02  0.51100000000E-03 0.  1.
        -12    1    4    4    0    0 -0.93296585155E+01 -0.15696883933E+01  0.23615170324E+02  0.25439786145E+02  0.00000000000E+00 0.  1.
</event>
<event>
 8    1  0.1240174E-006  0.9118800E+02  0.7816164E-02  0.1184000E+00
        -11   -1    0    0    0    0  0.00000000000E+00  0.00000000000E+00  0.45593999997E+02  0.45594000000E+02  0.51100000000E-03 0.  1.
         11   -1    0    0    0    0 -0.00000000000E+00 -0.00000000000E+00 -0.45593999997E+02  0.45594000000E+02  0.51100000000E-03 0. -1.
         23    2    1    2    0    0  0.35527136788E-14  0.00000000000E+00  0.88817841970E-15  0.91188000000E+02  0.91188000000E+02 0.  0.
    9900012    2    3    3    0    0  0.18872831480E+02 -0.31003673223E+02  0.61942113031E+01  0.54367085087E+02  0.40000002073E+02 0.  0.
         12    1    3    3    0    0 -0.18872831480E+02  0.31003673223E+02 -0.61942113031E+01  0.36820914913E+02  0.00000000000E+00 0. -1.
         11    1    4    4    0    0  0.11269864483E+01 -0.18914677849E+01  0.13546612602E+02  0.13724374743E+02  0.51100000000E-03 0.  1.
        -11    1    4    4    0    0 -0.16995884368E+00 -0.33666607696E+01 -0.86155652592E+01  0.92515542339E+01  0.51100000000E-03 0. -1.
         12    1    4    4    0    0  0.17915803875E+02 -0.25745544668E+02  0.12631639608E+01  0.31391156110E+02  0.00000000000E+00 0. -1.
</event>
<event>
 8    1  0.1240174E-006  0.9118800E+02  0.7816164E-02  0.1184000E+00
        -11   -1    0    0    0    0  0.00000000000E+00  0.00000000000E+00  0.45593999997E+02  0.45594000000E+02  0.51100000000E-03 0.  1.
         11   -1    0    0    0    0 -0.00000000000E+00 -0.00000000000E+00 -0.45593999997E+02  0.45594000000E+02  0.51100000000E-03 0. -1.
         23    2    1    2    0    0  0.00000000000E+00 -0.35527136788E-14  0.00000000000E+00  0.91188000000E+02  0.91188000000E+02 0.  0.
    9900012    2    3    3    0    0 -0.10714494530E+02  0.19827109574E+02  0.29118129527E+02  0.54367080209E+02  0.39999990952E+02 0.  0.
         12    1    3    3    0    0  0.10714494530E+02 -0.19827109574E+02 -0.29118129527E+02  0.36820919791E+02  0.00000000000E+00 0. -1.
         11    1    4    4    0    0  0.16082349707E+01 -0.64702073417E+01 -0.27607615295E+00  0.66727970949E+01  0.51100000000E-03 0. -1.
        -11    1    4    4    0    0  0.59369293405E+01  0.14204625014E+02  0.93930019476E+01  0.18034605281E+02  0.51100000000E-03 0.  1.
        -12    1    4    4    0    0 -0.18259658841E+02  0.12092691902E+02  0.20001203733E+02  0.29659677833E+02  0.00000000000E+00 0.  1.
</event>
<event>
 8    1  0.1240174E-006  0.9118800E+02  0.7816164E-02  0.1184000E+00
        -11   -1    0    0    0    0  0.00000000000E+00  0.00000000000E+00  0.45593999997E+02  0.45594000000E+02  0.51100000000E-03 0. -1.
         11   -1    0    0    0    0 -0.00000000000E+00 -0.00000000000E+00 -0.45593999997E+02  0.45594000000E+02  0.51100000000E-03 0.  1.
         23    2    1    2    0    0  0.88817841970E-15  0.35527136788E-14 -0.35527136788E-14  0.91188000000E+02  0.91188000000E+02 0.  0.
    9900012    2    3    3    0    0 -0.27746522088E+01 -0.18683983166E+02 -0.31606799800E+02  0.54367085896E+02  0.40000003918E+02 0.  0.
         12    1    3    3    0    0  0.27746522088E+01  0.18683983166E+02  0.31606799800E+02  0.36820914104E+02  0.00000000000E+00 0. -1.
         11    1    4    4    0    0 -0.71193388769E+01 -0.56552874531E+01 -0.14931759495E+02  0.17482125274E+02  0.51100000000E-03 0. -1.
        -11    1    4    4    0    0  0.39676098184E+01  0.83675072044E+01 -0.11688108285E+02  0.14912041444E+02  0.51100000000E-03 0.  1.
        -12    1    4    4    0    0  0.37707684972E+00 -0.21396202918E+02 -0.49869320204E+01  0.21972919178E+02  0.00000000000E+00 0.  1.
</event>
<event>
 8    1  0.1240174E-006  0.9118800E+02  0.7816164E-02  0.1184000E+00
        -11   -1    0    0    0    0  0.00000000000E+00  0.00000000000E+00  0.45593999997E+02  0.45594000000E+02  0.51100000000E-03 0.  1.
         11   -1    0    0    0    0 -0.00000000000E+00 -0.00000000000E+00 -0.45593999997E+02  0.45594000000E+02  0.51100000000E-03 0. -1.
         23    2    1    2    0    0  0.00000000000E+00  0.00000000000E+00  0.00000000000E+00  0.91188000000E+02  0.91188000000E+02 0.  0.
    9900012    2    3    3    0    0  0.73538176800E+01  0.21637969491E+02 -0.28870392422E+02  0.54367083162E+02  0.39999997685E+02 0.  0.
        -12    1    3    3    0    0 -0.73538176800E+01 -0.21637969491E+02  0.28870392422E+02  0.36820916838E+02  0.00000000000E+00 0.  1.
         11    1    4    4    0    0 -0.96423179009E+00  0.20204284627E+02 -0.30334100546E+02  0.36459573728E+02  0.51100000000E-03 0. -1.
        -11    1    4    4    0    0  0.51686517019E+01  0.47424795971E+01  0.75447182879E+01  0.10301885626E+02  0.51100000000E-03 0.  1.
         12    1    4    4    0    0  0.31493977682E+01 -0.33087947337E+01 -0.60810101644E+01  0.76056238082E+01  0.00000000000E+00 0. -1.
</event>
<event>
 8    1  0.1240174E-006  0.9118800E+02  0.7816164E-02  0.1184000E+00
        -11   -1    0    0    0    0  0.00000000000E+00  0.00000000000E+00  0.45593999997E+02  0.45594000000E+02  0.51100000000E-03 0.  1.
         11   -1    0    0    0    0 -0.00000000000E+00 -0.00000000000E+00 -0.45593999997E+02  0.45594000000E+02  0.51100000000E-03 0. -1.
         23    2    1    2    0    0 -0.35527136788E-14  0.00000000000E+00 -0.17763568394E-14  0.91188000000E+02  0.91188000000E+02 0.  0.
    9900012    2    3    3    0    0 -0.19774739943E+02  0.27003539987E+02  0.15347544268E+02  0.54367100680E+02  0.40000037621E+02 0.  0.
         12    1    3    3    0    0  0.19774739943E+02 -0.27003539987E+02 -0.15347544268E+02  0.36820899320E+02  0.00000000000E+00 0. -1.
         11    1    4    4    0    0 -0.24374980441E+01 -0.16053479260E+01 -0.32149975032E+01  0.43422054172E+01  0.51100000000E-03 0. -1.
        -11    1    4    4    0    0  0.45687861295E+01  0.22782781407E+02  0.55579579577E+01  0.23891836101E+02  0.51100000000E-03 0.  1.
        -12    1    4    4    0    0 -0.21906028028E+02  0.58261065057E+01  0.13004583814E+02  0.26133059162E+02  0.00000000000E+00 0.  1.
</event>
<event>
 8    1  0.1240174E-006  0.9118800E+02  0.7816164E-02  0.1184000E+00
        -11   -1    0    0    0    0  0.00000000000E+00  0.00000000000E+00  0.45593999997E+02  0.45594000000E+02  0.51100000000E-03 0.  1.
         11   -1    0    0    0    0 -0.00000000000E+00 -0.00000000000E+00 -0.45593999997E+02  0.45594000000E+02  0.51100000000E-03 0. -1.
         23    2    1    2    0    0  0.00000000000E+00  0.00000000000E+00  0.00000000000E+00  0.91188000000E+02  0.91188000000E+02 0.  0.
    9900012    2    3    3    0    0 -0.76249602415E+01 -0.12380625068E+02  0.33828386415E+02  0.54367087148E+02  0.40000006772E+02 0.  0.
         12    1    3    3    0    0  0.76249602415E+01  0.12380625068E+02 -0.33828386415E+02  0.36820912852E+02  0.00000000000E+00 0. -1.
         11    1    4    4    0    0 -0.76368982109E+01 -0.14491841071E+02  0.24759900974E+02  0.29688185670E+02  0.51100000000E-03 0. -1.
        -11    1    4    4    0    0 -0.44898715015E+01  0.43116851486E+01  0.15396461386E+02  0.16607245358E+02  0.51100000000E-03 0.  1.
         12    1    4    4    0    0  0.45018094710E+01 -0.22004691459E+01 -0.63279759439E+01  0.80716561201E+01  0.00000000000E+00 0. -1.
</event>
<event>
 8    1  0.1240174E-006  0.9118800E+02  0.7816164E-02  0.1184000E+00
        -11   -1    0    0    0    0  0.00000000000E+00  0.00000000000E+00  0.45593999997E+02  0.45594000000E+02  0.51100000000E-03 0. -1.
         11   -1    0    0    0    0 -0.00000000000E+00 -0.00000000000E+00 -0.45593999997E+02  0.45594000000E+02  0.51100000000E-03 0.  1.
         23    2    1    2    0    0  0.00000000000E+00 -0.17763568394E-14 -0.71054273576E-14  0.91188000000E+02  0.91188000000E+02 0.  0.
    9900012    2    3    3    0    0  0.76016682466E+01  0.10858352597E+02  0.34352447613E+02  0.54367084228E+02  0.40000000115E+02 0.  0.
        -12    1    3    3    0    0 -0.76016682466E+01 -0.10858352597E+02 -0.34352447613E+02  0.36820915772E+02  0.00000000000E+00 0.  1.
         11    1    4    4    0    0  0.44348731838E+01  0.10058244598E+00  0.92200764515E+01  0.10231716719E+02  0.51100000000E-03 0. -1.
        -11    1    4    4    0    0  0.84035667725E+01 -0.41940129458E+01  0.26615262109E+02  0.28223781753E+02  0.51100000000E-03 0.  1.
        -12    1    4    4    0    0 -0.52367717097E+01  0.14951783097E+02 -0.14828909465E+01  0.15911585756E+02  0.00000000000E+00 0.  1.
</event>
<event>
 8    1  0.1240174E-006  0.9118800E+02  0.7816164E-02  0.1184000E+00
        -11   -1    0    0    0    0  0.00000000000E+00  0.00000000000E+00  0.45593999997E+02  0.45594000000E+02  0.51100000000E-03 0.  1.
         11   -1    0    0    0    0 -0.00000000000E+00 -0.00000000000E+00 -0.45593999997E+02  0.45594000000E+02  0.51100000000E-03 0. -1.
         23    2    1    2    0    0 -0.88817841970E-15  0.17763568394E-14  0.00000000000E+00  0.91188000000E+02  0.91188000000E+02 0.  0.
    9900012    2    3    3    0    0  0.62106619855E+01 -0.15195684804E+02 -0.32959012824E+02  0.54367113464E+02  0.40000066764E+02 0.  0.
        -12    1    3    3    0    0 -0.62106619855E+01  0.15195684804E+02  0.32959012824E+02  0.36820886536E+02  0.00000000000E+00 0.  1.
         11    1    4    4    0    0 -0.45448989927E+01 -0.10493172067E+02  0.40712925982E+01  0.12138294384E+02  0.51100000000E-03 0. -1.
        -11    1    4    4    0    0 -0.27970680975E+01  0.36435203104E+00 -0.18525122364E+02  0.18738636589E+02  0.51100000000E-03 0.  1.
        -12    1    4    4    0    0  0.13552629076E+02 -0.50668647682E+01 -0.18505183058E+02  0.23490182491E+02  0.00000000000E+00 0.  1.
</event>
<event>
 8    1  0.1240174E-006  0.9118800E+02  0.7816164E-02  0.1184000E+00
        -11   -1    0    0    0    0  0.00000000000E+00  0.00000000000E+00  0.45593999997E+02  0.45594000000E+02  0.51100000000E-03 0.  1.
         11   -1    0    0    0    0 -0.00000000000E+00 -0.00000000000E+00 -0.45593999997E+02  0.45594000000E+02  0.51100000000E-03 0. -1.
         23    2    1    2    0    0 -0.88817841970E-15 -0.35527136788E-14  0.00000000000E+00  0.91188000000E+02  0.91188000000E+02 0.  0.
    9900012    2    3    3    0    0  0.52576613527E+01  0.28532493067E+02 -0.22672305151E+02  0.54367087676E+02  0.40000007974E+02 0.  0.
        -12    1    3    3    0    0 -0.52576613527E+01 -0.28532493067E+02  0.22672305151E+02  0.36820912324E+02  0.00000000000E+00 0.  1.
         11    1    4    4    0    0 -0.20107495564E+01  0.13568884076E+02 -0.54413056764E+01  0.14756880991E+02  0.51100000000E-03 0. -1.
        -11    1    4    4    0    0  0.10829903488E+02  0.97432792150E+01  0.58359945463E+01  0.15693219301E+02  0.51100000000E-03 0.  1.
        -12    1    4    4    0    0 -0.35614925792E+01  0.52203297760E+01 -0.23066994021E+02  0.23916987384E+02  0.00000000000E+00 0.  1.
</event>
<event>
 8    1  0.1240174E-006  0.9118800E+02  0.7816164E-02  0.1184000E+00
        -11   -1    0    0    0    0  0.00000000000E+00  0.00000000000E+00  0.45593999997E+02  0.45594000000E+02  0.51100000000E-03 0. -1.
         11   -1    0    0    0    0 -0.00000000000E+00 -0.00000000000E+00 -0.45593999997E+02  0.45594000000E+02  0.51100000000E-03 0.  1.
         23    2    1    2    0    0  0.35527136788E-14 -0.35527136788E-14  0.22204460493E-15  0.91188000000E+02  0.91188000000E+02 0.  0.
    9900012    2    3    3    0    0 -0.28738509647E+02  0.22977652928E+02 -0.13803169570E+01  0.54367085486E+02  0.40000002982E+02 0.  0.
         12    1    3    3    0    0  0.28738509647E+02 -0.22977652928E+02  0.13803169570E+01  0.36820914514E+02  0.00000000000E+00 0. -1.
         11    1    4    4    0    0 -0.11284551839E+02  0.13467239759E+01  0.56777477670E+01  0.12703999199E+02  0.51100000000E-03 0. -1.
        -11    1    4    4    0    0 -0.85354200565E+01  0.16925925530E+02 -0.18447811777E+02  0.26451126823E+02  0.51100000000E-03 0.  1.
        -12    1    4    4    0    0 -0.89185377512E+01  0.47050034218E+01  0.11389747053E+02  0.15211959464E+02  0.00000000000E+00 0.  1.
</event>
<event>
 8    1  0.1240174E-006  0.9118800E+02  0.7816164E-02  0.1184000E+00
        -11   -1    0    0    0    0  0.00000000000E+00  0.00000000000E+00  0.45593999997E+02  0.45594000000E+02  0.51100000000E-03 0.  1.
         11   -1    0    0    0    0 -0.00000000000E+00 -0.00000000000E+00 -0.45593999997E+02  0.45594000000E+02  0.51100000000E-03 0. -1.
         23    2    1    2    0    0  0.35527136788E-14  0.00000000000E+00  0.00000000000E+00  0.91188000000E+02  0.91188000000E+02 0.  0.
    9900012    2    3    3    0    0 -0.23932347401E+02 -0.97118794636E+01 -0.26243094735E+02  0.54367110873E+02  0.40000060857E+02 0.  0.
         12    1    3    3    0    0  0.23932347401E+02  0.97118794636E+01  0.26243094735E+02  0.36820889127E+02  0.00000000000E+00 0. -1.
         11    1    4    4    0    0 -0.63755987147E+01  0.10021197141E+02 -0.66217990486E+01  0.13598561469E+02  0.51100000000E-03 0. -1.
        -11    1    4    4    0    0 -0.18163325089E+02 -0.71591853919E+01 -0.27465477083E+01  0.19715573498E+02  0.51100000000E-03 0.  1.
         12    1    4    4    0    0  0.60657640309E+00 -0.12573891213E+02 -0.16874747978E+02  0.21052975906E+02  0.00000000000E+00 0. -1.
</event>
<event>
 8    1  0.1240174E-006  0.9118800E+02  0.7816164E-02  0.1184000E+00
        -11   -1    0    0    0    0  0.00000000000E+00  0.00000000000E+00  0.45593999997E+02  0.45594000000E+02  0.51100000000E-03 0. -1.
         11   -1    0    0    0    0 -0.00000000000E+00 -0.00000000000E+00 -0.45593999997E+02  0.45594000000E+02  0.51100000000E-03 0.  1.
         23    2    1    2    0    0  0.00000000000E+00  0.00000000000E+00 -0.35527136788E-14  0.91188000000E+02  0.91188000000E+02 0.  0.
    9900012    2    3    3    0    0  0.26292547661E+02  0.13323988296E+02  0.22067020572E+02  0.54367080355E+02  0.39999991285E+02 0.  0.
        -12    1    3    3    0    0 -0.26292547661E+02 -0.13323988296E+02 -0.22067020572E+02  0.36820919645E+02  0.00000000000E+00 0.  1.
         11    1    4    4    0    0  0.67527541661E+01  0.15096600796E+02  0.22845513628E+02  0.28203271754E+02  0.51100000000E-03 0. -1.
        -11    1    4    4    0    0  0.11756710135E+02  0.48047640490E+01 -0.67191634446E+01  0.14368477596E+02  0.51100000000E-03 0.  1.
         12    1    4    4    0    0  0.77830833601E+01 -0.65773765497E+01  0.59406703880E+01  0.11795331005E+02  0.00000000000E+00 0. -1.
</event>
<event>
 8    1  0.1240174E-006  0.9118800E+02  0.7816164E-02  0.1184000E+00
        -11   -1    0    0    0    0  0.00000000000E+00  0.00000000000E+00  0.45593999997E+02  0.45594000000E+02  0.51100000000E-03 0.  1.
         11   -1    0    0    0    0 -0.00000000000E+00 -0.00000000000E+00 -0.45593999997E+02  0.45594000000E+02  0.51100000000E-03 0. -1.
         23    2    1    2    0    0  0.00000000000E+00  0.00000000000E+00 -0.35527136788E-14  0.91188000000E+02  0.91188000000E+02 0.  0.
    9900012    2    3    3    0    0 -0.12703930415E+02  0.17640308479E+02 -0.29718806507E+02  0.54367112023E+02  0.40000063479E+02 0.  0.
        -12    1    3    3    0    0  0.12703930415E+02 -0.17640308479E+02  0.29718806507E+02  0.36820887977E+02  0.00000000000E+00 0.  1.
         11    1    4    4    0    0  0.53599387067E+01  0.54739253495E+01  0.28054231215E+01  0.81586273860E+01  0.51100000000E-03 0.  1.
        -11    1    4    4    0    0 -0.18797359124E+02  0.15797538736E+02 -0.16076836949E+02  0.29349065176E+02  0.51100000000E-03 0. -1.
         12    1    4    4    0    0  0.73349000213E+00 -0.36311556066E+01 -0.16447392679E+02  0.16859419461E+02  0.00000000000E+00 0. -1.
</event>
<event>
 8    1  0.1240174E-006  0.9118800E+02  0.7816164E-02  0.1184000E+00
        -11   -1    0    0    0    0  0.00000000000E+00  0.00000000000E+00  0.45593999997E+02  0.45594000000E+02  0.51100000000E-03 0.  1.
         11   -1    0    0    0    0 -0.00000000000E+00 -0.00000000000E+00 -0.45593999997E+02  0.45594000000E+02  0.51100000000E-03 0. -1.
         23    2    1    2    0    0  0.00000000000E+00  0.00000000000E+00  0.17763568394E-14  0.91188000000E+02  0.91188000000E+02 0.  0.
    9900012    2    3    3    0    0 -0.35379403678E+02 -0.77181438189E+01  0.66714316651E+01  0.54367082724E+02  0.39999996685E+02 0.  0.
         12    1    3    3    0    0  0.35379403678E+02  0.77181438189E+01 -0.66714316651E+01  0.36820917276E+02  0.00000000000E+00 0. -1.
         11    1    4    4    0    0 -0.13093695500E+02  0.50999981234E+01 -0.50533982514E+01  0.14932905841E+02  0.51100000000E-03 0. -1.
        -11    1    4    4    0    0 -0.27354173999E+02 -0.61768953069E+01  0.13126497089E+02  0.30963039207E+02  0.51100000000E-03 0.  1.
        -12    1    4    4    0    0  0.50684658219E+01 -0.66412466353E+01 -0.14016671725E+01  0.84711376757E+01  0.00000000000E+00 0.  1.
</event>
<event>
 8    1  0.1240174E-006  0.9118800E+02  0.7816164E-02  0.1184000E+00
        -11   -1    0    0    0    0  0.00000000000E+00  0.00000000000E+00  0.45593999997E+02  0.45594000000E+02  0.51100000000E-03 0.  1.
         11   -1    0    0    0    0 -0.00000000000E+00 -0.00000000000E+00 -0.45593999997E+02  0.45594000000E+02  0.51100000000E-03 0. -1.
         23    2    1    2    0    0 -0.88817841970E-15  0.00000000000E+00  0.35527136788E-14  0.91188000000E+02  0.91188000000E+02 0.  0.
    9900012    2    3    3    0    0 -0.13079628517E+01  0.22639024910E+02 -0.29009369744E+02  0.54367085445E+02  0.40000002890E+02 0.  0.
        -12    1    3    3    0    0  0.13079628517E+01 -0.22639024910E+02  0.29009369744E+02  0.36820914555E+02  0.00000000000E+00 0.  1.
         11    1    4    4    0    0  0.35526978778E+01  0.13808466328E+02 -0.26808719081E+02  0.30364499396E+02  0.51100000000E-03 0. -1.
        -11    1    4    4    0    0  0.81407202946E+01  0.67694366631E+00 -0.28244832446E+01  0.86433376368E+01  0.51100000000E-03 0.  1.
        -12    1    4    4    0    0 -0.13001381024E+02  0.81536149153E+01  0.62383258116E+00  0.15359248413E+02  0.00000000000E+00 0.  1.
</event>
<event>
 8    1  0.1240174E-006  0.9118800E+02  0.7816164E-02  0.1184000E+00
        -11   -1    0    0    0    0  0.00000000000E+00  0.00000000000E+00  0.45593999997E+02  0.45594000000E+02  0.51100000000E-03 0.  1.
         11   -1    0    0    0    0 -0.00000000000E+00 -0.00000000000E+00 -0.45593999997E+02  0.45594000000E+02  0.51100000000E-03 0. -1.
         23    2    1    2    0    0  0.00000000000E+00  0.00000000000E+00  0.00000000000E+00  0.91188000000E+02  0.91188000000E+02 0.  0.
    9900012    2    3    3    0    0  0.33299371211E+02  0.12188914074E+02  0.99178133401E+01  0.54367071565E+02  0.39999971247E+02 0.  0.
         12    1    3    3    0    0 -0.33299371211E+02 -0.12188914074E+02 -0.99178133401E+01  0.36820928435E+02  0.00000000000E+00 0. -1.
         11    1    4    4    0    0  0.86762009383E+01 -0.10586729720E+02 -0.30566487405E+01  0.14024921058E+02  0.51100000000E-03 0. -1.
        -11    1    4    4    0    0  0.23716671383E+02  0.23271585518E+02  0.16192174305E+02  0.36962598704E+02  0.51100000000E-03 0.  1.
        -12    1    4    4    0    0  0.90649888958E+00 -0.49594172348E+00 -0.32177122242E+01  0.33795518028E+01  0.00000000000E+00 0.  1.
</event>
<event>
 8    1  0.1240174E-006  0.9118800E+02  0.7816164E-02  0.1184000E+00
        -11   -1    0    0    0    0  0.00000000000E+00  0.00000000000E+00  0.45593999997E+02  0.45594000000E+02  0.51100000000E-03 0. -1.
         11   -1    0    0    0    0 -0.00000000000E+00 -0.00000000000E+00 -0.45593999997E+02  0.45594000000E+02  0.51100000000E-03 0.  1.
         23    2    1    2    0    0  0.17763568394E-14  0.00000000000E+00  0.00000000000E+00  0.91188000000E+02  0.91188000000E+02 0.  0.
    9900012    2    3    3    0    0 -0.95083410800E+01 -0.25841161806E+02 -0.24445913242E+02  0.54367124565E+02  0.40000092070E+02 0.  0.
         12    1    3    3    0    0  0.95083410800E+01  0.25841161806E+02  0.24445913242E+02  0.36820875435E+02  0.00000000000E+00 0. -1.
         11    1    4    4    0    0  0.59097757698E+01 -0.15458711099E+02 -0.15745577546E+02  0.22843388781E+02  0.51100000000E-03 0. -1.
        -11    1    4    4    0    0 -0.90569078883E+01 -0.80748114821E+01 -0.16955276766E+02  0.20849737923E+02  0.51100000000E-03 0.  1.
         12    1    4    4    0    0 -0.63612089615E+01 -0.23076392258E+01  0.82549410706E+01  0.10673997861E+02  0.00000000000E+00 0. -1.
</event>
<event>
 8    1  0.1240174E-006  0.9118800E+02  0.7816164E-02  0.1184000E+00
        -11   -1    0    0    0    0  0.00000000000E+00  0.00000000000E+00  0.45593999997E+02  0.45594000000E+02  0.51100000000E-03 0.  1.
         11   -1    0    0    0    0 -0.00000000000E+00 -0.00000000000E+00 -0.45593999997E+02  0.45594000000E+02  0.51100000000E-03 0. -1.
         23    2    1    2    0    0  0.00000000000E+00  0.00000000000E+00  0.00000000000E+00  0.91188000000E+02  0.91188000000E+02 0.  0.
    9900012    2    3    3    0    0  0.12672246466E+02 -0.14966179088E+02 -0.31164207114E+02  0.54367079967E+02  0.39999990402E+02 0.  0.
        -12    1    3    3    0    0 -0.12672246466E+02  0.14966179088E+02  0.31164207114E+02  0.36820920033E+02  0.00000000000E+00 0.  1.
         11    1    4    4    0    0  0.19237937894E+02 -0.21914242609E+02 -0.23289241391E+02  0.37319178024E+02  0.51100000000E-03 0. -1.
        -11    1    4    4    0    0 -0.68043486527E+01  0.38382714332E+01  0.77711636777E+00  0.78508215043E+01  0.51100000000E-03 0.  1.
         12    1    4    4    0    0  0.23865722517E+00  0.31097920878E+01 -0.86520820909E+01  0.91970804394E+01  0.00000000000E+00 0. -1.
</event>
<event>
 8    1  0.1240174E-006  0.9118800E+02  0.7816164E-02  0.1184000E+00
        -11   -1    0    0    0    0  0.00000000000E+00  0.00000000000E+00  0.45593999997E+02  0.45594000000E+02  0.51100000000E-03 0. -1.
         11   -1    0    0    0    0 -0.00000000000E+00 -0.00000000000E+00 -0.45593999997E+02  0.45594000000E+02  0.51100000000E-03 0.  1.
         23    2    1    2    0    0  0.35527136788E-14  0.35527136788E-14  0.00000000000E+00  0.91188000000E+02  0.91188000000E+02 0.  0.
    9900012    2    3    3    0    0 -0.26888028813E+02 -0.21871955751E+02 -0.12427038466E+02  0.54367084383E+02  0.40000000469E+02 0.  0.
         12    1    3    3    0    0  0.26888028813E+02  0.21871955751E+02  0.12427038466E+02  0.36820915617E+02  0.00000000000E+00 0. -1.
         11    1    4    4    0    0 -0.27057893981E+00  0.17920543299E+01 -0.10502641855E+01  0.20946901452E+01  0.51100000000E-03 0. -1.
        -11    1    4    4    0    0 -0.28052889566E+02 -0.10016946408E+01 -0.88059639453E+01  0.29419602418E+02  0.51100000000E-03 0.  1.
        -12    1    4    4    0    0  0.14354396925E+01 -0.22662315440E+02 -0.25708103350E+01  0.22852791821E+02  0.00000000000E+00 0.  1.
</event>
<event>
 8    1  0.1240174E-006  0.9118800E+02  0.7816164E-02  0.1184000E+00
        -11   -1    0    0    0    0  0.00000000000E+00  0.00000000000E+00  0.45593999997E+02  0.45594000000E+02  0.51100000000E-03 0. -1.
         11   -1    0    0    0    0 -0.00000000000E+00 -0.00000000000E+00 -0.45593999997E+02  0.45594000000E+02  0.51100000000E-03 0.  1.
         23    2    1    2    0    0 -0.35527136788E-14  0.00000000000E+00  0.00000000000E+00  0.91188000000E+02  0.91188000000E+02 0.  0.
    9900012    2    3    3    0    0 -0.31180049606E+02  0.17612026812E+02 -0.85673574562E+01  0.54367101102E+02  0.40000038582E+02 0.  0.
         12    1    3    3    0    0  0.31180049606E+02 -0.17612026812E+02  0.85673574562E+01  0.36820898898E+02  0.00000000000E+00 0. -1.
         11    1    4    4    0    0 -0.46014690825E+00  0.13939272996E+01 -0.13317068589E+02  0.13397726843E+02  0.51100000000E-03 0. -1.
        -11    1    4    4    0    0 -0.16960271302E+02  0.19917545547E+02  0.75273563410E+00  0.26171091579E+02  0.51100000000E-03 0.  1.
         12    1    4    4    0    0 -0.13759631396E+02 -0.36994460340E+01  0.39969754991E+01  0.14798282679E+02  0.00000000000E+00 0. -1.
</event>
<event>
 8    1  0.1240174E-006  0.9118800E+02  0.7816164E-02  0.1184000E+00
        -11   -1    0    0    0    0  0.00000000000E+00  0.00000000000E+00  0.45593999997E+02  0.45594000000E+02  0.51100000000E-03 0. -1.
         11   -1    0    0    0    0 -0.00000000000E+00 -0.00000000000E+00 -0.45593999997E+02  0.45594000000E+02  0.51100000000E-03 0.  1.
         23    2    1    2    0    0 -0.35527136788E-14  0.35527136788E-14  0.00000000000E+00  0.91188000000E+02  0.91188000000E+02 0.  0.
    9900012    2    3    3    0    0  0.26702636061E+02 -0.22615162736E+02  0.11458127648E+02  0.54367285078E+02  0.40000457989E+02 0.  0.
        -12    1    3    3    0    0 -0.26702636061E+02  0.22615162736E+02 -0.11458127648E+02  0.36820714922E+02  0.00000000000E+00 0.  1.
         11    1    4    4    0    0  0.78358670331E+01 -0.11036312921E+02  0.24804864910E+02  0.28257429793E+02  0.51100000000E-03 0. -1.
        -11    1    4    4    0    0  0.99645848692E+01 -0.46591457793E+01 -0.50095736690E+01  0.12087035187E+02  0.51100000000E-03 0.  1.
         12    1    4    4    0    0  0.89021841585E+01 -0.69197040355E+01 -0.83371635922E+01  0.14022820098E+02  0.00000000000E+00 0. -1.
</event>
<event>
 8    1  0.1240174E-006  0.9118800E+02  0.7816164E-02  0.1184000E+00
        -11   -1    0    0    0    0  0.00000000000E+00  0.00000000000E+00  0.45593999997E+02  0.45594000000E+02  0.51100000000E-03 0. -1.
         11   -1    0    0    0    0 -0.00000000000E+00 -0.00000000000E+00 -0.45593999997E+02  0.45594000000E+02  0.51100000000E-03 0.  1.
         23    2    1    2    0    0 -0.88817841970E-15  0.00000000000E+00  0.00000000000E+00  0.91188000000E+02  0.91188000000E+02 0.  0.
    9900012    2    3    3    0    0  0.61002735062E+01 -0.22956938685E+02  0.28134401620E+02  0.54367096627E+02  0.40000028381E+02 0.  0.
        -12    1    3    3    0    0 -0.61002735062E+01  0.22956938685E+02 -0.28134401620E+02  0.36820903373E+02  0.00000000000E+00 0.  1.
         11    1    4    4    0    0  0.48429564539E+01 -0.11342433209E+01 -0.42509088864E+01  0.65430086159E+01  0.51100000000E-03 0. -1.
        -11    1    4    4    0    0  0.11345029079E+02 -0.19326101824E+01  0.51105861461E+01  0.12592170501E+02  0.51100000000E-03 0.  1.
         12    1    4    4    0    0 -0.10087712026E+02 -0.19890085182E+02  0.27274724361E+02  0.35231917510E+02  0.00000000000E+00 0. -1.
</event>
<event>
 8    1  0.1240174E-006  0.9118800E+02  0.7816164E-02  0.1184000E+00
        -11   -1    0    0    0    0  0.00000000000E+00  0.00000000000E+00  0.45593999997E+02  0.45594000000E+02  0.51100000000E-03 0. -1.
         11   -1    0    0    0    0 -0.00000000000E+00 -0.00000000000E+00 -0.45593999997E+02  0.45594000000E+02  0.51100000000E-03 0.  1.
         23    2    1    2    0    0  0.00000000000E+00 -0.11102230246E-14  0.00000000000E+00  0.91188000000E+02  0.91188000000E+02 0.  0.
    9900012    2    3    3    0    0 -0.26146113016E+02  0.10669095417E+01 -0.25904092938E+02  0.54367088105E+02  0.40000008954E+02 0.  0.
         12    1    3    3    0    0  0.26146113016E+02 -0.10669095417E+01  0.25904092938E+02  0.36820911895E+02  0.00000000000E+00 0. -1.
         11    1    4    4    0    0  0.33598853403E+01  0.63026020964E+01 -0.10177723475E+02  0.12433731462E+02  0.51100000000E-03 0. -1.
        -11    1    4    4    0    0 -0.21161156291E+00 -0.87135473529E+01 -0.69725031020E+01  0.11161831691E+02  0.51100000000E-03 0.  1.
         12    1    4    4    0    0 -0.29294386794E+02  0.34778547982E+01 -0.87538663609E+01  0.30771524952E+02  0.00000000000E+00 0. -1.
</event>
<event>
 8    1  0.1240174E-006  0.9118800E+02  0.7816164E-02  0.1184000E+00
        -11   -1    0    0    0    0  0.00000000000E+00  0.00000000000E+00  0.45593999997E+02  0.45594000000E+02  0.51100000000E-03 0. -1.
         11   -1    0    0    0    0 -0.00000000000E+00 -0.00000000000E+00 -0.45593999997E+02  0.45594000000E+02  0.51100000000E-03 0.  1.
         23    2    1    2    0    0  0.35527136788E-14  0.17763568394E-14  0.00000000000E+00  0.91188000000E+02  0.91188000000E+02 0.  0.
    9900012    2    3    3    0    0  0.21526601994E+02  0.15834901843E+02 -0.25330634844E+02  0.54367085136E+02  0.40000002184E+02 0.  0.
         12    1    3    3    0    0 -0.21526601994E+02 -0.15834901843E+02  0.25330634844E+02  0.36820914864E+02  0.00000000000E+00 0. -1.
         11    1    4    4    0    0  0.82598341425E+01  0.17251027608E+02  0.48056818057E+01  0.19720988603E+02  0.51100000000E-03 0. -1.
        -11    1    4    4    0    0  0.40216137682E+01 -0.56314390304E+01 -0.12843053203E+02  0.14588711344E+02  0.51100000000E-03 0.  1.
         12    1    4    4    0    0  0.92451540837E+01  0.42153132655E+01 -0.17293263447E+02  0.20057385188E+02  0.00000000000E+00 0. -1.
</event>
<event>
 8    1  0.1240174E-006  0.9118800E+02  0.7816164E-02  0.1184000E+00
        -11   -1    0    0    0    0  0.00000000000E+00  0.00000000000E+00  0.45593999997E+02  0.45594000000E+02  0.51100000000E-03 0.  1.
         11   -1    0    0    0    0 -0.00000000000E+00 -0.00000000000E+00 -0.45593999997E+02  0.45594000000E+02  0.51100000000E-03 0. -1.
         23    2    1    2    0    0  0.00000000000E+00  0.17763568394E-14  0.00000000000E+00  0.91188000000E+02  0.91188000000E+02 0.  0.
    9900012    2    3    3    0    0  0.34339913093E+02 -0.81238897274E+01  0.10514390773E+02  0.54367087072E+02  0.40000006598E+02 0.  0.
        -12    1    3    3    0    0 -0.34339913093E+02  0.81238897274E+01 -0.10514390773E+02  0.36820912928E+02  0.00000000000E+00 0.  1.
         11    1    4    4    0    0  0.73243427164E+01  0.89300398310E+01  0.11183028147E+02  0.16076433883E+02  0.51100000000E-03 0.  1.
        -11    1    4    4    0    0  0.21164357355E+02 -0.46985116397E+01 -0.75870213002E+01  0.22968868634E+02  0.51100000000E-03 0. -1.
        -12    1    4    4    0    0  0.58512130217E+01 -0.12355417919E+02  0.69183839264E+01  0.15321784554E+02  0.00000000000E+00 0.  1.
</event>
<event>
 8    1  0.1240174E-006  0.9118800E+02  0.7816164E-02  0.1184000E+00
        -11   -1    0    0    0    0  0.00000000000E+00  0.00000000000E+00  0.45593999997E+02  0.45594000000E+02  0.51100000000E-03 0. -1.
         11   -1    0    0    0    0 -0.00000000000E+00 -0.00000000000E+00 -0.45593999997E+02  0.45594000000E+02  0.51100000000E-03 0.  1.
         23    2    1    2    0    0  0.00000000000E+00  0.00000000000E+00  0.00000000000E+00  0.91188000000E+02  0.91188000000E+02 0.  0.
    9900012    2    3    3    0    0  0.24450497045E+02  0.25679814169E+02 -0.99246444456E+01  0.54367106083E+02  0.40000049936E+02 0.  0.
        -12    1    3    3    0    0 -0.24450497045E+02 -0.25679814169E+02  0.99246444456E+01  0.36820893917E+02  0.00000000000E+00 0.  1.
         11    1    4    4    0    0  0.85459692729E+00 -0.47788030675E+00  0.39930058558E+01  0.41113016821E+01  0.51100000000E-03 0. -1.
        -11    1    4    4    0    0  0.31511171563E+02  0.22382420110E+02 -0.14916065266E+02  0.41429647193E+02  0.51100000000E-03 0.  1.
        -12    1    4    4    0    0 -0.79152714460E+01  0.37752743666E+01  0.99841496471E+00  0.88261572073E+01  0.00000000000E+00 0.  1.
</event>
<event>
 8    1  0.1240174E-006  0.9118800E+02  0.7816164E-02  0.1184000E+00
        -11   -1    0    0    0    0  0.00000000000E+00  0.00000000000E+00  0.45593999997E+02  0.45594000000E+02  0.51100000000E-03 0.  1.
         11   -1    0    0    0    0 -0.00000000000E+00 -0.00000000000E+00 -0.45593999997E+02  0.45594000000E+02  0.51100000000E-03 0. -1.
         23    2    1    2    0    0 -0.35527136788E-14  0.35527136788E-14  0.44408920985E-15  0.91188000000E+02  0.91188000000E+02 0.  0.
    9900012    2    3    3    0    0 -0.27801074258E+02  0.23994795513E+02 -0.26699229127E+01  0.54367103351E+02  0.40000043710E+02 0.  0.
         12    1    3    3    0    0  0.27801074258E+02 -0.23994795513E+02  0.26699229127E+01  0.36820896649E+02  0.00000000000E+00 0. -1.
         11    1    4    4    0    0 -0.18487186342E+01 -0.29684547160E+01 -0.87657431086E+01  0.94375704764E+01  0.51100000000E-03 0. -1.
        -11    1    4    4    0    0 -0.26444020301E+02  0.30412126484E+02  0.32514735657E+01  0.40432112578E+02  0.51100000000E-03 0.  1.
        -12    1    4    4    0    0  0.49166467690E+00 -0.34488762543E+01  0.28443466302E+01  0.44974202967E+01  0.00000000000E+00 0.  1.
</event>
<event>
 8    1  0.1240174E-006  0.9118800E+02  0.7816164E-02  0.1184000E+00
        -11   -1    0    0    0    0  0.00000000000E+00  0.00000000000E+00  0.45593999997E+02  0.45594000000E+02  0.51100000000E-03 0.  1.
         11   -1    0    0    0    0 -0.00000000000E+00 -0.00000000000E+00 -0.45593999997E+02  0.45594000000E+02  0.51100000000E-03 0. -1.
         23    2    1    2    0    0  0.00000000000E+00  0.55511151231E-15  0.71054273576E-14  0.91188000000E+02  0.91188000000E+02 0.  0.
    9900012    2    3    3    0    0 -0.55354152609E+01  0.40898059061E+00 -0.36400149923E+02  0.54367095589E+02  0.40000026013E+02 0.  0.
        -12    1    3    3    0    0  0.55354152609E+01 -0.40898059061E+00  0.36400149923E+02  0.36820904411E+02  0.00000000000E+00 0.  1.
         11    1    4    4    0    0  0.19208324751E+01  0.26345887791E-01 -0.46422158395E+01  0.50239884221E+01  0.51100000000E-03 0. -1.
        -11    1    4    4    0    0 -0.49043385846E+01  0.94093042868E+01  0.47673513595E+01  0.11632505464E+02  0.51100000000E-03 0.  1.
         12    1    4    4    0    0 -0.25519091513E+01 -0.90266695840E+01 -0.36525285443E+02  0.37710601703E+02  0.00000000000E+00 0. -1.
</event>
<event>
 8    1  0.1240174E-006  0.9118800E+02  0.7816164E-02  0.1184000E+00
        -11   -1    0    0    0    0  0.00000000000E+00  0.00000000000E+00  0.45593999997E+02  0.45594000000E+02  0.51100000000E-03 0. -1.
         11   -1    0    0    0    0 -0.00000000000E+00 -0.00000000000E+00 -0.45593999997E+02  0.45594000000E+02  0.51100000000E-03 0.  1.
         23    2    1    2    0    0  0.00000000000E+00  0.00000000000E+00 -0.71054273576E-14  0.91188000000E+02  0.91188000000E+02 0.  0.
    9900012    2    3    3    0    0  0.11896037718E+02  0.68487409121E+01 -0.34166585980E+02  0.54367128704E+02  0.40000101507E+02 0.  0.
         12    1    3    3    0    0 -0.11896037718E+02 -0.68487409121E+01  0.34166585980E+02  0.36820871296E+02  0.00000000000E+00 0. -1.
         11    1    4    4    0    0  0.98547957823E+01  0.14728575009E+02 -0.38544120082E+01  0.18135722039E+02  0.51100000000E-03 0. -1.
        -11    1    4    4    0    0  0.62036832206E+01 -0.14666400878E+01 -0.27266090077E+02  0.28001364020E+02  0.51100000000E-03 0.  1.
         12    1    4    4    0    0 -0.41624412845E+01 -0.64131940088E+01 -0.30460838950E+01  0.82300426449E+01  0.00000000000E+00 0. -1.
</event>
<event>
 8    1  0.1240174E-006  0.9118800E+02  0.7816164E-02  0.1184000E+00
        -11   -1    0    0    0    0  0.00000000000E+00  0.00000000000E+00  0.45593999997E+02  0.45594000000E+02  0.51100000000E-03 0.  1.
         11   -1    0    0    0    0 -0.00000000000E+00 -0.00000000000E+00 -0.45593999997E+02  0.45594000000E+02  0.51100000000E-03 0. -1.
         23    2    1    2    0    0 -0.35527136788E-14  0.35527136788E-14 -0.22204460493E-15  0.91188000000E+02  0.91188000000E+02 0.  0.
    9900012    2    3    3    0    0 -0.26526146005E+02  0.25522467472E+02 -0.86583126507E+00  0.54367049014E+02  0.39999919838E+02 0.  0.
         12    1    3    3    0    0  0.26526146005E+02 -0.25522467472E+02  0.86583126507E+00  0.36820950986E+02  0.00000000000E+00 0. -1.
         11    1    4    4    0    0  0.79347305628E+00  0.73576443173E+01  0.22354141807E+01  0.77305631238E+01  0.51100000000E-03 0. -1.
        -11    1    4    4    0    0  0.82631826827E+00  0.15333114370E+02  0.66243110288E+01  0.16723297971E+02  0.51100000000E-03 0.  1.
         12    1    4    4    0    0 -0.28145937329E+02  0.28317087848E+01 -0.97255564746E+01  0.29913187920E+02  0.00000000000E+00 0. -1.
</event>
<event>
 8    1  0.1240174E-006  0.9118800E+02  0.7816164E-02  0.1184000E+00
        -11   -1    0    0    0    0  0.00000000000E+00  0.00000000000E+00  0.45593999997E+02  0.45594000000E+02  0.51100000000E-03 0. -1.
         11   -1    0    0    0    0 -0.00000000000E+00 -0.00000000000E+00 -0.45593999997E+02  0.45594000000E+02  0.51100000000E-03 0.  1.
         23    2    1    2    0    0 -0.35527136788E-14  0.88817841970E-15  0.00000000000E+00  0.91188000000E+02  0.91188000000E+02 0.  0.
    9900012    2    3    3    0    0  0.17493157963E+02  0.57876292733E+01  0.31879012526E+02  0.54367100123E+02  0.40000036350E+02 0.  0.
        -12    1    3    3    0    0 -0.17493157963E+02 -0.57876292733E+01 -0.31879012526E+02  0.36820899877E+02  0.00000000000E+00 0.  1.
         11    1    4    4    0    0  0.19009184648E+02 -0.86445509784E+01  0.26844900411E+02  0.34010675396E+02  0.51100000000E-03 0. -1.
        -11    1    4    4    0    0 -0.22151685075E+01  0.14219678454E+02  0.85674246681E+01  0.16748342979E+02  0.51100000000E-03 0.  1.
        -12    1    4    4    0    0  0.69914182286E+00  0.21250179811E+00 -0.35333125526E+01  0.36080817475E+01  0.00000000000E+00 0.  1.
</event>
<event>
 8    1  0.1240174E-006  0.9118800E+02  0.7816164E-02  0.1184000E+00
        -11   -1    0    0    0    0  0.00000000000E+00  0.00000000000E+00  0.45593999997E+02  0.45594000000E+02  0.51100000000E-03 0.  1.
         11   -1    0    0    0    0 -0.00000000000E+00 -0.00000000000E+00 -0.45593999997E+02  0.45594000000E+02  0.51100000000E-03 0. -1.
         23    2    1    2    0    0  0.00000000000E+00  0.00000000000E+00  0.71054273576E-14  0.91188000000E+02  0.91188000000E+02 0.  0.
    9900012    2    3    3    0    0  0.16701260953E+02  0.20084106181E+02  0.25951386854E+02  0.54367110302E+02  0.40000059556E+02 0.  0.
         12    1    3    3    0    0 -0.16701260953E+02 -0.20084106181E+02 -0.25951386854E+02  0.36820889698E+02  0.00000000000E+00 0. -1.
         11    1    4    4    0    0 -0.79007130577E+00  0.23233636404E+01  0.18730661312E+01  0.30871683250E+01  0.51100000000E-03 0. -1.
        -11    1    4    4    0    0  0.80440310092E+01  0.33908599489E+01  0.31398611214E+02  0.32589525196E+02  0.51100000000E-03 0.  1.
         12    1    4    4    0    0  0.94473012497E+01  0.14369882591E+02 -0.73202904913E+01  0.18690416782E+02  0.00000000000E+00 0. -1.
</event>
<event>
 8    1  0.1240174E-006  0.9118800E+02  0.7816164E-02  0.1184000E+00
        -11   -1    0    0    0    0  0.00000000000E+00  0.00000000000E+00  0.45593999997E+02  0.45594000000E+02  0.51100000000E-03 0. -1.
         11   -1    0    0    0    0 -0.00000000000E+00 -0.00000000000E+00 -0.45593999997E+02  0.45594000000E+02  0.51100000000E-03 0.  1.
         23    2    1    2    0    0 -0.88817841970E-15  0.00000000000E+00 -0.88817841970E-15  0.91188000000E+02  0.91188000000E+02 0.  0.
    9900012    2    3    3    0    0  0.66450199610E+01 -0.36179501982E+02 -0.16335526443E+01  0.54367066440E+02  0.39999959564E+02 0.  0.
         12    1    3    3    0    0 -0.66450199610E+01  0.36179501982E+02  0.16335526443E+01  0.36820933560E+02  0.00000000000E+00 0. -1.
         11    1    4    4    0    0  0.36525259618E+00  0.29814274511E+01 -0.11907748990E+02  0.12280749382E+02  0.51100000000E-03 0. -1.
        -11    1    4    4    0    0  0.23926307482E+01 -0.19648698148E+01  0.22744332417E+01  0.38416717869E+01  0.51100000000E-03 0.  1.
        -12    1    4    4    0    0  0.38871366166E+01 -0.37196059618E+02  0.79997631044E+01  0.38244645272E+02  0.00000000000E+00 0.  1.
</event>
<event>
 8    1  0.1240174E-006  0.9118800E+02  0.7816164E-02  0.1184000E+00
        -11   -1    0    0    0    0  0.00000000000E+00  0.00000000000E+00  0.45593999997E+02  0.45594000000E+02  0.51100000000E-03 0.  1.
         11   -1    0    0    0    0 -0.00000000000E+00 -0.00000000000E+00 -0.45593999997E+02  0.45594000000E+02  0.51100000000E-03 0. -1.
         23    2    1    2    0    0  0.00000000000E+00 -0.44408920985E-15 -0.17763568394E-14  0.91188000000E+02  0.91188000000E+02 0.  0.
    9900012    2    3    3    0    0 -0.36263595758E+02 -0.21056994980E+01  0.60244810114E+01  0.54367126584E+02  0.40000096674E+02 0.  0.
         12    1    3    3    0    0  0.36263595758E+02  0.21056994980E+01 -0.60244810114E+01  0.36820873416E+02  0.00000000000E+00 0. -1.
         11    1    4    4    0    0  0.39755359233E+01  0.39551760297E+01 -0.24951015289E+01  0.61379015310E+01  0.51100000000E-03 0. -1.
        -11    1    4    4    0    0 -0.97111303274E+01 -0.78808154830E+01 -0.65696855542E+01  0.14127068820E+02  0.51100000000E-03 0.  1.
        -12    1    4    4    0    0 -0.30528001354E+02  0.18199399553E+01  0.15089268094E+02  0.34102156233E+02  0.00000000000E+00 0.  1.
</event>
<event>
 8    1  0.1240174E-006  0.9118800E+02  0.7816164E-02  0.1184000E+00
        -11   -1    0    0    0    0  0.00000000000E+00  0.00000000000E+00  0.45593999997E+02  0.45594000000E+02  0.51100000000E-03 0. -1.
         11   -1    0    0    0    0 -0.00000000000E+00 -0.00000000000E+00 -0.45593999997E+02  0.45594000000E+02  0.51100000000E-03 0.  1.
         23    2    1    2    0    0  0.17763568394E-14 -0.35527136788E-14  0.00000000000E+00  0.91188000000E+02  0.91188000000E+02 0.  0.
    9900012    2    3    3    0    0  0.11731608616E+02 -0.21853733215E+02  0.27213562749E+02  0.54366887936E+02  0.39999552624E+02 0.  0.
        -12    1    3    3    0    0 -0.11731608616E+02  0.21853733215E+02 -0.27213562749E+02  0.36821112064E+02  0.00000000000E+00 0.  1.
         11    1    4    4    0    0  0.16720752051E+02 -0.29824332998E+02  0.25992178080E+02  0.42949594987E+02  0.51100000000E-03 0. -1.
        -11    1    4    4    0    0 -0.46757492427E+01  0.32988894483E+01  0.29352728024E+01  0.64312618714E+01  0.51100000000E-03 0.  1.
         12    1    4    4    0    0 -0.31339419228E+00  0.46717103347E+01 -0.17138881333E+01  0.49860310773E+01  0.00000000000E+00 0. -1.
</event>
<event>
 8    1  0.1240174E-006  0.9118800E+02  0.7816164E-02  0.1184000E+00
        -11   -1    0    0    0    0  0.00000000000E+00  0.00000000000E+00  0.45593999997E+02  0.45594000000E+02  0.51100000000E-03 0. -1.
         11   -1    0    0    0    0 -0.00000000000E+00 -0.00000000000E+00 -0.45593999997E+02  0.45594000000E+02  0.51100000000E-03 0.  1.
         23    2    1    2    0    0  0.00000000000E+00  0.35527136788E-14  0.00000000000E+00  0.91188000000E+02  0.91188000000E+02 0.  0.
    9900012    2    3    3    0    0 -0.30634226912E+02 -0.16464927356E+02 -0.12092595776E+02  0.54367074374E+02  0.39999977651E+02 0.  0.
        -12    1    3    3    0    0  0.30634226912E+02  0.16464927356E+02  0.12092595776E+02  0.36820925626E+02  0.00000000000E+00 0.  1.
         11    1    4    4    0    0 -0.72121366019E+01  0.95921787949E-02  0.89930664250E+01  0.11527803362E+02  0.51100000000E-03 0. -1.
        -11    1    4    4    0    0 -0.72884746711E+01 -0.46853891462E+01  0.49815557885E+01  0.99945301449E+01  0.51100000000E-03 0.  1.
        -12    1    4    4    0    0 -0.16133615639E+02 -0.11789130389E+02 -0.26067217989E+02  0.32844740867E+02  0.00000000000E+00 0.  1.
</event>
<event>
 8    1  0.1240174E-006  0.9118800E+02  0.7816164E-02  0.1184000E+00
        -11   -1    0    0    0    0  0.00000000000E+00  0.00000000000E+00  0.45593999997E+02  0.45594000000E+02  0.51100000000E-03 0.  1.
         11   -1    0    0    0    0 -0.00000000000E+00 -0.00000000000E+00 -0.45593999997E+02  0.45594000000E+02  0.51100000000E-03 0. -1.
         23    2    1    2    0    0  0.00000000000E+00  0.00000000000E+00  0.71054273576E-14  0.91188000000E+02  0.91188000000E+02 0.  0.
    9900012    2    3    3    0    0  0.12602351119E+02 -0.16484138991E+02  0.30417655595E+02  0.54367083880E+02  0.39999999322E+02 0.  0.
         12    1    3    3    0    0 -0.12602351119E+02  0.16484138991E+02 -0.30417655595E+02  0.36820916120E+02  0.00000000000E+00 0. -1.
         11    1    4    4    0    0 -0.97657273280E+01 -0.51734803952E+01  0.15456981114E+01  0.11159010375E+02  0.51100000000E-03 0. -1.
        -11    1    4    4    0    0 -0.26460945502E+01  0.23039453039E+01  0.46242832802E+01  0.58046512771E+01  0.51100000000E-03 0.  1.
         12    1    4    4    0    0  0.25014172997E+02 -0.13614603900E+02  0.24247674204E+02  0.37403422228E+02  0.00000000000E+00 0. -1.
</event>
<event>
 8    1  0.1240174E-006  0.9118800E+02  0.7816164E-02  0.1184000E+00
        -11   -1    0    0    0    0  0.00000000000E+00  0.00000000000E+00  0.45593999997E+02  0.45594000000E+02  0.51100000000E-03 0. -1.
         11   -1    0    0    0    0 -0.00000000000E+00 -0.00000000000E+00 -0.45593999997E+02  0.45594000000E+02  0.51100000000E-03 0.  1.
         23    2    1    2    0    0 -0.13322676296E-14  0.22204460493E-15  0.00000000000E+00  0.91188000000E+02  0.91188000000E+02 0.  0.
    9900012    2    3    3    0    0 -0.25170405318E+01 -0.10308135969E+01  0.36720315129E+02  0.54367087288E+02  0.40000007091E+02 0.  0.
        -12    1    3    3    0    0  0.25170405318E+01  0.10308135969E+01 -0.36720315129E+02  0.36820912712E+02  0.00000000000E+00 0.  1.
         11    1    4    4    0    0  0.41621539344E+01  0.27274582842E+01  0.78956148262E+01  0.93329142186E+01  0.51100000000E-03 0. -1.
        -11    1    4    4    0    0 -0.20024940842E+02  0.12703267148E+01  0.19598063760E+02  0.28048103128E+02  0.51100000000E-03 0.  1.
        -12    1    4    4    0    0  0.13345746376E+02 -0.50285985959E+01  0.92266365429E+01  0.16986069941E+02  0.00000000000E+00 0.  1.
</event>
<event>
 8    1  0.1240174E-006  0.9118800E+02  0.7816164E-02  0.1184000E+00
        -11   -1    0    0    0    0  0.00000000000E+00  0.00000000000E+00  0.45593999997E+02  0.45594000000E+02  0.51100000000E-03 0. -1.
         11   -1    0    0    0    0 -0.00000000000E+00 -0.00000000000E+00 -0.45593999997E+02  0.45594000000E+02  0.51100000000E-03 0.  1.
         23    2    1    2    0    0  0.00000000000E+00  0.00000000000E+00  0.35527136788E-14  0.91188000000E+02  0.91188000000E+02 0.  0.
    9900012    2    3    3    0    0  0.37101431521E+01 -0.26884460356E+02 -0.24884520762E+02  0.54367099082E+02  0.40000033977E+02 0.  0.
         12    1    3    3    0    0 -0.37101431521E+01  0.26884460356E+02  0.24884520762E+02  0.36820900918E+02  0.00000000000E+00 0. -1.
         11    1    4    4    0    0 -0.10866425829E+01 -0.10346323068E+02 -0.31162158063E+02  0.32852812491E+02  0.51100000000E-03 0. -1.
        -11    1    4    4    0    0  0.61232366124E+01 -0.37428231410E+01  0.46416412593E+01  0.85467880234E+01  0.51100000000E-03 0.  1.
         12    1    4    4    0    0 -0.13264508775E+01 -0.12795314147E+02  0.16359960422E+01  0.12967498568E+02  0.00000000000E+00 0. -1.
</event>
<event>
 8    1  0.1240174E-006  0.9118800E+02  0.7816164E-02  0.1184000E+00
        -11   -1    0    0    0    0  0.00000000000E+00  0.00000000000E+00  0.45593999997E+02  0.45594000000E+02  0.51100000000E-03 0.  1.
         11   -1    0    0    0    0 -0.00000000000E+00 -0.00000000000E+00 -0.45593999997E+02  0.45594000000E+02  0.51100000000E-03 0. -1.
         23    2    1    2    0    0  0.35527136788E-14 -0.71054273576E-14  0.00000000000E+00  0.91188000000E+02  0.91188000000E+02 0.  0.
    9900012    2    3    3    0    0  0.13001731146E+02 -0.31243066040E+02 -0.14512219671E+02  0.54367099574E+02  0.40000035100E+02 0.  0.
        -12    1    3    3    0    0 -0.13001731146E+02  0.31243066040E+02  0.14512219671E+02  0.36820900426E+02  0.00000000000E+00 0.  1.
         11    1    4    4    0    0  0.12178026810E+02 -0.13241313219E+02 -0.17498774344E+02  0.25096689354E+02  0.51100000000E-03 0. -1.
        -11    1    4    4    0    0  0.38352395929E+01 -0.22970173316E+02  0.19592790265E+01  0.23370423605E+02  0.51100000000E-03 0.  1.
        -12    1    4    4    0    0 -0.30115352568E+01  0.49684204946E+01  0.10272756463E+01  0.58999866159E+01  0.00000000000E+00 0.  1.
</event>
<event>
 8    1  0.1240174E-006  0.9118800E+02  0.7816164E-02  0.1184000E+00
        -11   -1    0    0    0    0  0.00000000000E+00  0.00000000000E+00  0.45593999997E+02  0.45594000000E+02  0.51100000000E-03 0.  1.
         11   -1    0    0    0    0 -0.00000000000E+00 -0.00000000000E+00 -0.45593999997E+02  0.45594000000E+02  0.51100000000E-03 0. -1.
         23    2    1    2    0    0  0.88817841970E-15 -0.35527136788E-14 -0.71054273576E-14  0.91188000000E+02  0.91188000000E+02 0.  0.
    9900012    2    3    3    0    0  0.50841062273E+01 -0.19685949105E+02 -0.30698456320E+02  0.54367082729E+02  0.39999996696E+02 0.  0.
        -12    1    3    3    0    0 -0.50841062273E+01  0.19685949105E+02  0.30698456320E+02  0.36820917271E+02  0.00000000000E+00 0.  1.
         11    1    4    4    0    0  0.29510580543E+01 -0.36835348063E+01  0.36927854300E+01  0.59928154321E+01  0.51100000000E-03 0. -1.
        -11    1    4    4    0    0  0.18547318307E+01 -0.17173250951E+02 -0.37069830921E+01  0.17666417358E+02  0.51100000000E-03 0.  1.
         12    1    4    4    0    0  0.27831634224E+00  0.11708366518E+01 -0.30684258658E+02  0.30707849938E+02  0.00000000000E+00 0. -1.
</event>
<event>
 8    1  0.1240174E-006  0.9118800E+02  0.7816164E-02  0.1184000E+00
        -11   -1    0    0    0    0  0.00000000000E+00  0.00000000000E+00  0.45593999997E+02  0.45594000000E+02  0.51100000000E-03 0. -1.
         11   -1    0    0    0    0 -0.00000000000E+00 -0.00000000000E+00 -0.45593999997E+02  0.45594000000E+02  0.51100000000E-03 0.  1.
         23    2    1    2    0    0  0.00000000000E+00  0.88817841970E-15  0.11102230246E-14  0.91188000000E+02  0.91188000000E+02 0.  0.
    9900012    2    3    3    0    0  0.36465814762E+02  0.47689059637E+01  0.18114706314E+01  0.54367088330E+02  0.40000009467E+02 0.  0.
         12    1    3    3    0    0 -0.36465814762E+02 -0.47689059637E+01 -0.18114706314E+01  0.36820911670E+02  0.00000000000E+00 0. -1.
         11    1    4    4    0    0  0.19670989730E+02 -0.46765626042E+00  0.23540098847E+01  0.19816859038E+02  0.51100000000E-03 0. -1.
        -11    1    4    4    0    0 -0.48533327306E+01  0.93228612863E+01 -0.56537542701E+01  0.11934635259E+02  0.51100000000E-03 0.  1.
        -12    1    4    4    0    0  0.21648157763E+02 -0.40862990622E+01  0.51112150168E+01  0.22615594034E+02  0.00000000000E+00 0.  1.
</event>
<event>
 8    1  0.1240174E-006  0.9118800E+02  0.7816164E-02  0.1184000E+00
        -11   -1    0    0    0    0  0.00000000000E+00  0.00000000000E+00  0.45593999997E+02  0.45594000000E+02  0.51100000000E-03 0. -1.
         11   -1    0    0    0    0 -0.00000000000E+00 -0.00000000000E+00 -0.45593999997E+02  0.45594000000E+02  0.51100000000E-03 0.  1.
         23    2    1    2    0    0  0.17763568394E-14  0.00000000000E+00  0.00000000000E+00  0.91188000000E+02  0.91188000000E+02 0.  0.
    9900012    2    3    3    0    0  0.14486168918E+02  0.33064715808E+02 -0.72563745314E+01  0.54367088921E+02  0.40000010812E+02 0.  0.
         12    1    3    3    0    0 -0.14486168918E+02 -0.33064715808E+02  0.72563745314E+01  0.36820911079E+02  0.00000000000E+00 0. -1.
         11    1    4    4    0    0  0.30368181682E+00  0.46567447151E+01 -0.16591339891E+01  0.49527991926E+01  0.51100000000E-03 0. -1.
        -11    1    4    4    0    0  0.26077580629E+02  0.20374134548E+02 -0.97003896042E+01  0.34485404576E+02  0.51100000000E-03 0.  1.
         12    1    4    4    0    0 -0.11895093528E+02  0.80338365450E+01  0.41031490618E+01  0.14928885152E+02  0.00000000000E+00 0. -1.
</event>
<event>
 8    1  0.1240174E-006  0.9118800E+02  0.7816164E-02  0.1184000E+00
        -11   -1    0    0    0    0  0.00000000000E+00  0.00000000000E+00  0.45593999997E+02  0.45594000000E+02  0.51100000000E-03 0. -1.
         11   -1    0    0    0    0 -0.00000000000E+00 -0.00000000000E+00 -0.45593999997E+02  0.45594000000E+02  0.51100000000E-03 0.  1.
         23    2    1    2    0    0  0.35527136788E-14  0.00000000000E+00  0.00000000000E+00  0.91188000000E+02  0.91188000000E+02 0.  0.
    9900012    2    3    3    0    0 -0.24571360411E+02 -0.26394812633E+02 -0.74392239617E+01  0.54367082854E+02  0.39999996981E+02 0.  0.
         12    1    3    3    0    0  0.24571360411E+02  0.26394812633E+02  0.74392239617E+01  0.36820917146E+02  0.00000000000E+00 0. -1.
         11    1    4    4    0    0  0.96789637992E+01 -0.42077398328E+01 -0.79440624718E+01  0.13209676133E+02  0.51100000000E-03 0.  1.
        -11    1    4    4    0    0 -0.16104887955E+02 -0.12601469248E+02  0.21932750198E+01  0.20566353562E+02  0.51100000000E-03 0. -1.
         12    1    4    4    0    0 -0.18145436255E+02 -0.95856035521E+01 -0.16884365097E+01  0.20591053159E+02  0.00000000000E+00 0. -1.
</event>
<event>
 8    1  0.1240174E-006  0.9118800E+02  0.7816164E-02  0.1184000E+00
        -11   -1    0    0    0    0  0.00000000000E+00  0.00000000000E+00  0.45593999997E+02  0.45594000000E+02  0.51100000000E-03 0. -1.
         11   -1    0    0    0    0 -0.00000000000E+00 -0.00000000000E+00 -0.45593999997E+02  0.45594000000E+02  0.51100000000E-03 0.  1.
         23    2    1    2    0    0 -0.35527136788E-14 -0.66613381478E-15  0.71054273576E-14  0.91188000000E+02  0.91188000000E+02 0.  0.
    9900012    2    3    3    0    0  0.23666851895E+02  0.33090668771E+00 -0.28205498128E+02  0.54367088788E+02  0.40000010510E+02 0.  0.
         12    1    3    3    0    0 -0.23666851895E+02 -0.33090668771E+00  0.28205498128E+02  0.36820911212E+02  0.00000000000E+00 0. -1.
         11    1    4    4    0    0  0.19480119110E+01  0.10164892901E+01  0.87032495244E+01  0.89763329610E+01  0.51100000000E-03 0. -1.
        -11    1    4    4    0    0  0.19508472783E+02  0.42040359977E+01 -0.22822239568E+02  0.30316811312E+02  0.51100000000E-03 0.  1.
         12    1    4    4    0    0  0.22103672008E+01 -0.48896186000E+01 -0.14086508084E+02  0.15073944514E+02  0.00000000000E+00 0. -1.
</event>
<event>
 8    1  0.1240174E-006  0.9118800E+02  0.7816164E-02  0.1184000E+00
        -11   -1    0    0    0    0  0.00000000000E+00  0.00000000000E+00  0.45593999997E+02  0.45594000000E+02  0.51100000000E-03 0. -1.
         11   -1    0    0    0    0 -0.00000000000E+00 -0.00000000000E+00 -0.45593999997E+02  0.45594000000E+02  0.51100000000E-03 0.  1.
         23    2    1    2    0    0  0.00000000000E+00  0.17763568394E-14  0.35527136788E-14  0.91188000000E+02  0.91188000000E+02 0.  0.
    9900012    2    3    3    0    0  0.21096203176E+02 -0.58148435417E+01  0.29612796294E+02  0.54367083414E+02  0.39999998259E+02 0.  0.
        -12    1    3    3    0    0 -0.21096203176E+02  0.58148435417E+01 -0.29612796294E+02  0.36820916586E+02  0.00000000000E+00 0.  1.
         11    1    4    4    0    0  0.10568259710E+02  0.10531517973E+02  0.26497745609E+02  0.30409398329E+02  0.51100000000E-03 0. -1.
        -11    1    4    4    0    0 -0.25225557990E+01 -0.25421723136E+01 -0.22357077047E+01  0.42218854832E+01  0.51100000000E-03 0.  1.
         12    1    4    4    0    0  0.13050499265E+02 -0.13804189201E+02  0.53507583894E+01  0.19735799602E+02  0.00000000000E+00 0. -1.
</event>
<event>
 8    1  0.1240174E-006  0.9118800E+02  0.7816164E-02  0.1184000E+00
        -11   -1    0    0    0    0  0.00000000000E+00  0.00000000000E+00  0.45593999997E+02  0.45594000000E+02  0.51100000000E-03 0. -1.
         11   -1    0    0    0    0 -0.00000000000E+00 -0.00000000000E+00 -0.45593999997E+02  0.45594000000E+02  0.51100000000E-03 0.  1.
         23    2    1    2    0    0  0.35527136788E-14  0.17763568394E-14  0.71054273576E-14  0.91188000000E+02  0.91188000000E+02 0.  0.
    9900012    2    3    3    0    0  0.16858642984E+02 -0.92472840389E+01  0.31401477956E+02  0.54367096655E+02  0.40000028444E+02 0.  0.
        -12    1    3    3    0    0 -0.16858642984E+02  0.92472840389E+01 -0.31401477956E+02  0.36820903345E+02  0.00000000000E+00 0.  1.
         11    1    4    4    0    0 -0.51080398913E+01  0.50157592120E+01  0.62346793327E+01  0.94932154008E+01  0.51100000000E-03 0. -1.
        -11    1    4    4    0    0 -0.20487376420E+01  0.50230185511E+01  0.56554531986E+00  0.54541619943E+01  0.51100000000E-03 0.  1.
         12    1    4    4    0    0  0.24015420517E+02 -0.19286061802E+02  0.24601253303E+02  0.39419719260E+02  0.00000000000E+00 0. -1.
</event>
<event>
 8    1  0.1240174E-006  0.9118800E+02  0.7816164E-02  0.1184000E+00
        -11   -1    0    0    0    0  0.00000000000E+00  0.00000000000E+00  0.45593999997E+02  0.45594000000E+02  0.51100000000E-03 0. -1.
         11   -1    0    0    0    0 -0.00000000000E+00 -0.00000000000E+00 -0.45593999997E+02  0.45594000000E+02  0.51100000000E-03 0.  1.
         23    2    1    2    0    0  0.00000000000E+00 -0.88817841970E-15  0.00000000000E+00  0.91188000000E+02  0.91188000000E+02 0.  0.
    9900012    2    3    3    0    0  0.10870531737E+01  0.49474594223E+01  0.36470833112E+02  0.54367072429E+02  0.39999973216E+02 0.  0.
        -12    1    3    3    0    0 -0.10870531737E+01 -0.49474594223E+01 -0.36470833112E+02  0.36820927571E+02  0.00000000000E+00 0.  1.
         11    1    4    4    0    0 -0.31997628309E+01  0.12144467968E+02  0.23466411899E+02  0.26615767359E+02  0.51100000000E-03 0. -1.
        -11    1    4    4    0    0 -0.68268586108E+01  0.46524278897E+01  0.47324259697E+01  0.95208686358E+01  0.51100000000E-03 0.  1.
         12    1    4    4    0    0  0.11113674615E+02 -0.11849436436E+02  0.82719952427E+01  0.18230436435E+02  0.00000000000E+00 0. -1.
</event>
<event>
 8    1  0.1240174E-006  0.9118800E+02  0.7816164E-02  0.1184000E+00
        -11   -1    0    0    0    0  0.00000000000E+00  0.00000000000E+00  0.45593999997E+02  0.45594000000E+02  0.51100000000E-03 0. -1.
         11   -1    0    0    0    0 -0.00000000000E+00 -0.00000000000E+00 -0.45593999997E+02  0.45594000000E+02  0.51100000000E-03 0.  1.
         23    2    1    2    0    0  0.17763568394E-14  0.00000000000E+00 -0.35527136788E-14  0.91188000000E+02  0.91188000000E+02 0.  0.
    9900012    2    3    3    0    0  0.82544821186E+01 -0.22603463074E+02 -0.27869815275E+02  0.54367087172E+02  0.40000006827E+02 0.  0.
        -12    1    3    3    0    0 -0.82544821186E+01  0.22603463074E+02  0.27869815275E+02  0.36820912828E+02  0.00000000000E+00 0.  1.
         11    1    4    4    0    0 -0.17936671396E+01  0.34398522062E+01 -0.13054272517E+01  0.40931608298E+01  0.51100000000E-03 0. -1.
        -11    1    4    4    0    0  0.12111857128E+02 -0.17591336577E+02  0.98796007337E+00  0.21380558248E+02  0.51100000000E-03 0.  1.
        -12    1    4    4    0    0 -0.20637078699E+01 -0.84519787034E+01 -0.27552348097E+02  0.28893368094E+02  0.00000000000E+00 0.  1.
</event>
<event>
 8    1  0.1240174E-006  0.9118800E+02  0.7816164E-02  0.1184000E+00
        -11   -1    0    0    0    0  0.00000000000E+00  0.00000000000E+00  0.45593999997E+02  0.45594000000E+02  0.51100000000E-03 0. -1.
         11   -1    0    0    0    0 -0.00000000000E+00 -0.00000000000E+00 -0.45593999997E+02  0.45594000000E+02  0.51100000000E-03 0.  1.
         23    2    1    2    0    0  0.00000000000E+00  0.00000000000E+00  0.44408920985E-15  0.91188000000E+02  0.91188000000E+02 0.  0.
    9900012    2    3    3    0    0  0.27416596245E+02 -0.24496199266E+02  0.20116687678E+01  0.54367077423E+02  0.39999984602E+02 0.  0.
        -12    1    3    3    0    0 -0.27416596245E+02  0.24496199266E+02 -0.20116687678E+01  0.36820922577E+02  0.00000000000E+00 0.  1.
         11    1    4    4    0    0 -0.36498566646E+01  0.93756471463E+00  0.37612280568E+01  0.53242199450E+01  0.51100000000E-03 0. -1.
        -11    1    4    4    0    0 -0.69298976270E+00 -0.13533474001E+02  0.50327793197E+01  0.14455587891E+02  0.51100000000E-03 0.  1.
         12    1    4    4    0    0  0.31759442672E+02 -0.11900289980E+02 -0.67823386087E+01  0.34587269587E+02  0.00000000000E+00 0. -1.
</event>
<event>
 8    1  0.1240174E-006  0.9118800E+02  0.7816164E-02  0.1184000E+00
        -11   -1    0    0    0    0  0.00000000000E+00  0.00000000000E+00  0.45593999997E+02  0.45594000000E+02  0.51100000000E-03 0.  1.
         11   -1    0    0    0    0 -0.00000000000E+00 -0.00000000000E+00 -0.45593999997E+02  0.45594000000E+02  0.51100000000E-03 0. -1.
         23    2    1    2    0    0  0.00000000000E+00  0.35527136788E-14  0.00000000000E+00  0.91188000000E+02  0.91188000000E+02 0.  0.
    9900012    2    3    3    0    0  0.16069554628E+02  0.26557616461E+02 -0.19805118909E+02  0.54367077781E+02  0.39999985418E+02 0.  0.
        -12    1    3    3    0    0 -0.16069554628E+02 -0.26557616461E+02  0.19805118909E+02  0.36820922219E+02  0.00000000000E+00 0.  1.
         11    1    4    4    0    0 -0.12049528029E+02  0.62535190087E+01 -0.25914120965E+01  0.13820746818E+02  0.51100000000E-03 0. -1.
        -11    1    4    4    0    0  0.23074142433E+02  0.10988184018E+02 -0.88407189190E+01  0.27042828038E+02  0.51100000000E-03 0.  1.
         12    1    4    4    0    0  0.50449402241E+01  0.93159134341E+01 -0.83729878940E+01  0.13503502925E+02  0.00000000000E+00 0. -1.
</event>
<event>
 8    1  0.1240174E-006  0.9118800E+02  0.7816164E-02  0.1184000E+00
        -11   -1    0    0    0    0  0.00000000000E+00  0.00000000000E+00  0.45593999997E+02  0.45594000000E+02  0.51100000000E-03 0.  1.
         11   -1    0    0    0    0 -0.00000000000E+00 -0.00000000000E+00 -0.45593999997E+02  0.45594000000E+02  0.51100000000E-03 0. -1.
         23    2    1    2    0    0 -0.35527136788E-14 -0.17763568394E-14  0.00000000000E+00  0.91188000000E+02  0.91188000000E+02 0.  0.
    9900012    2    3    3    0    0  0.25093362886E+02  0.65390614304E+01  0.26140923083E+02  0.54367027105E+02  0.39999869891E+02 0.  0.
         12    1    3    3    0    0 -0.25093362886E+02 -0.65390614304E+01 -0.26140923083E+02  0.36820972895E+02  0.00000000000E+00 0. -1.
         11    1    4    4    0    0  0.12747534456E+02 -0.31612736300E+01  0.27411668785E+02  0.30395606122E+02  0.51100000000E-03 0. -1.
        -11    1    4    4    0    0  0.62580968977E+01 -0.17388661848E+01  0.62290457258E+01  0.89993579385E+01  0.51100000000E-03 0.  1.
         12    1    4    4    0    0  0.60877315323E+01  0.11439201245E+02 -0.74997914281E+01  0.14972063044E+02  0.00000000000E+00 0. -1.
</event>
<event>
 8    1  0.1240174E-006  0.9118800E+02  0.7816164E-02  0.1184000E+00
        -11   -1    0    0    0    0  0.00000000000E+00  0.00000000000E+00  0.45593999997E+02  0.45594000000E+02  0.51100000000E-03 0.  1.
         11   -1    0    0    0    0 -0.00000000000E+00 -0.00000000000E+00 -0.45593999997E+02  0.45594000000E+02  0.51100000000E-03 0. -1.
         23    2    1    2    0    0  0.00000000000E+00  0.00000000000E+00 -0.88817841970E-15  0.91188000000E+02  0.91188000000E+02 0.  0.
    9900012    2    3    3    0    0 -0.35540097284E+02  0.68910573592E+01  0.67226905198E+01  0.54367085368E+02  0.40000002713E+02 0.  0.
         12    1    3    3    0    0  0.35540097284E+02 -0.68910573592E+01 -0.67226905198E+01  0.36820914632E+02  0.00000000000E+00 0. -1.
         11    1    4    4    0    0  0.49214312314E+01 -0.32627031283E+00  0.14492390320E+01  0.51407423312E+01  0.51100000000E-03 0. -1.
        -11    1    4    4    0    0 -0.31710347035E+02  0.22376132782E+00  0.14351468617E+02  0.34807482384E+02  0.51100000000E-03 0.  1.
        -12    1    4    4    0    0 -0.87511814810E+01  0.69935663442E+01 -0.90780171290E+01  0.14418860653E+02  0.00000000000E+00 0.  1.
</event>
<event>
 8    1  0.1240174E-006  0.9118800E+02  0.7816164E-02  0.1184000E+00
        -11   -1    0    0    0    0  0.00000000000E+00  0.00000000000E+00  0.45593999997E+02  0.45594000000E+02  0.51100000000E-03 0. -1.
         11   -1    0    0    0    0 -0.00000000000E+00 -0.00000000000E+00 -0.45593999997E+02  0.45594000000E+02  0.51100000000E-03 0.  1.
         23    2    1    2    0    0 -0.44408920985E-15  0.00000000000E+00  0.00000000000E+00  0.91188000000E+02  0.91188000000E+02 0.  0.
    9900012    2    3    3    0    0  0.26274594461E+01 -0.44097143662E+01  0.36461365871E+02  0.54367077617E+02  0.39999985044E+02 0.  0.
        -12    1    3    3    0    0 -0.26274594461E+01  0.44097143662E+01 -0.36461365871E+02  0.36820922383E+02  0.00000000000E+00 0.  1.
         11    1    4    4    0    0  0.12805959122E+02 -0.21674687251E+00  0.21280539174E+02  0.24837490132E+02  0.51100000000E-03 0. -1.
        -11    1    4    4    0    0 -0.35940850974E+01 -0.98125941192E+01  0.17664270768E+02  0.20523910764E+02  0.51100000000E-03 0.  1.
        -12    1    4    4    0    0 -0.65844145782E+01  0.56196266255E+01 -0.24834440717E+01  0.90056767211E+01  0.00000000000E+00 0.  1.
</event>
<event>
 8    1  0.1240174E-006  0.9118800E+02  0.7816164E-02  0.1184000E+00
        -11   -1    0    0    0    0  0.00000000000E+00  0.00000000000E+00  0.45593999997E+02  0.45594000000E+02  0.51100000000E-03 0. -1.
         11   -1    0    0    0    0 -0.00000000000E+00 -0.00000000000E+00 -0.45593999997E+02  0.45594000000E+02  0.51100000000E-03 0.  1.
         23    2    1    2    0    0  0.00000000000E+00 -0.35527136788E-14 -0.35527136788E-14  0.91188000000E+02  0.91188000000E+02 0.  0.
    9900012    2    3    3    0    0  0.12096829400E+02  0.30265824651E+02 -0.17129708734E+02  0.54367077352E+02  0.39999984439E+02 0.  0.
        -12    1    3    3    0    0 -0.12096829400E+02 -0.30265824651E+02  0.17129708734E+02  0.36820922648E+02  0.00000000000E+00 0.  1.
         11    1    4    4    0    0  0.41276069805E+01  0.80740593138E+01  0.27533705291E+01  0.94767411445E+01  0.51100000000E-03 0. -1.
        -11    1    4    4    0    0  0.40653314420E+01  0.42477041060E+01  0.89484353025E+01  0.10707212734E+02  0.51100000000E-03 0.  1.
        -12    1    4    4    0    0  0.39038909770E+01  0.17944061231E+02 -0.28831514566E+02  0.34183123473E+02  0.00000000000E+00 0.  1.
</event>
<event>
 8    1  0.1240174E-006  0.9118800E+02  0.7816164E-02  0.1184000E+00
        -11   -1    0    0    0    0  0.00000000000E+00  0.00000000000E+00  0.45593999997E+02  0.45594000000E+02  0.51100000000E-03 0. -1.
         11   -1    0    0    0    0 -0.00000000000E+00 -0.00000000000E+00 -0.45593999997E+02  0.45594000000E+02  0.51100000000E-03 0.  1.
         23    2    1    2    0    0  0.00000000000E+00  0.35527136788E-14 -0.71054273576E-14  0.91188000000E+02  0.91188000000E+02 0.  0.
    9900012    2    3    3    0    0  0.13642048144E+02  0.25130500988E+02 -0.23197700702E+02  0.54367070146E+02  0.39999968012E+02 0.  0.
         12    1    3    3    0    0 -0.13642048144E+02 -0.25130500988E+02  0.23197700702E+02  0.36820929854E+02  0.00000000000E+00 0. -1.
         11    1    4    4    0    0  0.72274071949E+00 -0.79483542066E+01  0.74123902254E+00  0.80154927666E+01  0.51100000000E-03 0. -1.
        -11    1    4    4    0    0  0.78692051824E+01  0.40402592427E+01 -0.11122475733E+02  0.14211176997E+02  0.51100000000E-03 0.  1.
         12    1    4    4    0    0  0.50501022419E+01  0.29038595952E+02 -0.12816463991E+02  0.32140400383E+02  0.00000000000E+00 0. -1.
</event>
<event>
 8    1  0.1240174E-006  0.9118800E+02  0.7816164E-02  0.1184000E+00
        -11   -1    0    0    0    0  0.00000000000E+00  0.00000000000E+00  0.45593999997E+02  0.45594000000E+02  0.51100000000E-03 0. -1.
         11   -1    0    0    0    0 -0.00000000000E+00 -0.00000000000E+00 -0.45593999997E+02  0.45594000000E+02  0.51100000000E-03 0.  1.
         23    2    1    2    0    0  0.17763568394E-14 -0.44408920985E-15 -0.71054273576E-14  0.91188000000E+02  0.91188000000E+02 0.  0.
    9900012    2    3    3    0    0 -0.15269222022E+02  0.24314510278E+01  0.33417348033E+02  0.54367078708E+02  0.39999987531E+02 0.  0.
        -12    1    3    3    0    0  0.15269222022E+02 -0.24314510278E+01 -0.33417348033E+02  0.36820921292E+02  0.00000000000E+00 0.  1.
         11    1    4    4    0    0 -0.95333334644E+01  0.51053088719E+01  0.14329157046E+02  0.17951973918E+02  0.51100000000E-03 0. -1.
        -11    1    4    4    0    0 -0.16466083632E+02 -0.86669198818E+01  0.13002794363E+02  0.22700662367E+02  0.51100000000E-03 0.  1.
        -12    1    4    4    0    0  0.10730195074E+02  0.59930620377E+01  0.60853966228E+01  0.13714442423E+02  0.00000000000E+00 0.  1.
</event>
<event>
 8    1  0.1240174E-006  0.9118800E+02  0.7816164E-02  0.1184000E+00
        -11   -1    0    0    0    0  0.00000000000E+00  0.00000000000E+00  0.45593999997E+02  0.45594000000E+02  0.51100000000E-03 0.  1.
         11   -1    0    0    0    0 -0.00000000000E+00 -0.00000000000E+00 -0.45593999997E+02  0.45594000000E+02  0.51100000000E-03 0. -1.
         23    2    1    2    0    0  0.35527136788E-14  0.00000000000E+00 -0.35527136788E-14  0.91188000000E+02  0.91188000000E+02 0.  0.
    9900012    2    3    3    0    0  0.28209223332E+02  0.17244910579E+02  0.16205924560E+02  0.54367092722E+02  0.40000019479E+02 0.  0.
        -12    1    3    3    0    0 -0.28209223332E+02 -0.17244910579E+02 -0.16205924560E+02  0.36820907278E+02  0.00000000000E+00 0.  1.
         11    1    4    4    0    0  0.27337632399E+02  0.18422359065E+02  0.33784662758E+01  0.33138248193E+02  0.51100000000E-03 0. -1.
        -11    1    4    4    0    0  0.12863925418E+01 -0.23639848067E+01 -0.37433613340E+01  0.46104212688E+01  0.51100000000E-03 0.  1.
         12    1    4    4    0    0 -0.41480160834E+00  0.11865363209E+01  0.16570819619E+02  0.16618423260E+02  0.00000000000E+00 0. -1.
</event>
<event>
 8    1  0.1240174E-006  0.9118800E+02  0.7816164E-02  0.1184000E+00
        -11   -1    0    0    0    0  0.00000000000E+00  0.00000000000E+00  0.45593999997E+02  0.45594000000E+02  0.51100000000E-03 0. -1.
         11   -1    0    0    0    0 -0.00000000000E+00 -0.00000000000E+00 -0.45593999997E+02  0.45594000000E+02  0.51100000000E-03 0.  1.
         23    2    1    2    0    0  0.00000000000E+00  0.00000000000E+00  0.00000000000E+00  0.91188000000E+02  0.91188000000E+02 0.  0.
    9900012    2    3    3    0    0 -0.24168215030E+01  0.16633449207E+02 -0.32760762548E+02  0.54367079025E+02  0.39999988253E+02 0.  0.
         12    1    3    3    0    0  0.24168215030E+01 -0.16633449207E+02  0.32760762548E+02  0.36820920975E+02  0.00000000000E+00 0. -1.
         11    1    4    4    0    0  0.39952814856E+01  0.11515262866E+02 -0.13294756314E+01  0.12260956682E+02  0.51100000000E-03 0. -1.
        -11    1    4    4    0    0 -0.41263327260E+01  0.13976640232E+02 -0.29282770456E+02  0.32708618738E+02  0.51100000000E-03 0.  1.
        -12    1    4    4    0    0 -0.22857702626E+01 -0.88584538907E+01 -0.21485164613E+01  0.93975036053E+01  0.00000000000E+00 0.  1.
</event>
<event>
 8    1  0.1240174E-006  0.9118800E+02  0.7816164E-02  0.1184000E+00
        -11   -1    0    0    0    0  0.00000000000E+00  0.00000000000E+00  0.45593999997E+02  0.45594000000E+02  0.51100000000E-03 0.  1.
         11   -1    0    0    0    0 -0.00000000000E+00 -0.00000000000E+00 -0.45593999997E+02  0.45594000000E+02  0.51100000000E-03 0. -1.
         23    2    1    2    0    0 -0.36082248300E-15  0.35527136788E-14  0.35527136788E-14  0.91188000000E+02  0.91188000000E+02 0.  0.
    9900012    2    3    3    0    0 -0.14833955344E+00 -0.19469765969E+02  0.31251954000E+02  0.54367103483E+02  0.40000044009E+02 0.  0.
         12    1    3    3    0    0  0.14833955344E+00  0.19469765969E+02 -0.31251954000E+02  0.36820896517E+02  0.00000000000E+00 0. -1.
         11    1    4    4    0    0  0.91182265265E+00 -0.52284032542E+01  0.10616069055E+02  0.11868805483E+02  0.51100000000E-03 0. -1.
        -11    1    4    4    0    0 -0.56131076149E+01 -0.13696831015E+02  0.29226092517E+02  0.32760870578E+02  0.51100000000E-03 0.  1.
         12    1    4    4    0    0  0.45529454088E+01 -0.54453169965E+00 -0.85902075719E+01  0.97374274218E+01  0.00000000000E+00 0. -1.
</event>
<event>
 8    1  0.1240174E-006  0.9118800E+02  0.7816164E-02  0.1184000E+00
        -11   -1    0    0    0    0  0.00000000000E+00  0.00000000000E+00  0.45593999997E+02  0.45594000000E+02  0.51100000000E-03 0.  1.
         11   -1    0    0    0    0 -0.00000000000E+00 -0.00000000000E+00 -0.45593999997E+02  0.45594000000E+02  0.51100000000E-03 0. -1.
         23    2    1    2    0    0  0.88817841970E-15  0.88817841970E-15 -0.71054273576E-14  0.91188000000E+02  0.91188000000E+02 0.  0.
    9900012    2    3    3    0    0  0.76615954431E+01  0.17492181944E+01 -0.35972459517E+02  0.54367113906E+02  0.40000067772E+02 0.  0.
        -12    1    3    3    0    0 -0.76615954431E+01 -0.17492181944E+01  0.35972459517E+02  0.36820886094E+02  0.00000000000E+00 0.  1.
         11    1    4    4    0    0  0.17229992350E+01  0.69026057753E+01 -0.93469084295E+01  0.11746462885E+02  0.51100000000E-03 0.  1.
        -11    1    4    4    0    0 -0.36009756770E+01 -0.16463491973E+02 -0.20673790238E+02  0.26672442648E+02  0.51100000000E-03 0. -1.
         12    1    4    4    0    0  0.95395718851E+01  0.11310104392E+02 -0.59517608497E+01  0.15948208373E+02  0.00000000000E+00 0. -1.
</event>
<event>
 8    1  0.1240174E-006  0.9118800E+02  0.7816164E-02  0.1184000E+00
        -11   -1    0    0    0    0  0.00000000000E+00  0.00000000000E+00  0.45593999997E+02  0.45594000000E+02  0.51100000000E-03 0. -1.
         11   -1    0    0    0    0 -0.00000000000E+00 -0.00000000000E+00 -0.45593999997E+02  0.45594000000E+02  0.51100000000E-03 0.  1.
         23    2    1    2    0    0  0.00000000000E+00  0.00000000000E+00  0.35527136788E-14  0.91188000000E+02  0.91188000000E+02 0.  0.
    9900012    2    3    3    0    0 -0.18984342085E+02 -0.92697066296E+01 -0.30157044019E+02  0.54367081905E+02  0.39999994818E+02 0.  0.
         12    1    3    3    0    0  0.18984342085E+02  0.92697066296E+01  0.30157044019E+02  0.36820918095E+02  0.00000000000E+00 0. -1.
         11    1    4    4    0    0 -0.27065951003E+02 -0.11292674907E+02 -0.31452974739E+02  0.43004416406E+02  0.51100000000E-03 0. -1.
        -11    1    4    4    0    0  0.14210185529E+01  0.22664663885E+01 -0.25262774971E+01  0.36794349935E+01  0.51100000000E-03 0.  1.
         12    1    4    4    0    0  0.66605903649E+01 -0.24349811113E+00  0.38222082168E+01  0.76832305049E+01  0.00000000000E+00 0. -1.
</event>
<event>
 8    1  0.1240174E-006  0.9118800E+02  0.7816164E-02  0.1184000E+00
        -11   -1    0    0    0    0  0.00000000000E+00  0.00000000000E+00  0.45593999997E+02  0.45594000000E+02  0.51100000000E-03 0. -1.
         11   -1    0    0    0    0 -0.00000000000E+00 -0.00000000000E+00 -0.45593999997E+02  0.45594000000E+02  0.51100000000E-03 0.  1.
         23    2    1    2    0    0 -0.13322676296E-14 -0.15543122345E-14  0.00000000000E+00  0.91188000000E+02  0.91188000000E+02 0.  0.
    9900012    2    3    3    0    0  0.21705114627E+01  0.17689705292E+00 -0.36756452995E+02  0.54367092226E+02  0.40000018347E+02 0.  0.
         12    1    3    3    0    0 -0.21705114627E+01 -0.17689705292E+00  0.36756452995E+02  0.36820907774E+02  0.00000000000E+00 0. -1.
         11    1    4    4    0    0  0.10258343545E+02  0.78522093514E+01 -0.16275652128E+02  0.20779500871E+02  0.51100000000E-03 0. -1.
        -11    1    4    4    0    0 -0.14770957927E+02 -0.55190882282E+01 -0.21317457378E+02  0.26515571317E+02  0.51100000000E-03 0.  1.
        -12    1    4    4    0    0  0.66831258449E+01 -0.21562240702E+01  0.83665651081E+00  0.70720200379E+01  0.00000000000E+00 0.  1.
</event>
<event>
 8    1  0.1240174E-006  0.9118800E+02  0.7816164E-02  0.1184000E+00
        -11   -1    0    0    0    0  0.00000000000E+00  0.00000000000E+00  0.45593999997E+02  0.45594000000E+02  0.51100000000E-03 0.  1.
         11   -1    0    0    0    0 -0.00000000000E+00 -0.00000000000E+00 -0.45593999997E+02  0.45594000000E+02  0.51100000000E-03 0. -1.
         23    2    1    2    0    0 -0.35527136788E-14  0.00000000000E+00  0.35527136788E-14  0.91188000000E+02  0.91188000000E+02 0.  0.
    9900012    2    3    3    0    0 -0.21181795659E+02  0.44844387085E+01  0.29782592973E+02  0.54367061636E+02  0.39999948611E+02 0.  0.
         12    1    3    3    0    0  0.21181795659E+02 -0.44844387085E+01 -0.29782592973E+02  0.36820938364E+02  0.00000000000E+00 0. -1.
         11    1    4    4    0    0  0.72870089303E+01  0.19842333442E+01  0.10929302035E+02  0.13284853193E+02  0.51100000000E-03 0. -1.
        -11    1    4    4    0    0 -0.14753912983E+02 -0.72533785810E+01  0.17783719965E+02  0.24218797352E+02  0.51100000000E-03 0.  1.
        -12    1    4    4    0    0 -0.13714891606E+02  0.97535839453E+01  0.10695709729E+01  0.16863411091E+02  0.00000000000E+00 0.  1.
</event>
<event>
 8    1  0.1240174E-006  0.9118800E+02  0.7816164E-02  0.1184000E+00
        -11   -1    0    0    0    0  0.00000000000E+00  0.00000000000E+00  0.45593999997E+02  0.45594000000E+02  0.51100000000E-03 0. -1.
         11   -1    0    0    0    0 -0.00000000000E+00 -0.00000000000E+00 -0.45593999997E+02  0.45594000000E+02  0.51100000000E-03 0.  1.
         23    2    1    2    0    0  0.71054273576E-14  0.22204460493E-15  0.00000000000E+00  0.91188000000E+02  0.91188000000E+02 0.  0.
    9900012    2    3    3    0    0 -0.34187759271E+02 -0.12473133917E+01 -0.13616950045E+02  0.54367081989E+02  0.39999995009E+02 0.  0.
        -12    1    3    3    0    0  0.34187759271E+02  0.12473133917E+01  0.13616950045E+02  0.36820918011E+02  0.00000000000E+00 0.  1.
         11    1    4    4    0    0 -0.10362697684E+02  0.72623252119E+01 -0.79284311231E+01  0.14932745599E+02  0.51100000000E-03 0. -1.
        -11    1    4    4    0    0  0.43966271408E+01  0.14542665058E+01 -0.81820671917E+01  0.94016724616E+01  0.51100000000E-03 0.  1.
         12    1    4    4    0    0 -0.28221688727E+02 -0.99639051094E+01  0.24935482694E+01  0.30032663928E+02  0.00000000000E+00 0. -1.
</event>
<event>
 8    1  0.1240174E-006  0.9118800E+02  0.7816164E-02  0.1184000E+00
        -11   -1    0    0    0    0  0.00000000000E+00  0.00000000000E+00  0.45593999997E+02  0.45594000000E+02  0.51100000000E-03 0. -1.
         11   -1    0    0    0    0 -0.00000000000E+00 -0.00000000000E+00 -0.45593999997E+02  0.45594000000E+02  0.51100000000E-03 0.  1.
         23    2    1    2    0    0  0.00000000000E+00  0.00000000000E+00  0.00000000000E+00  0.91188000000E+02  0.91188000000E+02 0.  0.
    9900012    2    3    3    0    0 -0.20020134939E+02  0.90525706972E+01 -0.29546980645E+02  0.54367096908E+02  0.40000029022E+02 0.  0.
         12    1    3    3    0    0  0.20020134939E+02 -0.90525706972E+01  0.29546980645E+02  0.36820903092E+02  0.00000000000E+00 0. -1.
         11    1    4    4    0    0  0.23941311488E+01  0.37442296000E+01 -0.22335897124E+02  0.22773744089E+02  0.51100000000E-03 0. -1.
        -11    1    4    4    0    0 -0.15460742993E+02 -0.65487550071E+01 -0.20693490436E+01  0.16917534447E+02  0.51100000000E-03 0.  1.
         12    1    4    4    0    0 -0.69535230955E+01  0.11857096104E+02 -0.51417344783E+01  0.14675818373E+02  0.00000000000E+00 0. -1.
</event>
<event>
 8    1  0.1240174E-006  0.9118800E+02  0.7816164E-02  0.1184000E+00
        -11   -1    0    0    0    0  0.00000000000E+00  0.00000000000E+00  0.45593999997E+02  0.45594000000E+02  0.51100000000E-03 0. -1.
         11   -1    0    0    0    0 -0.00000000000E+00 -0.00000000000E+00 -0.45593999997E+02  0.45594000000E+02  0.51100000000E-03 0.  1.
         23    2    1    2    0    0  0.71054273576E-14 -0.11102230246E-15  0.17763568394E-14  0.91188000000E+02  0.91188000000E+02 0.  0.
    9900012    2    3    3    0    0  0.33565500309E+02  0.67220681032E+00  0.15122337071E+02  0.54367085406E+02  0.40000002801E+02 0.  0.
         12    1    3    3    0    0 -0.33565500309E+02 -0.67220681032E+00 -0.15122337071E+02  0.36820914594E+02  0.00000000000E+00 0. -1.
         11    1    4    4    0    0  0.54660426681E+01  0.11537934649E+02  0.16748261325E+01  0.12876591212E+02  0.51100000000E-03 0. -1.
        -11    1    4    4    0    0 -0.37799692675E+01 -0.40842222876E+01 -0.13027060213E+01  0.57154249708E+01  0.51100000000E-03 0.  1.
        -12    1    4    4    0    0  0.31879426909E+02 -0.67815055509E+01  0.14750216960E+02  0.35775069223E+02  0.00000000000E+00 0.  1.
</event>
<event>
 8    1  0.1240174E-006  0.9118800E+02  0.7816164E-02  0.1184000E+00
        -11   -1    0    0    0    0  0.00000000000E+00  0.00000000000E+00  0.45593999997E+02  0.45594000000E+02  0.51100000000E-03 0.  1.
         11   -1    0    0    0    0 -0.00000000000E+00 -0.00000000000E+00 -0.45593999997E+02  0.45594000000E+02  0.51100000000E-03 0. -1.
         23    2    1    2    0    0  0.00000000000E+00  0.00000000000E+00  0.00000000000E+00  0.91188000000E+02  0.91188000000E+02 0.  0.
    9900012    2    3    3    0    0 -0.23504851353E+02 -0.27001411955E+02  0.86154257814E+01  0.54367084123E+02  0.39999999874E+02 0.  0.
        -12    1    3    3    0    0  0.23504851353E+02  0.27001411955E+02 -0.86154257814E+01  0.36820915877E+02  0.00000000000E+00 0.  1.
         11    1    4    4    0    0 -0.19359295715E+02 -0.17981629916E+02 -0.57261979366E+01  0.27035359958E+02  0.51100000000E-03 0. -1.
        -11    1    4    4    0    0 -0.11180610106E+02 -0.44855967805E+01  0.14636829280E+02  0.18956882456E+02  0.51100000000E-03 0.  1.
         12    1    4    4    0    0  0.70350544676E+01 -0.45341852583E+01 -0.29520556207E+00  0.83748417085E+01  0.00000000000E+00 0. -1.
</event>
<event>
 8    1  0.1240174E-006  0.9118800E+02  0.7816164E-02  0.1184000E+00
        -11   -1    0    0    0    0  0.00000000000E+00  0.00000000000E+00  0.45593999997E+02  0.45594000000E+02  0.51100000000E-03 0. -1.
         11   -1    0    0    0    0 -0.00000000000E+00 -0.00000000000E+00 -0.45593999997E+02  0.45594000000E+02  0.51100000000E-03 0.  1.
         23    2    1    2    0    0  0.00000000000E+00  0.00000000000E+00 -0.17763568394E-14  0.91188000000E+02  0.91188000000E+02 0.  0.
    9900012    2    3    3    0    0 -0.12368625588E+02 -0.32941106693E+02 -0.10848060549E+02  0.54367084384E+02  0.40000000470E+02 0.  0.
         12    1    3    3    0    0  0.12368625588E+02  0.32941106693E+02  0.10848060549E+02  0.36820915616E+02  0.00000000000E+00 0. -1.
         11    1    4    4    0    0 -0.35886378864E+01  0.52819949979E+01 -0.15380857474E+01  0.65683712642E+01  0.51100000000E-03 0. -1.
        -11    1    4    4    0    0 -0.54400234522E+01 -0.32326294534E+02  0.38401672889E+01  0.33005000507E+02  0.51100000000E-03 0.  1.
        -12    1    4    4    0    0 -0.33399642493E+01 -0.58968071579E+01 -0.13150142091E+02  0.14793712612E+02  0.00000000000E+00 0.  1.
</event>
<event>
 8    1  0.1240174E-006  0.9118800E+02  0.7816164E-02  0.1184000E+00
        -11   -1    0    0    0    0  0.00000000000E+00  0.00000000000E+00  0.45593999997E+02  0.45594000000E+02  0.51100000000E-03 0.  1.
         11   -1    0    0    0    0 -0.00000000000E+00 -0.00000000000E+00 -0.45593999997E+02  0.45594000000E+02  0.51100000000E-03 0. -1.
         23    2    1    2    0    0  0.00000000000E+00  0.00000000000E+00  0.00000000000E+00  0.91188000000E+02  0.91188000000E+02 0.  0.
    9900012    2    3    3    0    0  0.17432260064E+02  0.28786199460E+02  0.14941608945E+02  0.54367073230E+02  0.39999975043E+02 0.  0.
         12    1    3    3    0    0 -0.17432260064E+02 -0.28786199460E+02 -0.14941608945E+02  0.36820926770E+02  0.00000000000E+00 0. -1.
         11    1    4    4    0    0  0.26344929587E+01 -0.46388061678E+01 -0.48959619802E+01  0.72408231428E+01  0.51100000000E-03 0. -1.
        -11    1    4    4    0    0  0.79386339429E+01  0.31813557208E+02  0.22309842459E+02  0.39659215851E+02  0.51100000000E-03 0.  1.
        -12    1    4    4    0    0  0.68591331626E+01  0.16114484204E+01 -0.24722715338E+01  0.74670342366E+01  0.00000000000E+00 0.  1.
</event>
<event>
 8    1  0.1240174E-006  0.9118800E+02  0.7816164E-02  0.1184000E+00
        -11   -1    0    0    0    0  0.00000000000E+00  0.00000000000E+00  0.45593999997E+02  0.45594000000E+02  0.51100000000E-03 0. -1.
         11   -1    0    0    0    0 -0.00000000000E+00 -0.00000000000E+00 -0.45593999997E+02  0.45594000000E+02  0.51100000000E-03 0.  1.
         23    2    1    2    0    0  0.35527136788E-14 -0.35527136788E-14 -0.88817841970E-15  0.91188000000E+02  0.91188000000E+02 0.  0.
    9900012    2    3    3    0    0 -0.31828282157E+02  0.17317321556E+02  0.65460996930E+01  0.54367073991E+02  0.39999976778E+02 0.  0.
         12    1    3    3    0    0  0.31828282157E+02 -0.17317321556E+02 -0.65460996930E+01  0.36820926009E+02  0.00000000000E+00 0. -1.
         11    1    4    4    0    0  0.16261740847E+00 -0.35142852417E+01 -0.17338277454E+01  0.39220918007E+01  0.51100000000E-03 0. -1.
        -11    1    4    4    0    0 -0.30232393817E+01 -0.69912720044E+01  0.68663523672E+01  0.10254981994E+02  0.51100000000E-03 0.  1.
         12    1    4    4    0    0 -0.28967660184E+02  0.27822878802E+02  0.14135750712E+01  0.40190000197E+02  0.00000000000E+00 0. -1.
</event>
<event>
 8    1  0.1240174E-006  0.9118800E+02  0.7816164E-02  0.1184000E+00
        -11   -1    0    0    0    0  0.00000000000E+00  0.00000000000E+00  0.45593999997E+02  0.45594000000E+02  0.51100000000E-03 0.  1.
         11   -1    0    0    0    0 -0.00000000000E+00 -0.00000000000E+00 -0.45593999997E+02  0.45594000000E+02  0.51100000000E-03 0. -1.
         23    2    1    2    0    0 -0.17763568394E-14  0.88817841970E-15  0.71054273576E-14  0.91188000000E+02  0.91188000000E+02 0.  0.
    9900012    2    3    3    0    0 -0.93436395703E+01 -0.23726334117E+01  0.35536564684E+02  0.54367076339E+02  0.39999982130E+02 0.  0.
         12    1    3    3    0    0  0.93436395703E+01  0.23726334117E+01 -0.35536564684E+02  0.36820923661E+02  0.00000000000E+00 0. -1.
         11    1    4    4    0    0 -0.73900804743E+01 -0.13211978780E+02  0.10459782938E+02  0.18400454671E+02  0.51100000000E-03 0. -1.
        -11    1    4    4    0    0  0.64128356409E+01 -0.46669188984E+01  0.56376735304E+01  0.97307736618E+01  0.51100000000E-03 0.  1.
        -12    1    4    4    0    0 -0.83663947369E+01  0.15506264267E+02  0.19439108215E+02  0.26235848007E+02  0.00000000000E+00 0.  1.
</event>
<event>
 8    1  0.1240174E-006  0.9118800E+02  0.7816164E-02  0.1184000E+00
        -11   -1    0    0    0    0  0.00000000000E+00  0.00000000000E+00  0.45593999997E+02  0.45594000000E+02  0.51100000000E-03 0.  1.
         11   -1    0    0    0    0 -0.00000000000E+00 -0.00000000000E+00 -0.45593999997E+02  0.45594000000E+02  0.51100000000E-03 0. -1.
         23    2    1    2    0    0  0.17763568394E-14 -0.71054273576E-14  0.13322676296E-14  0.91188000000E+02  0.91188000000E+02 0.  0.
    9900012    2    3    3    0    0  0.13538430592E+02 -0.34171907180E+02 -0.21842323054E+01  0.54367092706E+02  0.40000019441E+02 0.  0.
         12    1    3    3    0    0 -0.13538430592E+02  0.34171907180E+02  0.21842323054E+01  0.36820907294E+02  0.00000000000E+00 0. -1.
         11    1    4    4    0    0  0.10201076666E+02  0.81126639195E+00 -0.11602429201E+01  0.10298848586E+02  0.51100000000E-03 0. -1.
        -11    1    4    4    0    0  0.12955488163E+02 -0.19315813679E+02  0.65838890334E+01  0.24172151884E+02  0.51100000000E-03 0.  1.
        -12    1    4    4    0    0 -0.96181342371E+01 -0.15667359893E+02 -0.76078784187E+01  0.19896092235E+02  0.00000000000E+00 0.  1.
</event>
<event>
 8    1  0.1240174E-006  0.9118800E+02  0.7816164E-02  0.1184000E+00
        -11   -1    0    0    0    0  0.00000000000E+00  0.00000000000E+00  0.45593999997E+02  0.45594000000E+02  0.51100000000E-03 0.  1.
         11   -1    0    0    0    0 -0.00000000000E+00 -0.00000000000E+00 -0.45593999997E+02  0.45594000000E+02  0.51100000000E-03 0. -1.
         23    2    1    2    0    0 -0.71054273576E-14  0.44408920985E-15  0.00000000000E+00  0.91188000000E+02  0.91188000000E+02 0.  0.
    9900012    2    3    3    0    0 -0.36703693212E+02 -0.37661977245E+00  0.29116540529E+01  0.54367072973E+02  0.39999974456E+02 0.  0.
        -12    1    3    3    0    0  0.36703693212E+02  0.37661977245E+00 -0.29116540529E+01  0.36820927027E+02  0.00000000000E+00 0.  1.
         11    1    4    4    0    0 -0.21436738641E+02 -0.29209706902E+01 -0.76018855079E+01  0.22931517544E+02  0.51100000000E-03 0. -1.
        -11    1    4    4    0    0  0.58947476527E+01  0.43358120423E+01 -0.81972843779E+00  0.73633736105E+01  0.51100000000E-03 0.  1.
        -12    1    4    4    0    0 -0.21161702223E+02 -0.17914611245E+01  0.11333267999E+02  0.24072181818E+02  0.00000000000E+00 0.  1.
</event>
<event>
 8    1  0.1240174E-006  0.9118800E+02  0.7816164E-02  0.1184000E+00
        -11   -1    0    0    0    0  0.00000000000E+00  0.00000000000E+00  0.45593999997E+02  0.45594000000E+02  0.51100000000E-03 0.  1.
         11   -1    0    0    0    0 -0.00000000000E+00 -0.00000000000E+00 -0.45593999997E+02  0.45594000000E+02  0.51100000000E-03 0. -1.
         23    2    1    2    0    0 -0.35527136788E-14  0.17763568394E-14  0.35527136788E-14  0.91188000000E+02  0.91188000000E+02 0.  0.
    9900012    2    3    3    0    0  0.17196711453E+02 -0.11622795732E+02 -0.30413215507E+02  0.54367082807E+02  0.39999996876E+02 0.  0.
        -12    1    3    3    0    0 -0.17196711453E+02  0.11622795732E+02  0.30413215507E+02  0.36820917193E+02  0.00000000000E+00 0.  1.
         11    1    4    4    0    0  0.17254456624E+02 -0.23285450295E+00 -0.22097043959E+02  0.28036580508E+02  0.51100000000E-03 0. -1.
        -11    1    4    4    0    0  0.10819432308E+02 -0.34031366897E+01 -0.23850749029E+01  0.11590083578E+02  0.51100000000E-03 0.  1.
         12    1    4    4    0    0 -0.10877177479E+02 -0.79868045390E+01 -0.59310966458E+01  0.14740418721E+02  0.00000000000E+00 0. -1.
</event>
<event>
 8    1  0.1240174E-006  0.9118800E+02  0.7816164E-02  0.1184000E+00
        -11   -1    0    0    0    0  0.00000000000E+00  0.00000000000E+00  0.45593999997E+02  0.45594000000E+02  0.51100000000E-03 0.  1.
         11   -1    0    0    0    0 -0.00000000000E+00 -0.00000000000E+00 -0.45593999997E+02  0.45594000000E+02  0.51100000000E-03 0. -1.
         23    2    1    2    0    0  0.00000000000E+00  0.00000000000E+00 -0.17763568394E-14  0.91188000000E+02  0.91188000000E+02 0.  0.
    9900012    2    3    3    0    0  0.16334115566E+02 -0.31511021779E+02 -0.97995776052E+01  0.54367088195E+02  0.40000009159E+02 0.  0.
         12    1    3    3    0    0 -0.16334115566E+02  0.31511021779E+02  0.97995776052E+01  0.36820911805E+02  0.00000000000E+00 0. -1.
         11    1    4    4    0    0 -0.13505498943E+01  0.33798663478E+01 -0.16449364908E+01  0.39941579670E+01  0.51100000000E-03 0. -1.
        -11    1    4    4    0    0  0.15454207048E+02 -0.21605342635E+02  0.94596193195E+01  0.28197654934E+02  0.51100000000E-03 0.  1.
        -12    1    4    4    0    0  0.22304584122E+01 -0.13285545492E+02 -0.17614260434E+02  0.22175275295E+02  0.00000000000E+00 0.  1.
</event>
<event>
 8    1  0.1240174E-006  0.9118800E+02  0.7816164E-02  0.1184000E+00
        -11   -1    0    0    0    0  0.00000000000E+00  0.00000000000E+00  0.45593999997E+02  0.45594000000E+02  0.51100000000E-03 0. -1.
         11   -1    0    0    0    0 -0.00000000000E+00 -0.00000000000E+00 -0.45593999997E+02  0.45594000000E+02  0.51100000000E-03 0.  1.
         23    2    1    2    0    0 -0.17763568394E-14  0.00000000000E+00 -0.35527136788E-14  0.91188000000E+02  0.91188000000E+02 0.  0.
    9900012    2    3    3    0    0  0.14852330956E+02  0.14930952776E+02 -0.30203472528E+02  0.54367152123E+02  0.40000154894E+02 0.  0.
         12    1    3    3    0    0 -0.14852330956E+02 -0.14930952776E+02  0.30203472528E+02  0.36820847877E+02  0.00000000000E+00 0. -1.
         11    1    4    4    0    0 -0.85659300678E+01 -0.24380659870E+01  0.18338736066E+01  0.90929872071E+01  0.51100000000E-03 0. -1.
        -11    1    4    4    0    0 -0.64870203887E+00 -0.39617346998E+00 -0.46667945693E+01  0.47282914004E+01  0.51100000000E-03 0.  1.
         12    1    4    4    0    0  0.24066963063E+02  0.17765192233E+02 -0.27370551565E+02  0.40545873515E+02  0.00000000000E+00 0. -1.
</event>
<event>
 8    1  0.1240174E-006  0.9118800E+02  0.7816164E-02  0.1184000E+00
        -11   -1    0    0    0    0  0.00000000000E+00  0.00000000000E+00  0.45593999997E+02  0.45594000000E+02  0.51100000000E-03 0. -1.
         11   -1    0    0    0    0 -0.00000000000E+00 -0.00000000000E+00 -0.45593999997E+02  0.45594000000E+02  0.51100000000E-03 0.  1.
         23    2    1    2    0    0 -0.88817841970E-15  0.71054273576E-14 -0.71054273576E-14  0.91188000000E+02  0.91188000000E+02 0.  0.
    9900012    2    3    3    0    0  0.68754414691E+01 -0.26186460289E+02  0.24955514302E+02  0.54367080784E+02  0.39999992263E+02 0.  0.
        -12    1    3    3    0    0 -0.68754414691E+01  0.26186460289E+02 -0.24955514302E+02  0.36820919216E+02  0.00000000000E+00 0.  1.
         11    1    4    4    0    0  0.27770647311E+01 -0.17562925585E+01  0.23647901033E+01  0.40483187332E+01  0.51100000000E-03 0. -1.
        -11    1    4    4    0    0  0.10735361581E+02  0.65942081695E+01  0.27380367761E+01  0.12892959912E+02  0.51100000000E-03 0.  1.
         12    1    4    4    0    0 -0.66369848427E+01 -0.31024375900E+02  0.19852687422E+02  0.37425802138E+02  0.00000000000E+00 0. -1.
</event>
<event>
 8    1  0.1240174E-006  0.9118800E+02  0.7816164E-02  0.1184000E+00
        -11   -1    0    0    0    0  0.00000000000E+00  0.00000000000E+00  0.45593999997E+02  0.45594000000E+02  0.51100000000E-03 0. -1.
         11   -1    0    0    0    0 -0.00000000000E+00 -0.00000000000E+00 -0.45593999997E+02  0.45594000000E+02  0.51100000000E-03 0.  1.
         23    2    1    2    0    0  0.44408920985E-15  0.00000000000E+00  0.00000000000E+00  0.91188000000E+02  0.91188000000E+02 0.  0.
    9900012    2    3    3    0    0  0.18888527903E+01  0.26424815862E+02 -0.25572328850E+02  0.54367045897E+02  0.39999912732E+02 0.  0.
         12    1    3    3    0    0 -0.18888527903E+01 -0.26424815862E+02  0.25572328850E+02  0.36820954103E+02  0.00000000000E+00 0. -1.
         11    1    4    4    0    0 -0.61324829246E+01  0.55208305415E+01 -0.12577449710E+00  0.82524381957E+01  0.51100000000E-03 0. -1.
        -11    1    4    4    0    0 -0.55275576855E+01  0.21383508092E+02 -0.23781065764E+02  0.32455313917E+02  0.51100000000E-03 0.  1.
         12    1    4    4    0    0  0.13548893400E+02 -0.47952277172E+00 -0.16654885891E+01  0.13659293785E+02  0.00000000000E+00 0. -1.
</event>
<event>
 8    1  0.1240174E-006  0.9118800E+02  0.7816164E-02  0.1184000E+00
        -11   -1    0    0    0    0  0.00000000000E+00  0.00000000000E+00  0.45593999997E+02  0.45594000000E+02  0.51100000000E-03 0.  1.
         11   -1    0    0    0    0 -0.00000000000E+00 -0.00000000000E+00 -0.45593999997E+02  0.45594000000E+02  0.51100000000E-03 0. -1.
         23    2    1    2    0    0 -0.35527136788E-14  0.00000000000E+00  0.71054273576E-14  0.91188000000E+02  0.91188000000E+02 0.  0.
    9900012    2    3    3    0    0 -0.14902775541E+02  0.81496102318E+01  0.32669147695E+02  0.54367053829E+02  0.39999930815E+02 0.  0.
         12    1    3    3    0    0  0.14902775541E+02 -0.81496102318E+01 -0.32669147695E+02  0.36820946171E+02  0.00000000000E+00 0. -1.
         11    1    4    4    0    0  0.15941876065E+01  0.83664022622E+00 -0.45202070311E+01  0.48655598709E+01  0.51100000000E-03 0. -1.
        -11    1    4    4    0    0 -0.10745420021E+02 -0.47400146702E+01  0.20659051913E+01  0.11924753877E+02  0.51100000000E-03 0.  1.
        -12    1    4    4    0    0 -0.57515431272E+01  0.12052984676E+02  0.35123449535E+02  0.37576740082E+02  0.00000000000E+00 0.  1.
</event>
<event>
 8    1  0.1240174E-006  0.9118800E+02  0.7816164E-02  0.1184000E+00
        -11   -1    0    0    0    0  0.00000000000E+00  0.00000000000E+00  0.45593999997E+02  0.45594000000E+02  0.51100000000E-03 0. -1.
         11   -1    0    0    0    0 -0.00000000000E+00 -0.00000000000E+00 -0.45593999997E+02  0.45594000000E+02  0.51100000000E-03 0.  1.
         23    2    1    2    0    0 -0.35527136788E-14  0.11657341759E-14  0.00000000000E+00  0.91188000000E+02  0.91188000000E+02 0.  0.
    9900012    2    3    3    0    0  0.23298105909E+02  0.47855414170E+00  0.28508744742E+02  0.54367091813E+02  0.40000017405E+02 0.  0.
        -12    1    3    3    0    0 -0.23298105909E+02 -0.47855414170E+00 -0.28508744742E+02  0.36820908187E+02  0.00000000000E+00 0.  1.
         11    1    4    4    0    0 -0.67914490341E+01 -0.17898023495E+01  0.77220656844E+01  0.10438269547E+02  0.51100000000E-03 0.  1.
        -11    1    4    4    0    0  0.18393343894E+02  0.11892031114E+02  0.58824041433E+01  0.22679025164E+02  0.51100000000E-03 0. -1.
        -12    1    4    4    0    0  0.11696211049E+02 -0.96236746232E+01  0.14904274914E+02  0.21249797101E+02  0.00000000000E+00 0.  1.
</event>
<event>
 8    1  0.1240174E-006  0.9118800E+02  0.7816164E-02  0.1184000E+00
        -11   -1    0    0    0    0  0.00000000000E+00  0.00000000000E+00  0.45593999997E+02  0.45594000000E+02  0.51100000000E-03 0. -1.
         11   -1    0    0    0    0 -0.00000000000E+00 -0.00000000000E+00 -0.45593999997E+02  0.45594000000E+02  0.51100000000E-03 0.  1.
         23    2    1    2    0    0  0.00000000000E+00  0.00000000000E+00  0.33306690739E-15  0.91188000000E+02  0.91188000000E+02 0.  0.
    9900012    2    3    3    0    0  0.31548348516E+02 -0.18974581766E+02  0.67464658863E+00  0.54366970746E+02  0.39999741410E+02 0.  0.
        -12    1    3    3    0    0 -0.31548348516E+02  0.18974581766E+02 -0.67464658863E+00  0.36821029254E+02  0.00000000000E+00 0.  1.
         11    1    4    4    0    0  0.13395684281E+02 -0.11998549603E+02  0.43922648650E+01  0.18512199784E+02  0.51100000000E-03 0. -1.
        -11    1    4    4    0    0  0.81631652194E+01 -0.15874887293E+02  0.65247780850E+01  0.19005842320E+02  0.51100000000E-03 0.  1.
        -12    1    4    4    0    0  0.99894990155E+01  0.88988551296E+01 -0.10242396361E+02  0.16848928643E+02  0.00000000000E+00 0.  1.
</event>
<event>
 8    1  0.1240174E-006  0.9118800E+02  0.7816164E-02  0.1184000E+00
        -11   -1    0    0    0    0  0.00000000000E+00  0.00000000000E+00  0.45593999997E+02  0.45594000000E+02  0.51100000000E-03 0.  1.
         11   -1    0    0    0    0 -0.00000000000E+00 -0.00000000000E+00 -0.45593999997E+02  0.45594000000E+02  0.51100000000E-03 0. -1.
         23    2    1    2    0    0  0.35527136788E-14  0.71054273576E-14  0.00000000000E+00  0.91188000000E+02  0.91188000000E+02 0.  0.
    9900012    2    3    3    0    0  0.17267923620E+02  0.30228944907E+02  0.11992067180E+02  0.54367082418E+02  0.39999995988E+02 0.  0.
         12    1    3    3    0    0 -0.17267923620E+02 -0.30228944907E+02 -0.11992067180E+02  0.36820917582E+02  0.00000000000E+00 0. -1.
         11    1    4    4    0    0 -0.21693286295E+01 -0.89630979700E+01  0.17561642778E+01  0.93876101939E+01  0.51100000000E-03 0. -1.
        -11    1    4    4    0    0  0.54453881701E+01  0.11897983959E+02  0.39770996633E+01  0.13675949569E+02  0.51100000000E-03 0.  1.
         12    1    4    4    0    0  0.13991864079E+02  0.27294058918E+02  0.62588032392E+01  0.31303522655E+02  0.00000000000E+00 0. -1.
</event>
<event>
 8    1  0.1240174E-006  0.9118800E+02  0.7816164E-02  0.1184000E+00
        -11   -1    0    0    0    0  0.00000000000E+00  0.00000000000E+00  0.45593999997E+02  0.45594000000E+02  0.51100000000E-03 0.  1.
         11   -1    0    0    0    0 -0.00000000000E+00 -0.00000000000E+00 -0.45593999997E+02  0.45594000000E+02  0.51100000000E-03 0. -1.
         23    2    1    2    0    0  0.00000000000E+00 -0.71054273576E-14 -0.17763568394E-14  0.91188000000E+02  0.91188000000E+02 0.  0.
    9900012    2    3    3    0    0  0.81961889199E+01  0.35538059727E+02  0.50645009281E+01  0.54367076986E+02  0.39999983605E+02 0.  0.
         12    1    3    3    0    0 -0.81961889199E+01 -0.35538059727E+02 -0.50645009281E+01  0.36820923014E+02  0.00000000000E+00 0. -1.
         11    1    4    4    0    0 -0.36104213947E+01  0.36734232781E+01 -0.53464475911E+01  0.74238590593E+01  0.51100000000E-03 0. -1.
        -11    1    4    4    0    0 -0.53594827831E+01  0.19297280215E+02 -0.50371651400E+01  0.20651443347E+02  0.51100000000E-03 0.  1.
        -12    1    4    4    0    0  0.17166093098E+02  0.12567356233E+02  0.15448113659E+02  0.26291774580E+02  0.00000000000E+00 0.  1.
</event>
<event>
 8    1  0.1240174E-006  0.9118800E+02  0.7816164E-02  0.1184000E+00
        -11   -1    0    0    0    0  0.00000000000E+00  0.00000000000E+00  0.45593999997E+02  0.45594000000E+02  0.51100000000E-03 0.  1.
         11   -1    0    0    0    0 -0.00000000000E+00 -0.00000000000E+00 -0.45593999997E+02  0.45594000000E+02  0.51100000000E-03 0. -1.
         23    2    1    2    0    0 -0.17763568394E-14 -0.35527136788E-14  0.35527136788E-14  0.91188000000E+02  0.91188000000E+02 0.  0.
    9900012    2    3    3    0    0  0.10135989282E+02  0.29868313931E+02 -0.18998035310E+02  0.54367084728E+02  0.40000001255E+02 0.  0.
        -12    1    3    3    0    0 -0.10135989282E+02 -0.29868313931E+02  0.18998035310E+02  0.36820915272E+02  0.00000000000E+00 0.  1.
         11    1    4    4    0    0  0.56596146837E+01  0.29070656597E+02 -0.52732436899E+01  0.30082244142E+02  0.51100000000E-03 0. -1.
        -11    1    4    4    0    0 -0.69510630028E+00 -0.42004186997E+01 -0.16144686845E+02  0.16696634499E+02  0.51100000000E-03 0.  1.
        -12    1    4    4    0    0  0.51714808982E+01  0.49980760343E+01  0.24198952247E+01  0.75882060873E+01  0.00000000000E+00 0.  1.
</event>
<event>
 8    1  0.1240174E-006  0.9118800E+02  0.7816164E-02  0.1184000E+00
        -11   -1    0    0    0    0  0.00000000000E+00  0.00000000000E+00  0.45593999997E+02  0.45594000000E+02  0.51100000000E-03 0.  1.
         11   -1    0    0    0    0 -0.00000000000E+00 -0.00000000000E+00 -0.45593999997E+02  0.45594000000E+02  0.51100000000E-03 0. -1.
         23    2    1    2    0    0  0.35527136788E-14 -0.35527136788E-14 -0.17763568394E-14  0.91188000000E+02  0.91188000000E+02 0.  0.
    9900012    2    3    3    0    0  0.30748428400E+02  0.18682863310E+02 -0.78271333000E+01  0.54367092268E+02  0.40000018444E+02 0.  0.
        -12    1    3    3    0    0 -0.30748428400E+02 -0.18682863310E+02  0.78271333000E+01  0.36820907732E+02  0.00000000000E+00 0.  1.
         11    1    4    4    0    0  0.22099579285E+02  0.20343679291E+02 -0.86900280259E+00  0.30050155703E+02  0.51100000000E-03 0. -1.
        -11    1    4    4    0    0 -0.28435627975E-01 -0.76005691059E+01  0.44453588684E+01  0.88051504842E+01  0.51100000000E-03 0.  1.
         12    1    4    4    0    0  0.86772847424E+01  0.59397531251E+01 -0.11403489366E+02  0.15511786080E+02  0.00000000000E+00 0. -1.
</event>
<event>
 8    1  0.1240174E-006  0.9118800E+02  0.7816164E-02  0.1184000E+00
        -11   -1    0    0    0    0  0.00000000000E+00  0.00000000000E+00  0.45593999997E+02  0.45594000000E+02  0.51100000000E-03 0.  1.
         11   -1    0    0    0    0 -0.00000000000E+00 -0.00000000000E+00 -0.45593999997E+02  0.45594000000E+02  0.51100000000E-03 0. -1.
         23    2    1    2    0    0  0.00000000000E+00  0.00000000000E+00  0.00000000000E+00  0.91188000000E+02  0.91188000000E+02 0.  0.
    9900012    2    3    3    0    0 -0.28788201609E+02  0.17647473489E+02  0.14682827773E+02  0.54367091485E+02  0.40000016659E+02 0.  0.
         12    1    3    3    0    0  0.28788201609E+02 -0.17647473489E+02 -0.14682827773E+02  0.36820908515E+02  0.00000000000E+00 0. -1.
         11    1    4    4    0    0 -0.12175047378E+02  0.24821846186E+02  0.85946850733E+01  0.28952105942E+02  0.51100000000E-03 0.  1.
        -11    1    4    4    0    0 -0.92027007039E+01 -0.64962984090E+01 -0.47853889289E+01  0.12238935441E+02  0.51100000000E-03 0. -1.
         12    1    4    4    0    0 -0.74104535271E+01 -0.67807428730E+00  0.10873531629E+02  0.13176050102E+02  0.00000000000E+00 0. -1.
</event>
<event>
 8    1  0.1240174E-006  0.9118800E+02  0.7816164E-02  0.1184000E+00
        -11   -1    0    0    0    0  0.00000000000E+00  0.00000000000E+00  0.45593999997E+02  0.45594000000E+02  0.51100000000E-03 0.  1.
         11   -1    0    0    0    0 -0.00000000000E+00 -0.00000000000E+00 -0.45593999997E+02  0.45594000000E+02  0.51100000000E-03 0. -1.
         23    2    1    2    0    0  0.00000000000E+00  0.71054273576E-14 -0.17763568394E-14  0.91188000000E+02  0.91188000000E+02 0.  0.
    9900012    2    3    3    0    0 -0.79554362675E+01  0.32384663678E+02 -0.15611647026E+02  0.54367096554E+02  0.40000028213E+02 0.  0.
        -12    1    3    3    0    0  0.79554362675E+01 -0.32384663678E+02  0.15611647026E+02  0.36820903446E+02  0.00000000000E+00 0.  1.
         11    1    4    4    0    0  0.51017662977E-01  0.22465265486E+02 -0.75506902787E+01  0.23700288608E+02  0.51100000000E-03 0. -1.
        -11    1    4    4    0    0 -0.17361874526E+02  0.10324344417E+02 -0.60864538260E+01  0.21096722379E+02  0.51100000000E-03 0.  1.
        -12    1    4    4    0    0  0.93554205956E+01 -0.40494622457E+00 -0.19745029211E+01  0.95700855666E+01  0.00000000000E+00 0.  1.
</event>
<event>
 8    1  0.1240174E-006  0.9118800E+02  0.7816164E-02  0.1184000E+00
        -11   -1    0    0    0    0  0.00000000000E+00  0.00000000000E+00  0.45593999997E+02  0.45594000000E+02  0.51100000000E-03 0. -1.
         11   -1    0    0    0    0 -0.00000000000E+00 -0.00000000000E+00 -0.45593999997E+02  0.45594000000E+02  0.51100000000E-03 0.  1.
         23    2    1    2    0    0  0.35527136788E-14  0.00000000000E+00  0.00000000000E+00  0.91188000000E+02  0.91188000000E+02 0.  0.
    9900012    2    3    3    0    0 -0.29284481580E+02 -0.86875753894E+01  0.20560264850E+02  0.54367091289E+02  0.40000016212E+02 0.  0.
        -12    1    3    3    0    0  0.29284481580E+02  0.86875753894E+01 -0.20560264850E+02  0.36820908711E+02  0.00000000000E+00 0.  1.
         11    1    4    4    0    0 -0.12352561562E+02 -0.54941984860E+00  0.34219389384E+01  0.12829548148E+02  0.51100000000E-03 0. -1.
        -11    1    4    4    0    0 -0.19436474538E+02 -0.11022481100E+02 -0.16116171782E+01  0.22402431615E+02  0.51100000000E-03 0.  1.
        -12    1    4    4    0    0  0.25045545197E+01  0.28843255588E+01  0.18749943090E+02  0.19135111527E+02  0.00000000000E+00 0.  1.
</event>
<event>
 8    1  0.1240174E-006  0.9118800E+02  0.7816164E-02  0.1184000E+00
        -11   -1    0    0    0    0  0.00000000000E+00  0.00000000000E+00  0.45593999997E+02  0.45594000000E+02  0.51100000000E-03 0.  1.
         11   -1    0    0    0    0 -0.00000000000E+00 -0.00000000000E+00 -0.45593999997E+02  0.45594000000E+02  0.51100000000E-03 0. -1.
         23    2    1    2    0    0  0.00000000000E+00  0.00000000000E+00  0.00000000000E+00  0.91188000000E+02  0.91188000000E+02 0.  0.
    9900012    2    3    3    0    0 -0.82590010220E+01  0.10883652331E+02 -0.34192313382E+02  0.54367091804E+02  0.40000017387E+02 0.  0.
        -12    1    3    3    0    0  0.82590010220E+01 -0.10883652331E+02  0.34192313382E+02  0.36820908196E+02  0.00000000000E+00 0.  1.
         11    1    4    4    0    0 -0.34488212756E+01 -0.13250011521E+02 -0.21855368737E+02  0.25789810321E+02  0.51100000000E-03 0.  1.
        -11    1    4    4    0    0 -0.26933064982E+01  0.17322520879E+01 -0.22789577738E+01  0.39304256748E+01  0.51100000000E-03 0. -1.
        -12    1    4    4    0    0 -0.21168732482E+01  0.22401411764E+02 -0.10057986871E+02  0.24646855809E+02  0.00000000000E+00 0.  1.
</event>
<event>
 8    1  0.1240174E-006  0.9118800E+02  0.7816164E-02  0.1184000E+00
        -11   -1    0    0    0    0  0.00000000000E+00  0.00000000000E+00  0.45593999997E+02  0.45594000000E+02  0.51100000000E-03 0.  1.
         11   -1    0    0    0    0 -0.00000000000E+00 -0.00000000000E+00 -0.45593999997E+02  0.45594000000E+02  0.51100000000E-03 0. -1.
         23    2    1    2    0    0 -0.17763568394E-14  0.00000000000E+00  0.35527136788E-14  0.91188000000E+02  0.91188000000E+02 0.  0.
    9900012    2    3    3    0    0 -0.14163763228E+02 -0.15618913479E+02  0.30186434873E+02  0.54367034540E+02  0.39999886841E+02 0.  0.
         12    1    3    3    0    0  0.14163763228E+02  0.15618913479E+02 -0.30186434873E+02  0.36820965460E+02  0.00000000000E+00 0. -1.
         11    1    4    4    0    0  0.77269594275E+01  0.43509861760E+00  0.51623644313E+01  0.93029683211E+01  0.51100000000E-03 0. -1.
        -11    1    4    4    0    0 -0.29018270630E+00 -0.15287573975E+02  0.14302082714E+02  0.20936659100E+02  0.51100000000E-03 0.  1.
         12    1    4    4    0    0 -0.21600539949E+02 -0.76643812229E+00  0.10721987727E+02  0.24127407120E+02  0.00000000000E+00 0. -1.
</event>
<event>
 8    1  0.1240174E-006  0.9118800E+02  0.7816164E-02  0.1184000E+00
        -11   -1    0    0    0    0  0.00000000000E+00  0.00000000000E+00  0.45593999997E+02  0.45594000000E+02  0.51100000000E-03 0. -1.
         11   -1    0    0    0    0 -0.00000000000E+00 -0.00000000000E+00 -0.45593999997E+02  0.45594000000E+02  0.51100000000E-03 0.  1.
         23    2    1    2    0    0  0.35527136788E-14  0.00000000000E+00  0.00000000000E+00  0.91188000000E+02  0.91188000000E+02 0.  0.
    9900012    2    3    3    0    0  0.15901428334E+02  0.27287903068E+02 -0.18928636371E+02  0.54367104414E+02  0.40000046133E+02 0.  0.
         12    1    3    3    0    0 -0.15901428334E+02 -0.27287903068E+02  0.18928636371E+02  0.36820895586E+02  0.00000000000E+00 0. -1.
         11    1    4    4    0    0  0.30729597145E+01  0.64502166765E+01  0.63681763312E+01  0.95708958111E+01  0.51100000000E-03 0. -1.
        -11    1    4    4    0    0 -0.26353923108E+01 -0.23753209103E+01  0.33028532029E+01  0.48472963186E+01  0.51100000000E-03 0.  1.
        -12    1    4    4    0    0  0.15463860930E+02  0.23213007302E+02 -0.28599665905E+02  0.39948912284E+02  0.00000000000E+00 0.  1.
</event>
<event>
 8    1  0.1240174E-006  0.9118800E+02  0.7816164E-02  0.1184000E+00
        -11   -1    0    0    0    0  0.00000000000E+00  0.00000000000E+00  0.45593999997E+02  0.45594000000E+02  0.51100000000E-03 0. -1.
         11   -1    0    0    0    0 -0.00000000000E+00 -0.00000000000E+00 -0.45593999997E+02  0.45594000000E+02  0.51100000000E-03 0.  1.
         23    2    1    2    0    0 -0.71054273576E-14  0.17763568394E-14  0.35527136788E-14  0.91188000000E+02  0.91188000000E+02 0.  0.
    9900012    2    3    3    0    0 -0.34795521786E+02 -0.87369149172E+01  0.82896209159E+01  0.54367084292E+02  0.40000000261E+02 0.  0.
        -12    1    3    3    0    0  0.34795521786E+02  0.87369149172E+01 -0.82896209159E+01  0.36820915708E+02  0.00000000000E+00 0.  1.
         11    1    4    4    0    0 -0.26719756800E+02 -0.13207905338E+02 -0.97319764285E+01  0.31354513748E+02  0.51100000000E-03 0. -1.
        -11    1    4    4    0    0  0.13234233081E+01 -0.22880847419E+01  0.24120187789E+01  0.35783537960E+01  0.51100000000E-03 0.  1.
         12    1    4    4    0    0 -0.93991882935E+01  0.67590751630E+01  0.15609578566E+02  0.19434216749E+02  0.00000000000E+00 0. -1.
</event>
<event>
 8    1  0.1240174E-006  0.9118800E+02  0.7816164E-02  0.1184000E+00
        -11   -1    0    0    0    0  0.00000000000E+00  0.00000000000E+00  0.45593999997E+02  0.45594000000E+02  0.51100000000E-03 0.  1.
         11   -1    0    0    0    0 -0.00000000000E+00 -0.00000000000E+00 -0.45593999997E+02  0.45594000000E+02  0.51100000000E-03 0. -1.
         23    2    1    2    0    0 -0.35527136788E-14  0.00000000000E+00  0.00000000000E+00  0.91188000000E+02  0.91188000000E+02 0.  0.
    9900012    2    3    3    0    0 -0.27763842414E+02  0.44577306892E+00 -0.24181601146E+02  0.54367088914E+02  0.40000010798E+02 0.  0.
        -12    1    3    3    0    0  0.27763842414E+02 -0.44577306892E+00  0.24181601146E+02  0.36820911086E+02  0.00000000000E+00 0.  1.
         11    1    4    4    0    0 -0.20872127071E+02  0.59562309581E-01 -0.25411129835E+02  0.32884263043E+02  0.51100000000E-03 0. -1.
        -11    1    4    4    0    0  0.30448161748E+01  0.23928330720E+01 -0.72810594376E+01  0.82468407553E+01  0.51100000000E-03 0.  1.
        -12    1    4    4    0    0 -0.99365315181E+01 -0.20066223127E+01  0.85105881270E+01  0.13235985116E+02  0.00000000000E+00 0.  1.
</event>
<event>
 8    1  0.1240174E-006  0.9118800E+02  0.7816164E-02  0.1184000E+00
        -11   -1    0    0    0    0  0.00000000000E+00  0.00000000000E+00  0.45593999997E+02  0.45594000000E+02  0.51100000000E-03 0.  1.
         11   -1    0    0    0    0 -0.00000000000E+00 -0.00000000000E+00 -0.45593999997E+02  0.45594000000E+02  0.51100000000E-03 0. -1.
         23    2    1    2    0    0  0.00000000000E+00 -0.22204460493E-15  0.13322676296E-14  0.91188000000E+02  0.91188000000E+02 0.  0.
    9900012    2    3    3    0    0  0.36672049168E+02  0.17989728116E+01 -0.27768086040E+01  0.54366998393E+02  0.39999804436E+02 0.  0.
         12    1    3    3    0    0 -0.36672049168E+02 -0.17989728116E+01  0.27768086040E+01  0.36821001607E+02  0.00000000000E+00 0. -1.
         11    1    4    4    0    0  0.16020854617E+02 -0.59466215892E+01  0.69704193033E+01  0.18455807663E+02  0.51100000000E-03 0. -1.
        -11    1    4    4    0    0  0.52872514802E+01  0.13218358575E+02  0.37710692312E+01  0.14727559032E+02  0.51100000000E-03 0.  1.
         12    1    4    4    0    0  0.15363943070E+02 -0.54727641740E+01 -0.13518297139E+02  0.21183631698E+02  0.00000000000E+00 0. -1.
</event>
<event>
 8    1  0.1240174E-006  0.9118800E+02  0.7816164E-02  0.1184000E+00
        -11   -1    0    0    0    0  0.00000000000E+00  0.00000000000E+00  0.45593999997E+02  0.45594000000E+02  0.51100000000E-03 0.  1.
         11   -1    0    0    0    0 -0.00000000000E+00 -0.00000000000E+00 -0.45593999997E+02  0.45594000000E+02  0.51100000000E-03 0. -1.
         23    2    1    2    0    0  0.17763568394E-14  0.00000000000E+00  0.88817841970E-15  0.91188000000E+02  0.91188000000E+02 0.  0.
    9900012    2    3    3    0    0  0.15214234755E+02 -0.33121426889E+02  0.52227949314E+01  0.54367089566E+02  0.40000012283E+02 0.  0.
        -12    1    3    3    0    0 -0.15214234755E+02  0.33121426889E+02 -0.52227949314E+01  0.36820910434E+02  0.00000000000E+00 0.  1.
         11    1    4    4    0    0  0.57813754180E+01 -0.74097832275E+01 -0.85768005379E+01  0.12723627507E+02  0.51100000000E-03 0. -1.
        -11    1    4    4    0    0  0.13825855730E+02 -0.29306110347E+02  0.15208218843E+02  0.35795143679E+02  0.51100000000E-03 0.  1.
        -12    1    4    4    0    0 -0.43929963936E+01  0.35944666854E+01 -0.14086233737E+01  0.58483183802E+01  0.00000000000E+00 0.  1.
</event>
<event>
 8    1  0.1240174E-006  0.9118800E+02  0.7816164E-02  0.1184000E+00
        -11   -1    0    0    0    0  0.00000000000E+00  0.00000000000E+00  0.45593999997E+02  0.45594000000E+02  0.51100000000E-03 0.  1.
         11   -1    0    0    0    0 -0.00000000000E+00 -0.00000000000E+00 -0.45593999997E+02  0.45594000000E+02  0.51100000000E-03 0. -1.
         23    2    1    2    0    0  0.00000000000E+00  0.00000000000E+00  0.00000000000E+00  0.91188000000E+02  0.91188000000E+02 0.  0.
    9900012    2    3    3    0    0  0.17010964004E+02 -0.14403580059E+02 -0.29307804135E+02  0.54367035889E+02  0.39999889915E+02 0.  0.
        -12    1    3    3    0    0 -0.17010964004E+02  0.14403580059E+02  0.29307804135E+02  0.36820964111E+02  0.00000000000E+00 0.  1.
         11    1    4    4    0    0  0.15404778796E+02 -0.24169447626E+02 -0.16866583680E+02  0.33255842398E+02  0.51100000000E-03 0. -1.
        -11    1    4    4    0    0 -0.19415116262E+01  0.82482216567E+01 -0.14457305115E+02  0.16757574387E+02  0.51100000000E-03 0.  1.
        -12    1    4    4    0    0  0.35476968345E+01  0.15176459109E+01  0.20160846597E+01  0.43536191031E+01  0.00000000000E+00 0.  1.
</event>
<event>
 8    1  0.1240174E-006  0.9118800E+02  0.7816164E-02  0.1184000E+00
        -11   -1    0    0    0    0  0.00000000000E+00  0.00000000000E+00  0.45593999997E+02  0.45594000000E+02  0.51100000000E-03 0. -1.
         11   -1    0    0    0    0 -0.00000000000E+00 -0.00000000000E+00 -0.45593999997E+02  0.45594000000E+02  0.51100000000E-03 0.  1.
         23    2    1    2    0    0  0.00000000000E+00  0.00000000000E+00 -0.35527136788E-14  0.91188000000E+02  0.91188000000E+02 0.  0.
    9900012    2    3    3    0    0  0.22191162562E+02  0.21942064212E+02  0.19541744655E+02  0.54367059465E+02  0.39999943662E+02 0.  0.
        -12    1    3    3    0    0 -0.22191162562E+02 -0.21942064212E+02 -0.19541744655E+02  0.36820940535E+02  0.00000000000E+00 0.  1.
         11    1    4    4    0    0  0.16383831177E+02  0.47839768575E+01 -0.64006674825E+01  0.18228683526E+02  0.51100000000E-03 0.  1.
        -11    1    4    4    0    0 -0.10684364368E+01  0.65431039791E+01  0.21868137908E+02  0.22851022339E+02  0.51100000000E-03 0. -1.
        -12    1    4    4    0    0  0.68757678224E+01  0.10614983375E+02  0.40742742298E+01  0.13287353600E+02  0.00000000000E+00 0.  1.
</event>
<event>
 8    1  0.1240174E-006  0.9118800E+02  0.7816164E-02  0.1184000E+00
        -11   -1    0    0    0    0  0.00000000000E+00  0.00000000000E+00  0.45593999997E+02  0.45594000000E+02  0.51100000000E-03 0. -1.
         11   -1    0    0    0    0 -0.00000000000E+00 -0.00000000000E+00 -0.45593999997E+02  0.45594000000E+02  0.51100000000E-03 0.  1.
         23    2    1    2    0    0  0.00000000000E+00  0.00000000000E+00 -0.35527136788E-14  0.91188000000E+02  0.91188000000E+02 0.  0.
    9900012    2    3    3    0    0  0.13372021814E+02  0.15793611674E+02 -0.30455449081E+02  0.54367034290E+02  0.39999886270E+02 0.  0.
         12    1    3    3    0    0 -0.13372021814E+02 -0.15793611674E+02  0.30455449081E+02  0.36820965710E+02  0.00000000000E+00 0. -1.
         11    1    4    4    0    0 -0.62536546272E+01 -0.57648774992E+01 -0.22172791995E+01  0.87896721262E+01  0.51100000000E-03 0. -1.
        -11    1    4    4    0    0  0.14670904893E+00 -0.16468153097E+01  0.21193877146E+01  0.26879971643E+01  0.51100000000E-03 0.  1.
        -12    1    4    4    0    0  0.19478967392E+02  0.23205304483E+02 -0.30357557596E+02  0.42889364999E+02  0.00000000000E+00 0.  1.
</event>
<event>
 8    1  0.1240174E-006  0.9118800E+02  0.7816164E-02  0.1184000E+00
        -11   -1    0    0    0    0  0.00000000000E+00  0.00000000000E+00  0.45593999997E+02  0.45594000000E+02  0.51100000000E-03 0.  1.
         11   -1    0    0    0    0 -0.00000000000E+00 -0.00000000000E+00 -0.45593999997E+02  0.45594000000E+02  0.51100000000E-03 0. -1.
         23    2    1    2    0    0 -0.11102230246E-15 -0.35527136788E-14  0.00000000000E+00  0.91188000000E+02  0.91188000000E+02 0.  0.
    9900012    2    3    3    0    0 -0.70617756932E+00  0.16387389787E+02 -0.32965680415E+02  0.54367064162E+02  0.39999954369E+02 0.  0.
        -12    1    3    3    0    0  0.70617756932E+00 -0.16387389787E+02  0.32965680415E+02  0.36820935838E+02  0.00000000000E+00 0.  1.
         11    1    4    4    0    0  0.10343948544E+02  0.43244208432E+01 -0.20789636296E+02  0.23620052174E+02  0.51100000000E-03 0. -1.
        -11    1    4    4    0    0 -0.11591250326E+01  0.11770398220E+02  0.33885749624E+01  0.12303181931E+02  0.51100000000E-03 0.  1.
         12    1    4    4    0    0 -0.98910010807E+01  0.29257072368E+00 -0.15564619082E+02  0.18443830057E+02  0.00000000000E+00 0. -1.
</event>
<event>
 8    1  0.1240174E-006  0.9118800E+02  0.7816164E-02  0.1184000E+00
        -11   -1    0    0    0    0  0.00000000000E+00  0.00000000000E+00  0.45593999997E+02  0.45594000000E+02  0.51100000000E-03 0.  1.
         11   -1    0    0    0    0 -0.00000000000E+00 -0.00000000000E+00 -0.45593999997E+02  0.45594000000E+02  0.51100000000E-03 0. -1.
         23    2    1    2    0    0  0.00000000000E+00  0.00000000000E+00  0.00000000000E+00  0.91188000000E+02  0.91188000000E+02 0.  0.
    9900012    2    3    3    0    0  0.64125219244E+01 -0.10125924226E+02  0.34815582116E+02  0.54367088320E+02  0.40000009443E+02 0.  0.
         12    1    3    3    0    0 -0.64125219244E+01  0.10125924226E+02 -0.34815582116E+02  0.36820911680E+02  0.00000000000E+00 0. -1.
         11    1    4    4    0    0  0.10320648662E+01 -0.79396267451E+00 -0.51360736651E+01  0.52985646708E+01  0.51100000000E-03 0. -1.
        -11    1    4    4    0    0 -0.89231050625E+00 -0.16664986559E+02  0.33598480490E+02  0.37515008817E+02  0.51100000000E-03 0.  1.
        -12    1    4    4    0    0  0.62727675645E+01  0.73330250081E+01  0.63531752917E+01  0.11553514832E+02  0.00000000000E+00 0.  1.
</event>
<event>
 8    1  0.1240174E-006  0.9118800E+02  0.7816164E-02  0.1184000E+00
        -11   -1    0    0    0    0  0.00000000000E+00  0.00000000000E+00  0.45593999997E+02  0.45594000000E+02  0.51100000000E-03 0. -1.
         11   -1    0    0    0    0 -0.00000000000E+00 -0.00000000000E+00 -0.45593999997E+02  0.45594000000E+02  0.51100000000E-03 0.  1.
         23    2    1    2    0    0  0.00000000000E+00 -0.17763568394E-14 -0.35527136788E-14  0.91188000000E+02  0.91188000000E+02 0.  0.
    9900012    2    3    3    0    0  0.23934404200E+02 -0.11637349809E+02  0.25445943551E+02  0.54367086674E+02  0.40000005690E+02 0.  0.
        -12    1    3    3    0    0 -0.23934404200E+02  0.11637349809E+02 -0.25445943551E+02  0.36820913326E+02  0.00000000000E+00 0.  1.
         11    1    4    4    0    0  0.14822172235E+02 -0.13190847088E+02  0.17776369865E+02  0.26640093140E+02  0.51100000000E-03 0. -1.
        -11    1    4    4    0    0  0.63043552405E+01  0.12411662818E+02  0.87773078634E+01  0.16457077581E+02  0.51100000000E-03 0.  1.
        -12    1    4    4    0    0  0.28078767247E+01 -0.10858165539E+02 -0.11077341783E+01  0.11269915953E+02  0.00000000000E+00 0.  1.
</event>
<event>
 8    1  0.1240174E-006  0.9118800E+02  0.7816164E-02  0.1184000E+00
        -11   -1    0    0    0    0  0.00000000000E+00  0.00000000000E+00  0.45593999997E+02  0.45594000000E+02  0.51100000000E-03 0.  1.
         11   -1    0    0    0    0 -0.00000000000E+00 -0.00000000000E+00 -0.45593999997E+02  0.45594000000E+02  0.51100000000E-03 0. -1.
         23    2    1    2    0    0  0.00000000000E+00  0.35527136788E-14  0.00000000000E+00  0.91188000000E+02  0.91188000000E+02 0.  0.
    9900012    2    3    3    0    0  0.16629336052E+02 -0.26367284246E+02 -0.19596210223E+02  0.54367082695E+02  0.39999996620E+02 0.  0.
         12    1    3    3    0    0 -0.16629336052E+02  0.26367284246E+02  0.19596210223E+02  0.36820917305E+02  0.00000000000E+00 0. -1.
         11    1    4    4    0    0  0.23409988395E+02 -0.98718440744E+01 -0.21300160712E+01  0.25495447257E+02  0.51100000000E-03 0. -1.
        -11    1    4    4    0    0 -0.16191794677E+01 -0.12077762027E+02 -0.25056799831E+01  0.12440760032E+02  0.51100000000E-03 0.  1.
         12    1    4    4    0    0 -0.51614728751E+01 -0.44176781446E+01 -0.14960514169E+02  0.16430875406E+02  0.00000000000E+00 0. -1.
</event>
<event>
 8    1  0.1240174E-006  0.9118800E+02  0.7816164E-02  0.1184000E+00
        -11   -1    0    0    0    0  0.00000000000E+00  0.00000000000E+00  0.45593999997E+02  0.45594000000E+02  0.51100000000E-03 0.  1.
         11   -1    0    0    0    0 -0.00000000000E+00 -0.00000000000E+00 -0.45593999997E+02  0.45594000000E+02  0.51100000000E-03 0. -1.
         23    2    1    2    0    0  0.00000000000E+00 -0.17763568394E-14  0.00000000000E+00  0.91188000000E+02  0.91188000000E+02 0.  0.
    9900012    2    3    3    0    0  0.19129912077E+02  0.99587448929E+01 -0.29843768167E+02  0.54367073419E+02  0.39999975472E+02 0.  0.
        -12    1    3    3    0    0 -0.19129912077E+02 -0.99587448929E+01  0.29843768167E+02  0.36820926581E+02  0.00000000000E+00 0.  1.
         11    1    4    4    0    0  0.11343790723E+02 -0.99976051683E+01 -0.15992399781E+02  0.22008874303E+02  0.51100000000E-03 0. -1.
        -11    1    4    4    0    0  0.39616986013E+01  0.88103960985E+01  0.44145870801E+01  0.10621050540E+02  0.51100000000E-03 0.  1.
         12    1    4    4    0    0  0.38244227535E+01  0.11145953963E+02 -0.18265955465E+02  0.21737148576E+02  0.00000000000E+00 0. -1.
</event>
<event>
 8    1  0.1240174E-006  0.9118800E+02  0.7816164E-02  0.1184000E+00
        -11   -1    0    0    0    0  0.00000000000E+00  0.00000000000E+00  0.45593999997E+02  0.45594000000E+02  0.51100000000E-03 0.  1.
         11   -1    0    0    0    0 -0.00000000000E+00 -0.00000000000E+00 -0.45593999997E+02  0.45594000000E+02  0.51100000000E-03 0. -1.
         23    2    1    2    0    0  0.00000000000E+00  0.00000000000E+00 -0.71054273576E-14  0.91188000000E+02  0.91188000000E+02 0.  0.
    9900012    2    3    3    0    0 -0.47725579793E+01 -0.10911973457E+02  0.34841483314E+02  0.54367116878E+02  0.40000074546E+02 0.  0.
         12    1    3    3    0    0  0.47725579793E+01  0.10911973457E+02 -0.34841483314E+02  0.36820883122E+02  0.00000000000E+00 0. -1.
         11    1    4    4    0    0 -0.68257300576E+01 -0.52323749381E+01 -0.67631656479E+01  0.10941149307E+02  0.51100000000E-03 0. -1.
        -11    1    4    4    0    0 -0.18197980449E+01 -0.59299171091E+01  0.11446674942E+02  0.13019291429E+02  0.51100000000E-03 0.  1.
         12    1    4    4    0    0  0.38729701232E+01  0.25031858993E+00  0.30157974020E+02  0.30406676141E+02  0.00000000000E+00 0. -1.
</event>
<event>
 8    1  0.1240174E-006  0.9118800E+02  0.7816164E-02  0.1184000E+00
        -11   -1    0    0    0    0  0.00000000000E+00  0.00000000000E+00  0.45593999997E+02  0.45594000000E+02  0.51100000000E-03 0.  1.
         11   -1    0    0    0    0 -0.00000000000E+00 -0.00000000000E+00 -0.45593999997E+02  0.45594000000E+02  0.51100000000E-03 0. -1.
         23    2    1    2    0    0 -0.88817841970E-15  0.00000000000E+00 -0.17763568394E-14  0.91188000000E+02  0.91188000000E+02 0.  0.
    9900012    2    3    3    0    0  0.75524374100E+01 -0.35322285782E+02  0.71468361828E+01  0.54367075906E+02  0.39999981143E+02 0.  0.
         12    1    3    3    0    0 -0.75524374100E+01  0.35322285782E+02 -0.71468361828E+01  0.36820924094E+02  0.00000000000E+00 0. -1.
         11    1    4    4    0    0 -0.93992838521E+00  0.36750952884E+01  0.10777525087E+02  0.11425621997E+02  0.51100000000E-03 0. -1.
        -11    1    4    4    0    0 -0.40330802741E+01 -0.71046904221E+01  0.14667683059E+01  0.83002272267E+01  0.51100000000E-03 0.  1.
        -12    1    4    4    0    0  0.12525446069E+02 -0.31892690649E+02 -0.50974572105E+01  0.34641226682E+02  0.00000000000E+00 0.  1.
</event>
<event>
 8    1  0.1240174E-006  0.9118800E+02  0.7816164E-02  0.1184000E+00
        -11   -1    0    0    0    0  0.00000000000E+00  0.00000000000E+00  0.45593999997E+02  0.45594000000E+02  0.51100000000E-03 0.  1.
         11   -1    0    0    0    0 -0.00000000000E+00 -0.00000000000E+00 -0.45593999997E+02  0.45594000000E+02  0.51100000000E-03 0. -1.
         23    2    1    2    0    0  0.71054273576E-14 -0.22204460493E-15  0.00000000000E+00  0.91188000000E+02  0.91188000000E+02 0.  0.
    9900012    2    3    3    0    0  0.36450613724E+02 -0.85895594391E+00  0.51376113941E+01  0.54367080715E+02  0.39999992105E+02 0.  0.
        -12    1    3    3    0    0 -0.36450613724E+02  0.85895594391E+00 -0.51376113941E+01  0.36820919285E+02  0.00000000000E+00 0.  1.
         11    1    4    4    0    0  0.41525021702E+02 -0.15571147307E+01 -0.32374108605E+01  0.41680125516E+02  0.51100000000E-03 0. -1.
        -11    1    4    4    0    0  0.33203686475E+00  0.20456649722E+01 -0.56920583628E+00  0.21491833805E+01  0.51100000000E-03 0.  1.
         12    1    4    4    0    0 -0.54064448426E+01 -0.13475061854E+01  0.89442280909E+01  0.10537771818E+02  0.00000000000E+00 0. -1.
</event>
<event>
 8    1  0.1240174E-006  0.9118800E+02  0.7816164E-02  0.1184000E+00
        -11   -1    0    0    0    0  0.00000000000E+00  0.00000000000E+00  0.45593999997E+02  0.45594000000E+02  0.51100000000E-03 0. -1.
         11   -1    0    0    0    0 -0.00000000000E+00 -0.00000000000E+00 -0.45593999997E+02  0.45594000000E+02  0.51100000000E-03 0.  1.
         23    2    1    2    0    0 -0.35527136788E-14  0.55511151231E-16 -0.35527136788E-14  0.91188000000E+02  0.91188000000E+02 0.  0.
    9900012    2    3    3    0    0 -0.23980941473E+02 -0.34639446009E+00 -0.27938776105E+02  0.54367071803E+02  0.39999971790E+02 0.  0.
         12    1    3    3    0    0  0.23980941473E+02  0.34639446009E+00  0.27938776105E+02  0.36820928197E+02  0.00000000000E+00 0. -1.
         11    1    4    4    0    0 -0.13915154254E+01  0.66072684554E+01 -0.20017982174E+00  0.67551745975E+01  0.51100000000E-03 0. -1.
        -11    1    4    4    0    0  0.57330935162E+01 -0.72630276582E+01 -0.12178845429E+02  0.15295234822E+02  0.51100000000E-03 0.  1.
        -12    1    4    4    0    0 -0.28322519563E+02  0.30936474271E+00 -0.15559750854E+02  0.32316662383E+02  0.00000000000E+00 0.  1.
</event>
<event>
 8    1  0.1240174E-006  0.9118800E+02  0.7816164E-02  0.1184000E+00
        -11   -1    0    0    0    0  0.00000000000E+00  0.00000000000E+00  0.45593999997E+02  0.45594000000E+02  0.51100000000E-03 0.  1.
         11   -1    0    0    0    0 -0.00000000000E+00 -0.00000000000E+00 -0.45593999997E+02  0.45594000000E+02  0.51100000000E-03 0. -1.
         23    2    1    2    0    0  0.88817841970E-15  0.00000000000E+00  0.00000000000E+00  0.91188000000E+02  0.91188000000E+02 0.  0.
    9900012    2    3    3    0    0  0.46171432172E+01 -0.25390813109E+02  0.26263441601E+02  0.54367085202E+02  0.40000002334E+02 0.  0.
         12    1    3    3    0    0 -0.46171432172E+01  0.25390813109E+02 -0.26263441601E+02  0.36820914798E+02  0.00000000000E+00 0. -1.
         11    1    4    4    0    0 -0.10641608337E+02 -0.76997966283E+00  0.69302062878E+01  0.12722596281E+02  0.51100000000E-03 0. -1.
        -11    1    4    4    0    0  0.19635241691E+02 -0.19226530086E+02  0.84816748786E+01  0.28760058839E+02  0.51100000000E-03 0.  1.
        -12    1    4    4    0    0 -0.43764901373E+01 -0.53943033606E+01  0.10851560435E+02  0.12884430082E+02  0.00000000000E+00 0.  1.
</event>
<event>
 8    1  0.1240174E-006  0.9118800E+02  0.7816164E-02  0.1184000E+00
        -11   -1    0    0    0    0  0.00000000000E+00  0.00000000000E+00  0.45593999997E+02  0.45594000000E+02  0.51100000000E-03 0.  1.
         11   -1    0    0    0    0 -0.00000000000E+00 -0.00000000000E+00 -0.45593999997E+02  0.45594000000E+02  0.51100000000E-03 0. -1.
         23    2    1    2    0    0  0.00000000000E+00 -0.88817841970E-15  0.71054273576E-14  0.91188000000E+02  0.91188000000E+02 0.  0.
    9900012    2    3    3    0    0  0.16648707470E+02 -0.73524316643E+01  0.32008517615E+02  0.54367042493E+02  0.39999904972E+02 0.  0.
         12    1    3    3    0    0 -0.16648707470E+02  0.73524316643E+01 -0.32008517615E+02  0.36820957507E+02  0.00000000000E+00 0. -1.
         11    1    4    4    0    0 -0.70007040360E+01 -0.67918886212E+01  0.24745975676E+02  0.26598927055E+02  0.51100000000E-03 0.  1.
        -11    1    4    4    0    0  0.79320072855E+01 -0.54319726814E+01  0.58474412930E+01  0.11252361384E+02  0.51100000000E-03 0. -1.
         12    1    4    4    0    0  0.15717404220E+02  0.48714296383E+01  0.14151006459E+01  0.16515754054E+02  0.00000000000E+00 0. -1.
</event>
<event>
 8    1  0.1240174E-006  0.9118800E+02  0.7816164E-02  0.1184000E+00
        -11   -1    0    0    0    0  0.00000000000E+00  0.00000000000E+00  0.45593999997E+02  0.45594000000E+02  0.51100000000E-03 0. -1.
         11   -1    0    0    0    0 -0.00000000000E+00 -0.00000000000E+00 -0.45593999997E+02  0.45594000000E+02  0.51100000000E-03 0.  1.
         23    2    1    2    0    0  0.44408920985E-15  0.88817841970E-15 -0.71054273576E-14  0.91188000000E+02  0.91188000000E+02 0.  0.
    9900012    2    3    3    0    0  0.30225627314E+01  0.57175178743E+01  0.36248490838E+02  0.54367095826E+02  0.40000026555E+02 0.  0.
        -12    1    3    3    0    0 -0.30225627314E+01 -0.57175178743E+01 -0.36248490838E+02  0.36820904174E+02  0.00000000000E+00 0.  1.
         11    1    4    4    0    0  0.11751040650E+01  0.12355509788E+02  0.27801624984E+02  0.30446179460E+02  0.51100000000E-03 0. -1.
        -11    1    4    4    0    0 -0.96268082773E+01 -0.38212539413E+01  0.55723979196E+01  0.11761336579E+02  0.51100000000E-03 0.  1.
        -12    1    4    4    0    0  0.11474266944E+02 -0.28167379727E+01  0.28744679349E+01  0.12159579788E+02  0.00000000000E+00 0.  1.
</event>
<event>
 8    1  0.1240174E-006  0.9118800E+02  0.7816164E-02  0.1184000E+00
        -11   -1    0    0    0    0  0.00000000000E+00  0.00000000000E+00  0.45593999997E+02  0.45594000000E+02  0.51100000000E-03 0.  1.
         11   -1    0    0    0    0 -0.00000000000E+00 -0.00000000000E+00 -0.45593999997E+02  0.45594000000E+02  0.51100000000E-03 0. -1.
         23    2    1    2    0    0  0.00000000000E+00  0.00000000000E+00  0.00000000000E+00  0.91188000000E+02  0.91188000000E+02 0.  0.
    9900012    2    3    3    0    0  0.26590107444E+02 -0.24902661588E+02  0.53483030693E+01  0.54367072340E+02  0.39999973013E+02 0.  0.
        -12    1    3    3    0    0 -0.26590107444E+02  0.24902661588E+02 -0.53483030693E+01  0.36820927660E+02  0.00000000000E+00 0.  1.
         11    1    4    4    0    0  0.94742527579E+01 -0.22385233918E+01  0.66932840333E+01  0.11814080739E+02  0.51100000000E-03 0. -1.
        -11    1    4    4    0    0 -0.20169104313E+01  0.55878315168E+01  0.50990263426E+01  0.78289117157E+01  0.51100000000E-03 0.  1.
        -12    1    4    4    0    0  0.19132765117E+02 -0.28251969713E+02 -0.64440073066E+01  0.34724079885E+02  0.00000000000E+00 0.  1.
</event>
<event>
 8    1  0.1240174E-006  0.9118800E+02  0.7816164E-02  0.1184000E+00
        -11   -1    0    0    0    0  0.00000000000E+00  0.00000000000E+00  0.45593999997E+02  0.45594000000E+02  0.51100000000E-03 0. -1.
         11   -1    0    0    0    0 -0.00000000000E+00 -0.00000000000E+00 -0.45593999997E+02  0.45594000000E+02  0.51100000000E-03 0.  1.
         23    2    1    2    0    0 -0.13322676296E-14  0.35527136788E-14  0.35527136788E-14  0.91188000000E+02  0.91188000000E+02 0.  0.
    9900012    2    3    3    0    0 -0.32449523221E+00  0.25266734616E+02  0.26781802026E+02  0.54367107899E+02  0.40000054077E+02 0.  0.
        -12    1    3    3    0    0  0.32449523221E+00 -0.25266734616E+02 -0.26781802026E+02  0.36820892101E+02  0.00000000000E+00 0.  1.
         11    1    4    4    0    0  0.57462397881E+00 -0.37760031186E+01  0.33439311264E+01  0.50764424460E+01  0.51100000000E-03 0. -1.
        -11    1    4    4    0    0  0.15005169709E+02  0.13690530455E+02  0.16356035614E+02  0.26078835162E+02  0.51100000000E-03 0.  1.
         12    1    4    4    0    0 -0.15904288920E+02  0.15352207280E+02  0.70818352859E+01  0.23211830291E+02  0.00000000000E+00 0. -1.
</event>
<event>
 8    1  0.1240174E-006  0.9118800E+02  0.7816164E-02  0.1184000E+00
        -11   -1    0    0    0    0  0.00000000000E+00  0.00000000000E+00  0.45593999997E+02  0.45594000000E+02  0.51100000000E-03 0.  1.
         11   -1    0    0    0    0 -0.00000000000E+00 -0.00000000000E+00 -0.45593999997E+02  0.45594000000E+02  0.51100000000E-03 0. -1.
         23    2    1    2    0    0  0.88817841970E-15 -0.35527136788E-14 -0.35527136788E-14  0.91188000000E+02  0.91188000000E+02 0.  0.
    9900012    2    3    3    0    0  0.74069228381E+01  0.23449907028E+02  0.27404727910E+02  0.54367085327E+02  0.40000002620E+02 0.  0.
         12    1    3    3    0    0 -0.74069228381E+01 -0.23449907028E+02 -0.27404727910E+02  0.36820914673E+02  0.00000000000E+00 0. -1.
         11    1    4    4    0    0 -0.43900916025E+01  0.20374469221E+02  0.74291577895E+01  0.22126551608E+02  0.51100000000E-03 0. -1.
        -11    1    4    4    0    0  0.10550141859E+01  0.10770814919E+02  0.14111944584E+02  0.17783995309E+02  0.51100000000E-03 0.  1.
         12    1    4    4    0    0  0.10742000255E+02 -0.76953771122E+01  0.58636255357E+01  0.14456538410E+02  0.00000000000E+00 0. -1.
</event>
<event>
 8    1  0.1240174E-006  0.9118800E+02  0.7816164E-02  0.1184000E+00
        -11   -1    0    0    0    0  0.00000000000E+00  0.00000000000E+00  0.45593999997E+02  0.45594000000E+02  0.51100000000E-03 0. -1.
         11   -1    0    0    0    0 -0.00000000000E+00 -0.00000000000E+00 -0.45593999997E+02  0.45594000000E+02  0.51100000000E-03 0.  1.
         23    2    1    2    0    0  0.35527136788E-14  0.00000000000E+00  0.00000000000E+00  0.91188000000E+02  0.91188000000E+02 0.  0.
    9900012    2    3    3    0    0 -0.23571876708E+02 -0.24170244883E+02 -0.14695035653E+02  0.54367106718E+02  0.40000051385E+02 0.  0.
         12    1    3    3    0    0  0.23571876708E+02  0.24170244883E+02  0.14695035653E+02  0.36820893282E+02  0.00000000000E+00 0. -1.
         11    1    4    4    0    0 -0.86583526321E+01 -0.63504067656E+01 -0.90859197111E+01  0.14065869104E+02  0.51100000000E-03 0. -1.
        -11    1    4    4    0    0 -0.95149983746E+01 -0.14289008097E+02 -0.18896903706E+02  0.25530450768E+02  0.51100000000E-03 0.  1.
         12    1    4    4    0    0 -0.53985257010E+01 -0.35308300204E+01  0.13287787765E+02  0.14770786846E+02  0.00000000000E+00 0. -1.
</event>
<event>
 8    1  0.1240174E-006  0.9118800E+02  0.7816164E-02  0.1184000E+00
        -11   -1    0    0    0    0  0.00000000000E+00  0.00000000000E+00  0.45593999997E+02  0.45594000000E+02  0.51100000000E-03 0.  1.
         11   -1    0    0    0    0 -0.00000000000E+00 -0.00000000000E+00 -0.45593999997E+02  0.45594000000E+02  0.51100000000E-03 0. -1.
         23    2    1    2    0    0  0.17763568394E-14 -0.53290705182E-14  0.35527136788E-14  0.91188000000E+02  0.91188000000E+02 0.  0.
    9900012    2    3    3    0    0 -0.14951575477E+02  0.15925347619E+02 -0.29641426716E+02  0.54367075462E+02  0.39999980131E+02 0.  0.
        -12    1    3    3    0    0  0.14951575477E+02 -0.15925347619E+02  0.29641426716E+02  0.36820924538E+02  0.00000000000E+00 0.  1.
         11    1    4    4    0    0  0.79322060964E+01 -0.21922489944E+01 -0.12039204887E+02  0.14583151367E+02  0.51100000000E-03 0. -1.
        -11    1    4    4    0    0 -0.93277692880E+01  0.75350152405E+00 -0.14892782295E+02  0.17588917226E+02  0.51100000000E-03 0.  1.
        -12    1    4    4    0    0 -0.13556012285E+02  0.17364095090E+02 -0.27094395345E+01  0.22195006870E+02  0.00000000000E+00 0.  1.
</event>
<event>
 8    1  0.1240174E-006  0.9118800E+02  0.7816164E-02  0.1184000E+00
        -11   -1    0    0    0    0  0.00000000000E+00  0.00000000000E+00  0.45593999997E+02  0.45594000000E+02  0.51100000000E-03 0. -1.
         11   -1    0    0    0    0 -0.00000000000E+00 -0.00000000000E+00 -0.45593999997E+02  0.45594000000E+02  0.51100000000E-03 0.  1.
         23    2    1    2    0    0  0.35527136788E-14  0.17763568394E-14  0.00000000000E+00  0.91188000000E+02  0.91188000000E+02 0.  0.
    9900012    2    3    3    0    0 -0.31670712557E+02 -0.92703833959E+01 -0.16334012418E+02  0.54367163455E+02  0.40000180728E+02 0.  0.
         12    1    3    3    0    0  0.31670712557E+02  0.92703833959E+01  0.16334012418E+02  0.36820836545E+02  0.00000000000E+00 0. -1.
         11    1    4    4    0    0 -0.15712402274E+02  0.57291247847E+01 -0.17737448701E+02  0.24378669831E+02  0.51100000000E-03 0.  1.
        -11    1    4    4    0    0 -0.19238125430E+02 -0.11347900764E+02 -0.39974012498E+01  0.22690516495E+02  0.51100000000E-03 0. -1.
        -12    1    4    4    0    0  0.32798151470E+01 -0.36516074167E+01  0.54008375327E+01  0.72979771293E+01  0.00000000000E+00 0.  1.
</event>
<event>
 8    1  0.1240174E-006  0.9118800E+02  0.7816164E-02  0.1184000E+00
        -11   -1    0    0    0    0  0.00000000000E+00  0.00000000000E+00  0.45593999997E+02  0.45594000000E+02  0.51100000000E-03 0. -1.
         11   -1    0    0    0    0 -0.00000000000E+00 -0.00000000000E+00 -0.45593999997E+02  0.45594000000E+02  0.51100000000E-03 0.  1.
         23    2    1    2    0    0 -0.71054273576E-14  0.17763568394E-14  0.00000000000E+00  0.91188000000E+02  0.91188000000E+02 0.  0.
    9900012    2    3    3    0    0 -0.34190355219E+02 -0.13263718495E+02  0.32966822959E+01  0.54367153561E+02  0.40000158173E+02 0.  0.
        -12    1    3    3    0    0  0.34190355219E+02  0.13263718495E+02 -0.32966822959E+01  0.36820846439E+02  0.00000000000E+00 0.  1.
         11    1    4    4    0    0 -0.55482433322E+01 -0.22682299162E+02  0.39424385811E+01  0.23681480562E+02  0.51100000000E-03 0. -1.
        -11    1    4    4    0    0 -0.25808392294E+02  0.69342772866E+01  0.55806776559E+00  0.26729548335E+02  0.51100000000E-03 0.  1.
         12    1    4    4    0    0 -0.28337195924E+01  0.24843033804E+01 -0.12038240507E+01  0.39561246643E+01  0.00000000000E+00 0. -1.
</event>
<event>
 8    1  0.1240174E-006  0.9118800E+02  0.7816164E-02  0.1184000E+00
        -11   -1    0    0    0    0  0.00000000000E+00  0.00000000000E+00  0.45593999997E+02  0.45594000000E+02  0.51100000000E-03 0. -1.
         11   -1    0    0    0    0 -0.00000000000E+00 -0.00000000000E+00 -0.45593999997E+02  0.45594000000E+02  0.51100000000E-03 0.  1.
         23    2    1    2    0    0  0.00000000000E+00  0.00000000000E+00  0.00000000000E+00  0.91188000000E+02  0.91188000000E+02 0.  0.
    9900012    2    3    3    0    0 -0.24728408175E+02 -0.16254585409E+02  0.21910594147E+02  0.54367084021E+02  0.39999999642E+02 0.  0.
        -12    1    3    3    0    0  0.24728408175E+02  0.16254585409E+02 -0.21910594147E+02  0.36820915979E+02  0.00000000000E+00 0.  1.
         11    1    4    4    0    0 -0.81157543600E+01 -0.14270491700E+02  0.28366212628E+02  0.32774295131E+02  0.51100000000E-03 0. -1.
        -11    1    4    4    0    0 -0.24706870029E+01  0.39184021431E+01 -0.39029388080E+01  0.60573179891E+01  0.51100000000E-03 0.  1.
         12    1    4    4    0    0 -0.14141966812E+02 -0.59024958525E+01 -0.25526796731E+01  0.15535470901E+02  0.00000000000E+00 0. -1.
</event>
<event>
 8    1  0.1240174E-006  0.9118800E+02  0.7816164E-02  0.1184000E+00
        -11   -1    0    0    0    0  0.00000000000E+00  0.00000000000E+00  0.45593999997E+02  0.45594000000E+02  0.51100000000E-03 0.  1.
         11   -1    0    0    0    0 -0.00000000000E+00 -0.00000000000E+00 -0.45593999997E+02  0.45594000000E+02  0.51100000000E-03 0. -1.
         23    2    1    2    0    0  0.00000000000E+00 -0.22204460493E-15  0.00000000000E+00  0.91188000000E+02  0.91188000000E+02 0.  0.
    9900012    2    3    3    0    0 -0.33028219213E+02 -0.26564671168E+00  0.16274113455E+02  0.54367073867E+02  0.39999976494E+02 0.  0.
         12    1    3    3    0    0  0.33028219213E+02  0.26564671168E+00 -0.16274113455E+02  0.36820926133E+02  0.00000000000E+00 0. -1.
         11    1    4    4    0    0  0.12611928955E+01 -0.35669596097E+01 -0.49481438877E+01  0.62287989671E+01  0.51100000000E-03 0. -1.
        -11    1    4    4    0    0 -0.35329460271E+02  0.59449589053E+01  0.10922869782E+02  0.37454270570E+02  0.51100000000E-03 0.  1.
        -12    1    4    4    0    0  0.10400481621E+01 -0.26436460073E+01  0.10299387560E+02  0.10684004329E+02  0.00000000000E+00 0.  1.
</event>
<event>
 8    1  0.1240174E-006  0.9118800E+02  0.7816164E-02  0.1184000E+00
        -11   -1    0    0    0    0  0.00000000000E+00  0.00000000000E+00  0.45593999997E+02  0.45594000000E+02  0.51100000000E-03 0.  1.
         11   -1    0    0    0    0 -0.00000000000E+00 -0.00000000000E+00 -0.45593999997E+02  0.45594000000E+02  0.51100000000E-03 0. -1.
         23    2    1    2    0    0  0.00000000000E+00 -0.35527136788E-14  0.35527136788E-14  0.91188000000E+02  0.91188000000E+02 0.  0.
    9900012    2    3    3    0    0 -0.24133060031E+02 -0.21618705105E+02  0.17493055297E+02  0.54367082297E+02  0.39999995712E+02 0.  0.
         12    1    3    3    0    0  0.24133060031E+02  0.21618705105E+02 -0.17493055297E+02  0.36820917703E+02  0.00000000000E+00 0. -1.
         11    1    4    4    0    0 -0.63811208297E+01 -0.12822998677E+02  0.24878309405E+02  0.28706763615E+02  0.51100000000E-03 0. -1.
        -11    1    4    4    0    0  0.18935633341E+01 -0.14318690660E+01  0.15727043990E+01  0.28476710678E+01  0.51100000000E-03 0.  1.
         12    1    4    4    0    0 -0.19645502536E+02 -0.73638373615E+01 -0.89579585071E+01  0.22812647614E+02  0.00000000000E+00 0. -1.
</event>
<event>
 8    1  0.1240174E-006  0.9118800E+02  0.7816164E-02  0.1184000E+00
        -11   -1    0    0    0    0  0.00000000000E+00  0.00000000000E+00  0.45593999997E+02  0.45594000000E+02  0.51100000000E-03 0.  1.
         11   -1    0    0    0    0 -0.00000000000E+00 -0.00000000000E+00 -0.45593999997E+02  0.45594000000E+02  0.51100000000E-03 0. -1.
         23    2    1    2    0    0  0.19984014443E-14  0.00000000000E+00  0.00000000000E+00  0.91188000000E+02  0.91188000000E+02 0.  0.
    9900012    2    3    3    0    0 -0.86454505978E+00 -0.35286043740E+02  0.10484463932E+02  0.54367132209E+02  0.40000109496E+02 0.  0.
         12    1    3    3    0    0  0.86454505978E+00  0.35286043740E+02 -0.10484463932E+02  0.36820867791E+02  0.00000000000E+00 0. -1.
         11    1    4    4    0    0 -0.10118849688E+02 -0.26755638426E+02  0.34208342152E+01  0.28808981474E+02  0.51100000000E-03 0. -1.
        -11    1    4    4    0    0 -0.14352480651E+01 -0.12842927762E+02  0.25087022612E+01  0.13164129967E+02  0.51100000000E-03 0.  1.
         12    1    4    4    0    0  0.10689552693E+02  0.43125224478E+01  0.45549274553E+01  0.12394020767E+02  0.00000000000E+00 0. -1.
</event>
<event>
 8    1  0.1240174E-006  0.9118800E+02  0.7816164E-02  0.1184000E+00
        -11   -1    0    0    0    0  0.00000000000E+00  0.00000000000E+00  0.45593999997E+02  0.45594000000E+02  0.51100000000E-03 0.  1.
         11   -1    0    0    0    0 -0.00000000000E+00 -0.00000000000E+00 -0.45593999997E+02  0.45594000000E+02  0.51100000000E-03 0. -1.
         23    2    1    2    0    0  0.88817841970E-15  0.00000000000E+00  0.00000000000E+00  0.91188000000E+02  0.91188000000E+02 0.  0.
    9900012    2    3    3    0    0 -0.27187783862E+01 -0.15532915043E+02  0.33273349393E+02  0.54367095809E+02  0.40000026516E+02 0.  0.
         12    1    3    3    0    0  0.27187783862E+01  0.15532915043E+02 -0.33273349393E+02  0.36820904191E+02  0.00000000000E+00 0. -1.
         11    1    4    4    0    0  0.16878466566E+01 -0.17858846845E+01  0.32113277302E+01  0.40436167591E+01  0.51100000000E-03 0. -1.
        -11    1    4    4    0    0  0.10725287039E+02  0.82897263753E+01  0.87306422937E+01  0.16123754543E+02  0.51100000000E-03 0.  1.
         12    1    4    4    0    0 -0.15131912081E+02 -0.22036756734E+02  0.21331379369E+02  0.34199724507E+02  0.00000000000E+00 0. -1.
</event>
<event>
 8    1  0.1240174E-006  0.9118800E+02  0.7816164E-02  0.1184000E+00
        -11   -1    0    0    0    0  0.00000000000E+00  0.00000000000E+00  0.45593999997E+02  0.45594000000E+02  0.51100000000E-03 0.  1.
         11   -1    0    0    0    0 -0.00000000000E+00 -0.00000000000E+00 -0.45593999997E+02  0.45594000000E+02  0.51100000000E-03 0. -1.
         23    2    1    2    0    0  0.00000000000E+00  0.00000000000E+00  0.71054273576E-14  0.91188000000E+02  0.91188000000E+02 0.  0.
    9900012    2    3    3    0    0 -0.98578735425E+01 -0.62579792911E+01 -0.34920471637E+02  0.54367091335E+02  0.40000016316E+02 0.  0.
        -12    1    3    3    0    0  0.98578735425E+01  0.62579792911E+01  0.34920471637E+02  0.36820908665E+02  0.00000000000E+00 0.  1.
         11    1    4    4    0    0  0.10445215404E+02 -0.23113462535E+01 -0.80585780756E+01  0.13393488238E+02  0.51100000000E-03 0. -1.
        -11    1    4    4    0    0 -0.15437069151E+01 -0.61652884538E+00  0.42095425263E+01  0.45258576424E+01  0.51100000000E-03 0.  1.
        -12    1    4    4    0    0 -0.18759382031E+02 -0.33301041922E+01 -0.31071436088E+02  0.36447745454E+02  0.00000000000E+00 0.  1.
</event>
<event>
 8    1  0.1240174E-006  0.9118800E+02  0.7816164E-02  0.1184000E+00
        -11   -1    0    0    0    0  0.00000000000E+00  0.00000000000E+00  0.45593999997E+02  0.45594000000E+02  0.51100000000E-03 0. -1.
         11   -1    0    0    0    0 -0.00000000000E+00 -0.00000000000E+00 -0.45593999997E+02  0.45594000000E+02  0.51100000000E-03 0.  1.
         23    2    1    2    0    0  0.88817841970E-15 -0.13322676296E-14  0.00000000000E+00  0.91188000000E+02  0.91188000000E+02 0.  0.
    9900012    2    3    3    0    0 -0.75175930884E+01 -0.24145347246E+01 -0.35964358055E+02  0.54367092432E+02  0.40000018817E+02 0.  0.
         12    1    3    3    0    0  0.75175930884E+01  0.24145347246E+01  0.35964358055E+02  0.36820907568E+02  0.00000000000E+00 0. -1.
         11    1    4    4    0    0 -0.37457746413E+01 -0.16848825592E+02 -0.18974900439E+02  0.25650742649E+02  0.51100000000E-03 0. -1.
        -11    1    4    4    0    0 -0.10794686345E+02  0.10011876244E+02 -0.12293942064E+02  0.19180821958E+02  0.51100000000E-03 0.  1.
        -12    1    4    4    0    0  0.70228678983E+01  0.44224146232E+01 -0.46955155519E+01  0.95355278258E+01  0.00000000000E+00 0.  1.
</event>
<event>
 8    1  0.1240174E-006  0.9118800E+02  0.7816164E-02  0.1184000E+00
        -11   -1    0    0    0    0  0.00000000000E+00  0.00000000000E+00  0.45593999997E+02  0.45594000000E+02  0.51100000000E-03 0.  1.
         11   -1    0    0    0    0 -0.00000000000E+00 -0.00000000000E+00 -0.45593999997E+02  0.45594000000E+02  0.51100000000E-03 0. -1.
         23    2    1    2    0    0  0.17763568394E-14  0.00000000000E+00  0.00000000000E+00  0.91188000000E+02  0.91188000000E+02 0.  0.
    9900012    2    3    3    0    0 -0.11367256712E+02 -0.12282155467E+02 -0.32798115691E+02  0.54367051330E+02  0.39999925118E+02 0.  0.
        -12    1    3    3    0    0  0.11367256712E+02  0.12282155467E+02  0.32798115691E+02  0.36820948670E+02  0.00000000000E+00 0.  1.
         11    1    4    4    0    0 -0.14365375108E+02 -0.31341257967E+01 -0.30827437895E+02  0.34154321453E+02  0.51100000000E-03 0. -1.
        -11    1    4    4    0    0  0.45440799933E+01 -0.14152118281E+02 -0.11112505867E+01  0.14905233743E+02  0.51100000000E-03 0.  1.
        -12    1    4    4    0    0 -0.15459615974E+01  0.50040886104E+01 -0.85942720913E+00  0.53074961337E+01  0.00000000000E+00 0.  1.
</event>
<event>
 8    1  0.1240174E-006  0.9118800E+02  0.7816164E-02  0.1184000E+00
        -11   -1    0    0    0    0  0.00000000000E+00  0.00000000000E+00  0.45593999997E+02  0.45594000000E+02  0.51100000000E-03 0.  1.
         11   -1    0    0    0    0 -0.00000000000E+00 -0.00000000000E+00 -0.45593999997E+02  0.45594000000E+02  0.51100000000E-03 0. -1.
         23    2    1    2    0    0  0.17763568394E-14 -0.71054273576E-14  0.00000000000E+00  0.91188000000E+02  0.91188000000E+02 0.  0.
    9900012    2    3    3    0    0  0.11380468165E+02 -0.33897124593E+02  0.87892124062E+01  0.54367077061E+02  0.39999983777E+02 0.  0.
         12    1    3    3    0    0 -0.11380468165E+02  0.33897124593E+02 -0.87892124062E+01  0.36820922939E+02  0.00000000000E+00 0. -1.
         11    1    4    4    0    0  0.20501892457E+01 -0.17966287309E+02  0.13415825690E+02  0.22516108341E+02  0.51100000000E-03 0. -1.
        -11    1    4    4    0    0  0.35884659881E+01 -0.19994255815E+02  0.40167297831E+01  0.20707039194E+02  0.51100000000E-03 0.  1.
         12    1    4    4    0    0  0.57418129315E+01  0.40634185318E+01 -0.86433430673E+01  0.11143929526E+02  0.00000000000E+00 0. -1.
</event>
<event>
 8    1  0.1240174E-006  0.9118800E+02  0.7816164E-02  0.1184000E+00
        -11   -1    0    0    0    0  0.00000000000E+00  0.00000000000E+00  0.45593999997E+02  0.45594000000E+02  0.51100000000E-03 0. -1.
         11   -1    0    0    0    0 -0.00000000000E+00 -0.00000000000E+00 -0.45593999997E+02  0.45594000000E+02  0.51100000000E-03 0.  1.
         23    2    1    2    0    0  0.00000000000E+00  0.00000000000E+00  0.00000000000E+00  0.91188000000E+02  0.91188000000E+02 0.  0.
    9900012    2    3    3    0    0  0.26265460145E+02 -0.15158656435E+02  0.20883456532E+02  0.54367108942E+02  0.40000056456E+02 0.  0.
        -12    1    3    3    0    0 -0.26265460145E+02  0.15158656435E+02 -0.20883456532E+02  0.36820891058E+02  0.00000000000E+00 0.  1.
         11    1    4    4    0    0  0.51019672987E+01 -0.16950898760E+02  0.16507072693E+02  0.24204265910E+02  0.51100000000E-03 0. -1.
        -11    1    4    4    0    0  0.84841634971E-01  0.85977748792E+00 -0.64088669692E+01  0.64668378302E+01  0.51100000000E-03 0.  1.
        -12    1    4    4    0    0  0.21078651212E+02  0.93246483623E+00  0.10785250808E+02  0.23696005202E+02  0.00000000000E+00 0.  1.
</event>
<event>
 8    1  0.1240174E-006  0.9118800E+02  0.7816164E-02  0.1184000E+00
        -11   -1    0    0    0    0  0.00000000000E+00  0.00000000000E+00  0.45593999997E+02  0.45594000000E+02  0.51100000000E-03 0. -1.
         11   -1    0    0    0    0 -0.00000000000E+00 -0.00000000000E+00 -0.45593999997E+02  0.45594000000E+02  0.51100000000E-03 0.  1.
         23    2    1    2    0    0 -0.44408920985E-15 -0.71054273576E-14 -0.17763568394E-14  0.91188000000E+02  0.91188000000E+02 0.  0.
    9900012    2    3    3    0    0 -0.23330179293E+01 -0.33727124069E+02 -0.14588370302E+02  0.54367049188E+02  0.39999920235E+02 0.  0.
         12    1    3    3    0    0  0.23330179293E+01  0.33727124069E+02  0.14588370302E+02  0.36820950812E+02  0.00000000000E+00 0. -1.
         11    1    4    4    0    0 -0.96587706391E+01 -0.37648076063E+02 -0.72467019239E+01  0.39537123954E+02  0.51100000000E-03 0. -1.
        -11    1    4    4    0    0  0.79705827346E+01 -0.89964442342E+00 -0.46272799651E+01  0.92601981271E+01  0.51100000000E-03 0.  1.
         12    1    4    4    0    0 -0.64483002475E+00  0.48205964183E+01 -0.27143884131E+01  0.55697271070E+01  0.00000000000E+00 0. -1.
</event>
<event>
 8    1  0.1240174E-006  0.9118800E+02  0.7816164E-02  0.1184000E+00
        -11   -1    0    0    0    0  0.00000000000E+00  0.00000000000E+00  0.45593999997E+02  0.45594000000E+02  0.51100000000E-03 0.  1.
         11   -1    0    0    0    0 -0.00000000000E+00 -0.00000000000E+00 -0.45593999997E+02  0.45594000000E+02  0.51100000000E-03 0. -1.
         23    2    1    2    0    0  0.44408920985E-15 -0.35527136788E-14  0.00000000000E+00  0.91188000000E+02  0.91188000000E+02 0.  0.
    9900012    2    3    3    0    0 -0.33056310253E+01 -0.27574259689E+02  0.24176721623E+02  0.54367070323E+02  0.39999968414E+02 0.  0.
         12    1    3    3    0    0  0.33056310253E+01  0.27574259689E+02 -0.24176721623E+02  0.36820929677E+02  0.00000000000E+00 0. -1.
         11    1    4    4    0    0 -0.68345843363E+01  0.20496140645E+01  0.18551931259E+02  0.19876785821E+02  0.51100000000E-03 0. -1.
        -11    1    4    4    0    0  0.36371011170E+01  0.65938169222E+00  0.42523619697E-01  0.36966332346E+01  0.51100000000E-03 0.  1.
        -12    1    4    4    0    0 -0.10814780601E+00 -0.30283255446E+02  0.55822667436E+01  0.30793651267E+02  0.00000000000E+00 0.  1.
</event>
<event>
 8    1  0.1240174E-006  0.9118800E+02  0.7816164E-02  0.1184000E+00
        -11   -1    0    0    0    0  0.00000000000E+00  0.00000000000E+00  0.45593999997E+02  0.45594000000E+02  0.51100000000E-03 0. -1.
         11   -1    0    0    0    0 -0.00000000000E+00 -0.00000000000E+00 -0.45593999997E+02  0.45594000000E+02  0.51100000000E-03 0.  1.
         23    2    1    2    0    0  0.00000000000E+00 -0.88817841970E-15  0.00000000000E+00  0.91188000000E+02  0.91188000000E+02 0.  0.
    9900012    2    3    3    0    0  0.28678677801E+02 -0.49126846632E+01 -0.22564962360E+02  0.54367101622E+02  0.40000039768E+02 0.  0.
         12    1    3    3    0    0 -0.28678677801E+02  0.49126846632E+01  0.22564962360E+02  0.36820898378E+02  0.00000000000E+00 0. -1.
         11    1    4    4    0    0  0.16539523392E+02  0.12422766146E+02 -0.49651657363E+01  0.21272842401E+02  0.51100000000E-03 0. -1.
        -11    1    4    4    0    0  0.76180665753E+01 -0.88052159863E+01 -0.20003411638E+02  0.23145263972E+02  0.51100000000E-03 0.  1.
         12    1    4    4    0    0  0.45210878338E+01 -0.85302348230E+01  0.24036150141E+01  0.99489952494E+01  0.00000000000E+00 0. -1.
</event>
<event>
 8    1  0.1240174E-006  0.9118800E+02  0.7816164E-02  0.1184000E+00
        -11   -1    0    0    0    0  0.00000000000E+00  0.00000000000E+00  0.45593999997E+02  0.45594000000E+02  0.51100000000E-03 0.  1.
         11   -1    0    0    0    0 -0.00000000000E+00 -0.00000000000E+00 -0.45593999997E+02  0.45594000000E+02  0.51100000000E-03 0. -1.
         23    2    1    2    0    0  0.88817841970E-15  0.00000000000E+00  0.00000000000E+00  0.91188000000E+02  0.91188000000E+02 0.  0.
    9900012    2    3    3    0    0 -0.55586423198E+01 -0.28334737725E+01  0.36288493745E+02  0.54367056824E+02  0.39999937643E+02 0.  0.
         12    1    3    3    0    0  0.55586423198E+01  0.28334737725E+01 -0.36288493745E+02  0.36820943176E+02  0.00000000000E+00 0. -1.
         11    1    4    4    0    0 -0.11636586004E+01 -0.54063041950E+01  0.90130551526E+01  0.10574374205E+02  0.51100000000E-03 0. -1.
        -11    1    4    4    0    0 -0.42661829167E+01  0.98410653973E+01  0.32898155992E+02  0.34602536796E+02  0.51100000000E-03 0.  1.
         12    1    4    4    0    0 -0.12880080270E+00 -0.72682349749E+01 -0.56227173991E+01  0.91901458229E+01  0.00000000000E+00 0. -1.
</event>
<event>
 8    1  0.1240174E-006  0.9118800E+02  0.7816164E-02  0.1184000E+00
        -11   -1    0    0    0    0  0.00000000000E+00  0.00000000000E+00  0.45593999997E+02  0.45594000000E+02  0.51100000000E-03 0. -1.
         11   -1    0    0    0    0 -0.00000000000E+00 -0.00000000000E+00 -0.45593999997E+02  0.45594000000E+02  0.51100000000E-03 0.  1.
         23    2    1    2    0    0  0.00000000000E+00  0.00000000000E+00  0.00000000000E+00  0.91188000000E+02  0.91188000000E+02 0.  0.
    9900012    2    3    3    0    0 -0.30385029897E+02  0.55382692414E+01  0.20046371923E+02  0.54367088885E+02  0.40000010732E+02 0.  0.
        -12    1    3    3    0    0  0.30385029897E+02 -0.55382692414E+01 -0.20046371923E+02  0.36820911115E+02  0.00000000000E+00 0.  1.
         11    1    4    4    0    0 -0.12552233342E+02  0.77710121104E+01  0.91500636411E+01  0.17368674561E+02  0.51100000000E-03 0. -1.
        -11    1    4    4    0    0 -0.18244288424E+02 -0.41734706468E+00  0.20366888142E+02  0.27346633641E+02  0.51100000000E-03 0.  1.
        -12    1    4    4    0    0  0.41149186843E+00 -0.18153958043E+01 -0.94705798601E+01  0.96517806839E+01  0.00000000000E+00 0.  1.
</event>
<event>
 8    1  0.1240174E-006  0.9118800E+02  0.7816164E-02  0.1184000E+00
        -11   -1    0    0    0    0  0.00000000000E+00  0.00000000000E+00  0.45593999997E+02  0.45594000000E+02  0.51100000000E-03 0.  1.
         11   -1    0    0    0    0 -0.00000000000E+00 -0.00000000000E+00 -0.45593999997E+02  0.45594000000E+02  0.51100000000E-03 0. -1.
         23    2    1    2    0    0  0.00000000000E+00  0.00000000000E+00  0.00000000000E+00  0.91188000000E+02  0.91188000000E+02 0.  0.
    9900012    2    3    3    0    0 -0.12365622343E+02  0.11109749011E+02 -0.32854903815E+02  0.54367084154E+02  0.39999999946E+02 0.  0.
        -12    1    3    3    0    0  0.12365622343E+02 -0.11109749011E+02  0.32854903815E+02  0.36820915846E+02  0.00000000000E+00 0.  1.
         11    1    4    4    0    0  0.23378209051E+01 -0.23864336204E+01 -0.15819356871E+02  0.16168256680E+02  0.51100000000E-03 0. -1.
        -11    1    4    4    0    0 -0.59665441941E+01  0.66495636314E+01 -0.23647449766E+02  0.25278809838E+02  0.51100000000E-03 0.  1.
        -12    1    4    4    0    0 -0.87368990537E+01  0.68466190003E+01  0.66119028214E+01  0.12920017637E+02  0.00000000000E+00 0.  1.
</event>
<event>
 8    1  0.1240174E-006  0.9118800E+02  0.7816164E-02  0.1184000E+00
        -11   -1    0    0    0    0  0.00000000000E+00  0.00000000000E+00  0.45593999997E+02  0.45594000000E+02  0.51100000000E-03 0.  1.
         11   -1    0    0    0    0 -0.00000000000E+00 -0.00000000000E+00 -0.45593999997E+02  0.45594000000E+02  0.51100000000E-03 0. -1.
         23    2    1    2    0    0  0.00000000000E+00  0.00000000000E+00  0.00000000000E+00  0.91188000000E+02  0.91188000000E+02 0.  0.
    9900012    2    3    3    0    0 -0.11918131380E+02 -0.73690690826E+01  0.34050482565E+02  0.54367076632E+02  0.39999982798E+02 0.  0.
         12    1    3    3    0    0  0.11918131380E+02  0.73690690826E+01 -0.34050482565E+02  0.36820923368E+02  0.00000000000E+00 0. -1.
         11    1    4    4    0    0 -0.40356428063E+01 -0.52487784794E+01  0.11219093148E+02  0.13027054146E+02  0.51100000000E-03 0. -1.
        -11    1    4    4    0    0 -0.19163917696E+02  0.12619673920E+01  0.22466840973E+02  0.29556847713E+02  0.51100000000E-03 0.  1.
         12    1    4    4    0    0  0.11281429122E+02 -0.33822579953E+01  0.36454844368E+00  0.11783174773E+02  0.00000000000E+00 0. -1.
</event>
<event>
 8    1  0.1240174E-006  0.9118800E+02  0.7816164E-02  0.1184000E+00
        -11   -1    0    0    0    0  0.00000000000E+00  0.00000000000E+00  0.45593999997E+02  0.45594000000E+02  0.51100000000E-03 0. -1.
         11   -1    0    0    0    0 -0.00000000000E+00 -0.00000000000E+00 -0.45593999997E+02  0.45594000000E+02  0.51100000000E-03 0.  1.
         23    2    1    2    0    0  0.22204460493E-15  0.00000000000E+00  0.17763568394E-14  0.91188000000E+02  0.91188000000E+02 0.  0.
    9900012    2    3    3    0    0  0.52959445882E+00  0.36052625708E+02  0.74637336049E+01  0.54367087327E+02  0.40000007180E+02 0.  0.
        -12    1    3    3    0    0 -0.52959445882E+00 -0.36052625708E+02 -0.74637336049E+01  0.36820912673E+02  0.00000000000E+00 0.  1.
         11    1    4    4    0    0  0.57557300250E+01  0.15461397029E+02  0.13381805261E+02  0.21242785564E+02  0.51100000000E-03 0. -1.
        -11    1    4    4    0    0 -0.13806214210E+02  0.14879479707E+02 -0.92297991871E+01  0.22297974358E+02  0.51100000000E-03 0.  1.
        -12    1    4    4    0    0  0.85800786440E+01  0.57117489716E+01  0.33117275306E+01  0.10826327405E+02  0.00000000000E+00 0.  1.
</event>
<event>
 8    1  0.1240174E-006  0.9118800E+02  0.7816164E-02  0.1184000E+00
        -11   -1    0    0    0    0  0.00000000000E+00  0.00000000000E+00  0.45593999997E+02  0.45594000000E+02  0.51100000000E-03 0.  1.
         11   -1    0    0    0    0 -0.00000000000E+00 -0.00000000000E+00 -0.45593999997E+02  0.45594000000E+02  0.51100000000E-03 0. -1.
         23    2    1    2    0    0  0.00000000000E+00  0.00000000000E+00 -0.35527136788E-14  0.91188000000E+02  0.91188000000E+02 0.  0.
    9900012    2    3    3    0    0  0.10287128536E+02  0.28853380313E+02  0.20431283178E+02  0.54367083372E+02  0.39999998162E+02 0.  0.
         12    1    3    3    0    0 -0.10287128536E+02 -0.28853380313E+02 -0.20431283178E+02  0.36820916628E+02  0.00000000000E+00 0. -1.
         11    1    4    4    0    0  0.29434146801E+01 -0.16102786810E+01  0.69274776400E+01  0.76971835189E+01  0.51100000000E-03 0. -1.
        -11    1    4    4    0    0  0.15860566526E+01 -0.24752544677E+01 -0.68984964732E+01  0.74987808501E+01  0.51100000000E-03 0.  1.
        -12    1    4    4    0    0  0.57576572033E+01  0.32938913462E+02  0.20402302012E+02  0.39171119003E+02  0.00000000000E+00 0.  1.
</event>
<event>
 8    1  0.1240174E-006  0.9118800E+02  0.7816164E-02  0.1184000E+00
        -11   -1    0    0    0    0  0.00000000000E+00  0.00000000000E+00  0.45593999997E+02  0.45594000000E+02  0.51100000000E-03 0. -1.
         11   -1    0    0    0    0 -0.00000000000E+00 -0.00000000000E+00 -0.45593999997E+02  0.45594000000E+02  0.51100000000E-03 0.  1.
         23    2    1    2    0    0  0.00000000000E+00  0.00000000000E+00 -0.71054273576E-14  0.91188000000E+02  0.91188000000E+02 0.  0.
    9900012    2    3    3    0    0  0.11112830430E+02  0.22315811936E+02  0.27097769548E+02  0.54367087776E+02  0.40000008204E+02 0.  0.
        -12    1    3    3    0    0 -0.11112830430E+02 -0.22315811936E+02 -0.27097769548E+02  0.36820912224E+02  0.00000000000E+00 0.  1.
         11    1    4    4    0    0  0.13371863462E+02  0.14771731911E+02  0.28234259065E+02  0.34556970083E+02  0.51100000000E-03 0. -1.
        -11    1    4    4    0    0 -0.32546029650E+01 -0.35961420422E+01 -0.59134288478E+01  0.76480925103E+01  0.51100000000E-03 0.  1.
        -12    1    4    4    0    0  0.99556993231E+00  0.11140222067E+02  0.47769393303E+01  0.12162025183E+02  0.00000000000E+00 0.  1.
</event>
<event>
 8    1  0.1240174E-006  0.9118800E+02  0.7816164E-02  0.1184000E+00
        -11   -1    0    0    0    0  0.00000000000E+00  0.00000000000E+00  0.45593999997E+02  0.45594000000E+02  0.51100000000E-03 0. -1.
         11   -1    0    0    0    0 -0.00000000000E+00 -0.00000000000E+00 -0.45593999997E+02  0.45594000000E+02  0.51100000000E-03 0.  1.
         23    2    1    2    0    0 -0.35527136788E-14  0.00000000000E+00  0.00000000000E+00  0.91188000000E+02  0.91188000000E+02 0.  0.
    9900012    2    3    3    0    0 -0.31314290763E+02 -0.16488112376E+02  0.10165522460E+02  0.54367075208E+02  0.39999979551E+02 0.  0.
         12    1    3    3    0    0  0.31314290763E+02  0.16488112376E+02 -0.10165522460E+02  0.36820924792E+02  0.00000000000E+00 0. -1.
         11    1    4    4    0    0 -0.70027546887E+01  0.54482893727E+01  0.82867525643E+01  0.12140539471E+02  0.51100000000E-03 0. -1.
        -11    1    4    4    0    0  0.39069851595E+00 -0.78481742256E+01  0.99380382834E+01  0.12669297107E+02  0.51100000000E-03 0.  1.
        -12    1    4    4    0    0 -0.24702234590E+02 -0.14088227523E+02 -0.80592683883E+01  0.29557238630E+02  0.00000000000E+00 0.  1.
</event>
<event>
 8    1  0.1240174E-006  0.9118800E+02  0.7816164E-02  0.1184000E+00
        -11   -1    0    0    0    0  0.00000000000E+00  0.00000000000E+00  0.45593999997E+02  0.45594000000E+02  0.51100000000E-03 0. -1.
         11   -1    0    0    0    0 -0.00000000000E+00 -0.00000000000E+00 -0.45593999997E+02  0.45594000000E+02  0.51100000000E-03 0.  1.
         23    2    1    2    0    0  0.00000000000E+00  0.00000000000E+00  0.00000000000E+00  0.91188000000E+02  0.91188000000E+02 0.  0.
    9900012    2    3    3    0    0 -0.27233894516E+02 -0.11152632850E+02 -0.22129246566E+02  0.54367220764E+02  0.40000311374E+02 0.  0.
        -12    1    3    3    0    0  0.27233894516E+02  0.11152632850E+02  0.22129246566E+02  0.36820779236E+02  0.00000000000E+00 0.  1.
         11    1    4    4    0    0 -0.24330890649E+02 -0.72572987979E+01 -0.43880740039E+01  0.25766563980E+02  0.51100000000E-03 0. -1.
        -11    1    4    4    0    0  0.11119418604E+01 -0.69515293564E+01  0.27045299249E+01  0.75415288549E+01  0.51100000000E-03 0.  1.
         12    1    4    4    0    0 -0.40149457278E+01  0.30561953045E+01 -0.20445702487E+02  0.21059127929E+02  0.00000000000E+00 0. -1.
</event>
<event>
 8    1  0.1240174E-006  0.9118800E+02  0.7816164E-02  0.1184000E+00
        -11   -1    0    0    0    0  0.00000000000E+00  0.00000000000E+00  0.45593999997E+02  0.45594000000E+02  0.51100000000E-03 0. -1.
         11   -1    0    0    0    0 -0.00000000000E+00 -0.00000000000E+00 -0.45593999997E+02  0.45594000000E+02  0.51100000000E-03 0.  1.
         23    2    1    2    0    0  0.00000000000E+00  0.00000000000E+00  0.88817841970E-15  0.91188000000E+02  0.91188000000E+02 0.  0.
    9900012    2    3    3    0    0 -0.34729330647E+02  0.10449474012E+02 -0.63609628614E+01  0.54367085253E+02  0.40000002451E+02 0.  0.
         12    1    3    3    0    0  0.34729330647E+02 -0.10449474012E+02  0.63609628614E+01  0.36820914747E+02  0.00000000000E+00 0. -1.
         11    1    4    4    0    0 -0.15007566538E+01  0.14979295534E+02 -0.55814991829E+01  0.16055674966E+02  0.51100000000E-03 0. -1.
        -11    1    4    4    0    0 -0.64648384919E+01  0.36373808936E+01 -0.63684110535E+01  0.97765707740E+01  0.51100000000E-03 0.  1.
         12    1    4    4    0    0 -0.26763735501E+02 -0.81672024153E+01  0.55889473750E+01  0.28534839513E+02  0.00000000000E+00 0. -1.
</event>
<event>
 8    1  0.1240174E-006  0.9118800E+02  0.7816164E-02  0.1184000E+00
        -11   -1    0    0    0    0  0.00000000000E+00  0.00000000000E+00  0.45593999997E+02  0.45594000000E+02  0.51100000000E-03 0. -1.
         11   -1    0    0    0    0 -0.00000000000E+00 -0.00000000000E+00 -0.45593999997E+02  0.45594000000E+02  0.51100000000E-03 0.  1.
         23    2    1    2    0    0  0.00000000000E+00  0.00000000000E+00 -0.17763568394E-14  0.91188000000E+02  0.91188000000E+02 0.  0.
    9900012    2    3    3    0    0  0.22919027158E+02 -0.25739565223E+02 -0.12960402031E+02  0.54367095006E+02  0.40000024686E+02 0.  0.
         12    1    3    3    0    0 -0.22919027158E+02  0.25739565223E+02  0.12960402031E+02  0.36820904994E+02  0.00000000000E+00 0. -1.
         11    1    4    4    0    0  0.13965351269E+00 -0.47130415627E+01  0.49238822246E+00  0.47407499721E+01  0.51100000000E-03 0. -1.
        -11    1    4    4    0    0  0.14552832264E+02 -0.15607573229E+02  0.10458971816E+02  0.23764918698E+02  0.51100000000E-03 0.  1.
        -12    1    4    4    0    0  0.82265413813E+01 -0.54189504315E+01 -0.23911762070E+02  0.25861426337E+02  0.00000000000E+00 0.  1.
</event>
<event>
 8    1  0.1240174E-006  0.9118800E+02  0.7816164E-02  0.1184000E+00
        -11   -1    0    0    0    0  0.00000000000E+00  0.00000000000E+00  0.45593999997E+02  0.45594000000E+02  0.51100000000E-03 0.  1.
         11   -1    0    0    0    0 -0.00000000000E+00 -0.00000000000E+00 -0.45593999997E+02  0.45594000000E+02  0.51100000000E-03 0. -1.
         23    2    1    2    0    0 -0.35527136788E-14  0.35527136788E-14 -0.17763568394E-14  0.91188000000E+02  0.91188000000E+02 0.  0.
    9900012    2    3    3    0    0  0.30258235365E+02 -0.18757112508E+02  0.94015462504E+01  0.54367093589E+02  0.40000021455E+02 0.  0.
         12    1    3    3    0    0 -0.30258235365E+02  0.18757112508E+02 -0.94015462504E+01  0.36820906411E+02  0.00000000000E+00 0. -1.
         11    1    4    4    0    0  0.50957210001E+01 -0.43600233833E+01  0.14189059043E+00  0.67079288618E+01  0.51100000000E-03 0. -1.
        -11    1    4    4    0    0 -0.55748721550E+01  0.72024876390E+01  0.74290147575E+00  0.91382126588E+01  0.51100000000E-03 0.  1.
        -12    1    4    4    0    0  0.30737386519E+02 -0.21599576764E+02  0.85167541842E+01  0.38520952068E+02  0.00000000000E+00 0.  1.
</event>
<event>
 8    1  0.1240174E-006  0.9118800E+02  0.7816164E-02  0.1184000E+00
        -11   -1    0    0    0    0  0.00000000000E+00  0.00000000000E+00  0.45593999997E+02  0.45594000000E+02  0.51100000000E-03 0.  1.
         11   -1    0    0    0    0 -0.00000000000E+00 -0.00000000000E+00 -0.45593999997E+02  0.45594000000E+02  0.51100000000E-03 0. -1.
         23    2    1    2    0    0  0.00000000000E+00 -0.17763568394E-14  0.00000000000E+00  0.91188000000E+02  0.91188000000E+02 0.  0.
    9900012    2    3    3    0    0 -0.16390994923E+02  0.14678146460E+02  0.29524033317E+02  0.54367065176E+02  0.39999956681E+02 0.  0.
         12    1    3    3    0    0  0.16390994923E+02 -0.14678146460E+02 -0.29524033317E+02  0.36820934824E+02  0.00000000000E+00 0. -1.
         11    1    4    4    0    0 -0.29305597248E+01 -0.19471570914E+01  0.80940359824E+01  0.88257022262E+01  0.51100000000E-03 0. -1.
        -11    1    4    4    0    0 -0.21695822587E+02  0.23403014238E+01  0.52594054538E+01  0.22446538140E+02  0.51100000000E-03 0.  1.
        -12    1    4    4    0    0  0.82353873889E+01  0.14285002127E+02  0.16170591880E+02  0.23094824810E+02  0.00000000000E+00 0.  1.
</event>
<event>
 8    1  0.1240174E-006  0.9118800E+02  0.7816164E-02  0.1184000E+00
        -11   -1    0    0    0    0  0.00000000000E+00  0.00000000000E+00  0.45593999997E+02  0.45594000000E+02  0.51100000000E-03 0. -1.
         11   -1    0    0    0    0 -0.00000000000E+00 -0.00000000000E+00 -0.45593999997E+02  0.45594000000E+02  0.51100000000E-03 0.  1.
         23    2    1    2    0    0  0.00000000000E+00 -0.35527136788E-14  0.00000000000E+00  0.91188000000E+02  0.91188000000E+02 0.  0.
    9900012    2    3    3    0    0  0.24685437544E+02 -0.17235674396E+02  0.21197658525E+02  0.54367081685E+02  0.39999994318E+02 0.  0.
        -12    1    3    3    0    0 -0.24685437544E+02  0.17235674396E+02 -0.21197658525E+02  0.36820918315E+02  0.00000000000E+00 0.  1.
         11    1    4    4    0    0  0.52615011398E+01  0.24307098364E+01  0.69338135263E+01  0.90371187240E+01  0.51100000000E-03 0. -1.
        -11    1    4    4    0    0  0.10054912530E+02 -0.28443763670E+02  0.10641231226E+02  0.31990385430E+02  0.51100000000E-03 0.  1.
        -12    1    4    4    0    0  0.93690238745E+01  0.87773794384E+01  0.36226137722E+01  0.13339577531E+02  0.00000000000E+00 0.  1.
</event>
<event>
 8    1  0.1240174E-006  0.9118800E+02  0.7816164E-02  0.1184000E+00
        -11   -1    0    0    0    0  0.00000000000E+00  0.00000000000E+00  0.45593999997E+02  0.45594000000E+02  0.51100000000E-03 0.  1.
         11   -1    0    0    0    0 -0.00000000000E+00 -0.00000000000E+00 -0.45593999997E+02  0.45594000000E+02  0.51100000000E-03 0. -1.
         23    2    1    2    0    0  0.17763568394E-14  0.00000000000E+00  0.35527136788E-14  0.91188000000E+02  0.91188000000E+02 0.  0.
    9900012    2    3    3    0    0 -0.84518791296E+01 -0.22293186850E+02 -0.28059973632E+02  0.54367047256E+02  0.39999915829E+02 0.  0.
        -12    1    3    3    0    0  0.84518791296E+01  0.22293186850E+02  0.28059973632E+02  0.36820952744E+02  0.00000000000E+00 0.  1.
         11    1    4    4    0    0  0.68061094142E+01 -0.14334300089E+02 -0.15268245225E+02  0.22020776483E+02  0.51100000000E-03 0. -1.
        -11    1    4    4    0    0 -0.14030214630E+01 -0.14018441229E+02 -0.91267143184E+01  0.16786365843E+02  0.51100000000E-03 0.  1.
        -12    1    4    4    0    0 -0.13854967081E+02  0.60595544676E+01 -0.36650140883E+01  0.15559904930E+02  0.00000000000E+00 0.  1.
</event>
<event>
 8    1  0.1240174E-006  0.9118800E+02  0.7816164E-02  0.1184000E+00
        -11   -1    0    0    0    0  0.00000000000E+00  0.00000000000E+00  0.45593999997E+02  0.45594000000E+02  0.51100000000E-03 0. -1.
         11   -1    0    0    0    0 -0.00000000000E+00 -0.00000000000E+00 -0.45593999997E+02  0.45594000000E+02  0.51100000000E-03 0.  1.
         23    2    1    2    0    0  0.53290705182E-14 -0.14432899320E-14  0.00000000000E+00  0.91188000000E+02  0.91188000000E+02 0.  0.
    9900012    2    3    3    0    0  0.13533180286E+02  0.42595109546E+00  0.34241063693E+02  0.54367097705E+02  0.40000030839E+02 0.  0.
        -12    1    3    3    0    0 -0.13533180286E+02 -0.42595109546E+00 -0.34241063693E+02  0.36820902295E+02  0.00000000000E+00 0.  1.
         11    1    4    4    0    0 -0.32759356335E+01 -0.69230202505E+01  0.61519395387E+01  0.98237632307E+01  0.51100000000E-03 0. -1.
        -11    1    4    4    0    0 -0.44321577166E+01  0.90728310999E+01  0.18707390042E+02  0.21258568358E+02  0.51100000000E-03 0.  1.
         12    1    4    4    0    0  0.21241273637E+02 -0.17238597540E+01  0.93817341121E+01  0.23284766117E+02  0.00000000000E+00 0. -1.
</event>
<event>
 8    1  0.1240174E-006  0.9118800E+02  0.7816164E-02  0.1184000E+00
        -11   -1    0    0    0    0  0.00000000000E+00  0.00000000000E+00  0.45593999997E+02  0.45594000000E+02  0.51100000000E-03 0. -1.
         11   -1    0    0    0    0 -0.00000000000E+00 -0.00000000000E+00 -0.45593999997E+02  0.45594000000E+02  0.51100000000E-03 0.  1.
         23    2    1    2    0    0  0.35527136788E-14  0.00000000000E+00  0.00000000000E+00  0.91188000000E+02  0.91188000000E+02 0.  0.
    9900012    2    3    3    0    0  0.18844521504E+02  0.30989373214E+02 -0.63499421490E+01  0.54367095500E+02  0.40000025812E+02 0.  0.
        -12    1    3    3    0    0 -0.18844521504E+02 -0.30989373214E+02  0.63499421490E+01  0.36820904500E+02  0.00000000000E+00 0.  1.
         11    1    4    4    0    0 -0.70491826341E+01  0.65310325685E+01 -0.83679250193E+01  0.12742351887E+02  0.51100000000E-03 0. -1.
        -11    1    4    4    0    0  0.66552662139E+01 -0.29428889248E+01 -0.28046710525E+01  0.77986757578E+01  0.51100000000E-03 0.  1.
         12    1    4    4    0    0  0.19238437924E+02  0.27401229570E+02  0.48226539228E+01  0.33826067855E+02  0.00000000000E+00 0. -1.
</event>
<event>
 8    1  0.1240174E-006  0.9118800E+02  0.7816164E-02  0.1184000E+00
        -11   -1    0    0    0    0  0.00000000000E+00  0.00000000000E+00  0.45593999997E+02  0.45594000000E+02  0.51100000000E-03 0.  1.
         11   -1    0    0    0    0 -0.00000000000E+00 -0.00000000000E+00 -0.45593999997E+02  0.45594000000E+02  0.51100000000E-03 0. -1.
         23    2    1    2    0    0  0.00000000000E+00  0.35527136788E-14  0.00000000000E+00  0.91188000000E+02  0.91188000000E+02 0.  0.
    9900012    2    3    3    0    0  0.85363121451E+01 -0.13024749133E+02  0.33365693463E+02  0.54367051950E+02  0.39999926531E+02 0.  0.
         12    1    3    3    0    0 -0.85363121451E+01  0.13024749133E+02 -0.33365693463E+02  0.36820948050E+02  0.00000000000E+00 0. -1.
         11    1    4    4    0    0  0.81390329951E+01  0.62005993673E+01  0.36180174747E+00  0.10238270917E+02  0.51100000000E-03 0. -1.
        -11    1    4    4    0    0  0.54568439852E+01 -0.20175523105E+02  0.15883056719E+02  0.26250721320E+02  0.51100000000E-03 0.  1.
         12    1    4    4    0    0 -0.50595648352E+01  0.95017460462E+00  0.17120834997E+02  0.17878059713E+02  0.00000000000E+00 0. -1.
</event>
<event>
 8    1  0.1240174E-006  0.9118800E+02  0.7816164E-02  0.1184000E+00
        -11   -1    0    0    0    0  0.00000000000E+00  0.00000000000E+00  0.45593999997E+02  0.45594000000E+02  0.51100000000E-03 0.  1.
         11   -1    0    0    0    0 -0.00000000000E+00 -0.00000000000E+00 -0.45593999997E+02  0.45594000000E+02  0.51100000000E-03 0. -1.
         23    2    1    2    0    0 -0.35527136788E-14  0.00000000000E+00  0.00000000000E+00  0.91188000000E+02  0.91188000000E+02 0.  0.
    9900012    2    3    3    0    0  0.19283352828E+02  0.11746105207E+02  0.29085434587E+02  0.54367065888E+02  0.39999958304E+02 0.  0.
         12    1    3    3    0    0 -0.19283352828E+02 -0.11746105207E+02 -0.29085434587E+02  0.36820934112E+02  0.00000000000E+00 0. -1.
         11    1    4    4    0    0 -0.55656737199E+01 -0.38996904126E+01  0.69374182930E+01  0.97114407841E+01  0.51100000000E-03 0. -1.
        -11    1    4    4    0    0  0.24319563957E+02  0.20289133130E+02  0.23886499277E+02  0.39669320163E+02  0.51100000000E-03 0.  1.
         12    1    4    4    0    0  0.52946259044E+00 -0.46433375108E+01 -0.17384829831E+01  0.49863049401E+01  0.00000000000E+00 0. -1.
</event>
<event>
 8    1  0.1240174E-006  0.9118800E+02  0.7816164E-02  0.1184000E+00
        -11   -1    0    0    0    0  0.00000000000E+00  0.00000000000E+00  0.45593999997E+02  0.45594000000E+02  0.51100000000E-03 0.  1.
         11   -1    0    0    0    0 -0.00000000000E+00 -0.00000000000E+00 -0.45593999997E+02  0.45594000000E+02  0.51100000000E-03 0. -1.
         23    2    1    2    0    0  0.00000000000E+00  0.35527136788E-14 -0.88817841970E-15  0.91188000000E+02  0.91188000000E+02 0.  0.
    9900012    2    3    3    0    0  0.31214604627E+02  0.18494197103E+02 -0.62763779002E+01  0.54367084910E+02  0.40000001669E+02 0.  0.
         12    1    3    3    0    0 -0.31214604627E+02 -0.18494197103E+02  0.62763779002E+01  0.36820915090E+02  0.00000000000E+00 0. -1.
         11    1    4    4    0    0  0.32897879815E+01 -0.17099340887E+01 -0.25918811179E+00  0.37166864664E+01  0.51100000000E-03 0. -1.
        -11    1    4    4    0    0  0.16811581063E+02  0.33901654524E+01 -0.19829456141E+02  0.26216975621E+02  0.51100000000E-03 0.  1.
        -12    1    4    4    0    0  0.11113235583E+02  0.16813965740E+02  0.13812266353E+02  0.24433422822E+02  0.00000000000E+00 0.  1.
</event>
<event>
 8    1  0.1240174E-006  0.9118800E+02  0.7816164E-02  0.1184000E+00
        -11   -1    0    0    0    0  0.00000000000E+00  0.00000000000E+00  0.45593999997E+02  0.45594000000E+02  0.51100000000E-03 0. -1.
         11   -1    0    0    0    0 -0.00000000000E+00 -0.00000000000E+00 -0.45593999997E+02  0.45594000000E+02  0.51100000000E-03 0.  1.
         23    2    1    2    0    0  0.00000000000E+00 -0.22204460493E-15  0.11102230246E-15  0.91188000000E+02  0.91188000000E+02 0.  0.
    9900012    2    3    3    0    0 -0.36786215402E+02  0.12993439925E+01 -0.93024166532E+00  0.54367091700E+02  0.40000017150E+02 0.  0.
        -12    1    3    3    0    0  0.36786215402E+02 -0.12993439925E+01  0.93024166532E+00  0.36820908300E+02  0.00000000000E+00 0.  1.
         11    1    4    4    0    0 -0.25994366847E+02  0.45693705826E+01  0.31553348334E+01  0.26580865175E+02  0.51100000000E-03 0. -1.
        -11    1    4    4    0    0 -0.13486880508E+02  0.72631426537E+01 -0.65141372842E+01  0.16645815446E+02  0.51100000000E-03 0.  1.
         12    1    4    4    0    0  0.26950319518E+01 -0.10533169244E+02  0.24285607854E+01  0.11140411080E+02  0.00000000000E+00 0. -1.
</event>
<event>
 8    1  0.1240174E-006  0.9118800E+02  0.7816164E-02  0.1184000E+00
        -11   -1    0    0    0    0  0.00000000000E+00  0.00000000000E+00  0.45593999997E+02  0.45594000000E+02  0.51100000000E-03 0. -1.
         11   -1    0    0    0    0 -0.00000000000E+00 -0.00000000000E+00 -0.45593999997E+02  0.45594000000E+02  0.51100000000E-03 0.  1.
         23    2    1    2    0    0 -0.88817841970E-15 -0.17763568394E-14  0.00000000000E+00  0.91188000000E+02  0.91188000000E+02 0.  0.
    9900012    2    3    3    0    0  0.42873271459E+01  0.85710748578E+01  0.35551846931E+02  0.54367104866E+02  0.40000047164E+02 0.  0.
        -12    1    3    3    0    0 -0.42873271459E+01 -0.85710748578E+01 -0.35551846931E+02  0.36820895134E+02  0.00000000000E+00 0.  1.
         11    1    4    4    0    0  0.53183881273E+01  0.10556141407E+02  0.28682988223E+02  0.31023075079E+02  0.51100000000E-03 0. -1.
        -11    1    4    4    0    0  0.95892425349E+00  0.81132717408E+01  0.96875107294E+01  0.12672512713E+02  0.51100000000E-03 0.  1.
        -12    1    4    4    0    0 -0.19899852350E+01 -0.10098338290E+02 -0.28186520216E+01  0.10671517075E+02  0.00000000000E+00 0.  1.
</event>
<event>
 8    1  0.1240174E-006  0.9118800E+02  0.7816164E-02  0.1184000E+00
        -11   -1    0    0    0    0  0.00000000000E+00  0.00000000000E+00  0.45593999997E+02  0.45594000000E+02  0.51100000000E-03 0. -1.
         11   -1    0    0    0    0 -0.00000000000E+00 -0.00000000000E+00 -0.45593999997E+02  0.45594000000E+02  0.51100000000E-03 0.  1.
         23    2    1    2    0    0  0.71054273576E-14 -0.17763568394E-14 -0.17763568394E-14  0.91188000000E+02  0.91188000000E+02 0.  0.
    9900012    2    3    3    0    0  0.35554879600E+02 -0.85859900514E+01 -0.42321180516E+01  0.54367088662E+02  0.40000010223E+02 0.  0.
         12    1    3    3    0    0 -0.35554879600E+02  0.85859900514E+01  0.42321180516E+01  0.36820911338E+02  0.00000000000E+00 0. -1.
         11    1    4    4    0    0 -0.14037831072E+01 -0.36265120983E+00 -0.34231564715E+01  0.37175426564E+01  0.51100000000E-03 0. -1.
        -11    1    4    4    0    0  0.27495845244E+02  0.93227089712E+00 -0.14963501097E+02  0.31317678715E+02  0.51100000000E-03 0.  1.
         12    1    4    4    0    0  0.94628174631E+01 -0.91556097387E+01  0.14154539517E+02  0.19331867291E+02  0.00000000000E+00 0. -1.
</event>
<event>
 8    1  0.1240174E-006  0.9118800E+02  0.7816164E-02  0.1184000E+00
        -11   -1    0    0    0    0  0.00000000000E+00  0.00000000000E+00  0.45593999997E+02  0.45594000000E+02  0.51100000000E-03 0.  1.
         11   -1    0    0    0    0 -0.00000000000E+00 -0.00000000000E+00 -0.45593999997E+02  0.45594000000E+02  0.51100000000E-03 0. -1.
         23    2    1    2    0    0  0.00000000000E+00  0.88817841970E-15  0.00000000000E+00  0.91188000000E+02  0.91188000000E+02 0.  0.
    9900012    2    3    3    0    0 -0.11101650816E+01  0.41386763337E+01  0.36570735834E+02  0.54367084371E+02  0.40000000441E+02 0.  0.
         12    1    3    3    0    0  0.11101650816E+01 -0.41386763337E+01 -0.36570735834E+02  0.36820915629E+02  0.00000000000E+00 0. -1.
         11    1    4    4    0    0 -0.52895414602E+00 -0.31502957052E+01  0.16350455626E+02  0.16659578475E+02  0.51100000000E-03 0. -1.
        -11    1    4    4    0    0 -0.13487206686E+02  0.33353991705E+01  0.19818739226E+02  0.24203554627E+02  0.51100000000E-03 0.  1.
         12    1    4    4    0    0  0.12905995750E+02  0.39535728684E+01  0.40154098169E+00  0.13503951269E+02  0.00000000000E+00 0. -1.
</event>
<event>
 8    1  0.1240174E-006  0.9118800E+02  0.7816164E-02  0.1184000E+00
        -11   -1    0    0    0    0  0.00000000000E+00  0.00000000000E+00  0.45593999997E+02  0.45594000000E+02  0.51100000000E-03 0. -1.
         11   -1    0    0    0    0 -0.00000000000E+00 -0.00000000000E+00 -0.45593999997E+02  0.45594000000E+02  0.51100000000E-03 0.  1.
         23    2    1    2    0    0  0.00000000000E+00  0.00000000000E+00  0.00000000000E+00  0.91188000000E+02  0.91188000000E+02 0.  0.
    9900012    2    3    3    0    0  0.12737944505E+02 -0.14453228337E+01  0.34517187673E+02  0.54367076150E+02  0.39999981700E+02 0.  0.
         12    1    3    3    0    0 -0.12737944505E+02  0.14453228337E+01 -0.34517187673E+02  0.36820923850E+02  0.00000000000E+00 0. -1.
         11    1    4    4    0    0 -0.45133162868E+00  0.83794050967E+01  0.33633520031E+02  0.34664561154E+02  0.51100000000E-03 0. -1.
        -11    1    4    4    0    0  0.31278097232E+00 -0.54185925706E+01 -0.20117303128E+01  0.57884399017E+01  0.51100000000E-03 0.  1.
         12    1    4    4    0    0  0.12876495161E+02 -0.44061353599E+01  0.28953979544E+01  0.13914075095E+02  0.00000000000E+00 0. -1.
</event>
<event>
 8    1  0.1240174E-006  0.9118800E+02  0.7816164E-02  0.1184000E+00
        -11   -1    0    0    0    0  0.00000000000E+00  0.00000000000E+00  0.45593999997E+02  0.45594000000E+02  0.51100000000E-03 0.  1.
         11   -1    0    0    0    0 -0.00000000000E+00 -0.00000000000E+00 -0.45593999997E+02  0.45594000000E+02  0.51100000000E-03 0. -1.
         23    2    1    2    0    0  0.88817841970E-15  0.35527136788E-14  0.00000000000E+00  0.91188000000E+02  0.91188000000E+02 0.  0.
    9900012    2    3    3    0    0 -0.68657551530E+01  0.19815367547E+02  0.30265392792E+02  0.54367063215E+02  0.39999952211E+02 0.  0.
         12    1    3    3    0    0  0.68657551530E+01 -0.19815367547E+02 -0.30265392792E+02  0.36820936785E+02  0.00000000000E+00 0. -1.
         11    1    4    4    0    0 -0.53214156684E+01 -0.77763999956E+01  0.16538859451E+00  0.94242885809E+01  0.51100000000E-03 0. -1.
        -11    1    4    4    0    0  0.66542119798E+01  0.77030086950E+01  0.35701464225E+01  0.10787067524E+02  0.51100000000E-03 0.  1.
         12    1    4    4    0    0 -0.81985514644E+01  0.19888758848E+02  0.26529857775E+02  0.34155707110E+02  0.00000000000E+00 0. -1.
</event>
<event>
 8    1  0.1240174E-006  0.9118800E+02  0.7816164E-02  0.1184000E+00
        -11   -1    0    0    0    0  0.00000000000E+00  0.00000000000E+00  0.45593999997E+02  0.45594000000E+02  0.51100000000E-03 0. -1.
         11   -1    0    0    0    0 -0.00000000000E+00 -0.00000000000E+00 -0.45593999997E+02  0.45594000000E+02  0.51100000000E-03 0.  1.
         23    2    1    2    0    0 -0.35527136788E-14  0.35527136788E-14 -0.17763568394E-14  0.91188000000E+02  0.91188000000E+02 0.  0.
    9900012    2    3    3    0    0  0.25112487549E+02 -0.26894239828E+02  0.13573962847E+01  0.54367086221E+02  0.40000004659E+02 0.  0.
        -12    1    3    3    0    0 -0.25112487549E+02  0.26894239828E+02 -0.13573962847E+01  0.36820913779E+02  0.00000000000E+00 0.  1.
         11    1    4    4    0    0 -0.21025004952E+01 -0.16906986171E+01 -0.58294700313E+01  0.64235263876E+01  0.51100000000E-03 0. -1.
        -11    1    4    4    0    0 -0.52837291641E+00 -0.14960373172E+02 -0.52463190607E+01  0.15862402319E+02  0.51100000000E-03 0.  1.
         12    1    4    4    0    0  0.27743360961E+02 -0.10243168038E+02  0.12433185377E+02  0.32081157515E+02  0.00000000000E+00 0. -1.
</event>
<event>
 8    1  0.1240174E-006  0.9118800E+02  0.7816164E-02  0.1184000E+00
        -11   -1    0    0    0    0  0.00000000000E+00  0.00000000000E+00  0.45593999997E+02  0.45594000000E+02  0.51100000000E-03 0. -1.
         11   -1    0    0    0    0 -0.00000000000E+00 -0.00000000000E+00 -0.45593999997E+02  0.45594000000E+02  0.51100000000E-03 0.  1.
         23    2    1    2    0    0  0.00000000000E+00  0.00000000000E+00  0.00000000000E+00  0.91188000000E+02  0.91188000000E+02 0.  0.
    9900012    2    3    3    0    0 -0.14332262890E+02 -0.29698787791E+02 -0.16381343058E+02  0.54367079911E+02  0.39999990274E+02 0.  0.
        -12    1    3    3    0    0  0.14332262890E+02  0.29698787791E+02  0.16381343058E+02  0.36820920089E+02  0.00000000000E+00 0.  1.
         11    1    4    4    0    0 -0.17757506206E+01 -0.14851719230E+02 -0.15763715508E+02  0.21730659935E+02  0.51100000000E-03 0. -1.
        -11    1    4    4    0    0 -0.16652382207E+02 -0.20846007369E+01 -0.65022018854E+01  0.17997944967E+02  0.51100000000E-03 0.  1.
        -12    1    4    4    0    0  0.40958699380E+01 -0.12762467824E+02  0.58845743347E+01  0.14638475010E+02  0.00000000000E+00 0.  1.
</event>
<event>
 8    1  0.1240174E-006  0.9118800E+02  0.7816164E-02  0.1184000E+00
        -11   -1    0    0    0    0  0.00000000000E+00  0.00000000000E+00  0.45593999997E+02  0.45594000000E+02  0.51100000000E-03 0. -1.
         11   -1    0    0    0    0 -0.00000000000E+00 -0.00000000000E+00 -0.45593999997E+02  0.45594000000E+02  0.51100000000E-03 0.  1.
         23    2    1    2    0    0  0.00000000000E+00  0.00000000000E+00  0.00000000000E+00  0.91188000000E+02  0.91188000000E+02 0.  0.
    9900012    2    3    3    0    0 -0.10973104640E+02 -0.24179037641E+02 -0.25509706089E+02  0.54367082148E+02  0.39999995374E+02 0.  0.
         12    1    3    3    0    0  0.10973104640E+02  0.24179037641E+02  0.25509706089E+02  0.36820917852E+02  0.00000000000E+00 0. -1.
         11    1    4    4    0    0  0.83220157415E+01 -0.47623267925E+00 -0.10408438001E+02  0.13334853785E+02  0.51100000000E-03 0. -1.
        -11    1    4    4    0    0 -0.34957912108E+01 -0.21983435231E+02 -0.87974068873E+01  0.23935044369E+02  0.51100000000E-03 0.  1.
         12    1    4    4    0    0 -0.15799329171E+02 -0.17193697301E+01 -0.63038612006E+01  0.17097183995E+02  0.00000000000E+00 0. -1.
</event>
<event>
 8    1  0.1240174E-006  0.9118800E+02  0.7816164E-02  0.1184000E+00
        -11   -1    0    0    0    0  0.00000000000E+00  0.00000000000E+00  0.45593999997E+02  0.45594000000E+02  0.51100000000E-03 0.  1.
         11   -1    0    0    0    0 -0.00000000000E+00 -0.00000000000E+00 -0.45593999997E+02  0.45594000000E+02  0.51100000000E-03 0. -1.
         23    2    1    2    0    0  0.66613381478E-15  0.00000000000E+00  0.35527136788E-14  0.91188000000E+02  0.91188000000E+02 0.  0.
    9900012    2    3    3    0    0 -0.14206253812E+01  0.24229691744E+02  0.27689051673E+02  0.54367085820E+02  0.40000003743E+02 0.  0.
         12    1    3    3    0    0  0.14206253812E+01 -0.24229691744E+02 -0.27689051673E+02  0.36820914180E+02  0.00000000000E+00 0. -1.
         11    1    4    4    0    0 -0.56007033777E+01  0.37211891282E+01 -0.67157613220E+01  0.95035034197E+01  0.51100000000E-03 0. -1.
        -11    1    4    4    0    0 -0.28521937689E+01  0.18929457449E+02  0.31956832855E+02  0.37251825928E+02  0.51100000000E-03 0.  1.
         12    1    4    4    0    0  0.70322717654E+01  0.15790451673E+01  0.24479801405E+01  0.76117564721E+01  0.00000000000E+00 0. -1.
</event>
<event>
 8    1  0.1240174E-006  0.9118800E+02  0.7816164E-02  0.1184000E+00
        -11   -1    0    0    0    0  0.00000000000E+00  0.00000000000E+00  0.45593999997E+02  0.45594000000E+02  0.51100000000E-03 0. -1.
         11   -1    0    0    0    0 -0.00000000000E+00 -0.00000000000E+00 -0.45593999997E+02  0.45594000000E+02  0.51100000000E-03 0.  1.
         23    2    1    2    0    0  0.00000000000E+00 -0.35527136788E-14  0.88817841970E-15  0.91188000000E+02  0.91188000000E+02 0.  0.
    9900012    2    3    3    0    0 -0.23480787482E+02 -0.27426531843E+02  0.72261774473E+01  0.54367086510E+02  0.40000005317E+02 0.  0.
        -12    1    3    3    0    0  0.23480787482E+02  0.27426531843E+02 -0.72261774473E+01  0.36820913490E+02  0.00000000000E+00 0.  1.
         11    1    4    4    0    0 -0.14056321431E+02 -0.98185999906E+01  0.52492839750E+01  0.17931538151E+02  0.51100000000E-03 0.  1.
        -11    1    4    4    0    0 -0.44786195739E+01 -0.24666004109E+02 -0.47341233822E+01  0.25512383590E+02  0.51100000000E-03 0. -1.
        -12    1    4    4    0    0 -0.49458464772E+01  0.70580722564E+01  0.67110168546E+01  0.10923164769E+02  0.00000000000E+00 0.  1.
</event>
<event>
 8    1  0.1240174E-006  0.9118800E+02  0.7816164E-02  0.1184000E+00
        -11   -1    0    0    0    0  0.00000000000E+00  0.00000000000E+00  0.45593999997E+02  0.45594000000E+02  0.51100000000E-03 0. -1.
         11   -1    0    0    0    0 -0.00000000000E+00 -0.00000000000E+00 -0.45593999997E+02  0.45594000000E+02  0.51100000000E-03 0.  1.
         23    2    1    2    0    0  0.00000000000E+00  0.15543122345E-14  0.00000000000E+00  0.91188000000E+02  0.91188000000E+02 0.  0.
    9900012    2    3    3    0    0  0.30117285599E+02  0.19296739095E+01 -0.21095127181E+02  0.54367096643E+02  0.40000028418E+02 0.  0.
        -12    1    3    3    0    0 -0.30117285599E+02 -0.19296739095E+01  0.21095127181E+02  0.36820903357E+02  0.00000000000E+00 0.  1.
         11    1    4    4    0    0  0.25677897750E+02 -0.92934049772E+01  0.19678727752E+00  0.27308616487E+02  0.51100000000E-03 0. -1.
        -11    1    4    4    0    0  0.74916719637E+01  0.64406530944E+01 -0.83795925934E+01  0.12954718576E+02  0.51100000000E-03 0.  1.
         12    1    4    4    0    0 -0.30522841147E+01  0.47824257923E+01 -0.12912321865E+02  0.14103761581E+02  0.00000000000E+00 0. -1.
</event>
<event>
 8    1  0.1240174E-006  0.9118800E+02  0.7816164E-02  0.1184000E+00
        -11   -1    0    0    0    0  0.00000000000E+00  0.00000000000E+00  0.45593999997E+02  0.45594000000E+02  0.51100000000E-03 0.  1.
         11   -1    0    0    0    0 -0.00000000000E+00 -0.00000000000E+00 -0.45593999997E+02  0.45594000000E+02  0.51100000000E-03 0. -1.
         23    2    1    2    0    0  0.00000000000E+00 -0.17763568394E-14  0.00000000000E+00  0.91188000000E+02  0.91188000000E+02 0.  0.
    9900012    2    3    3    0    0  0.31399312776E+02  0.14003793229E+02 -0.13181644022E+02  0.54367098236E+02  0.40000032048E+02 0.  0.
        -12    1    3    3    0    0 -0.31399312776E+02 -0.14003793229E+02  0.13181644022E+02  0.36820901764E+02  0.00000000000E+00 0.  1.
         11    1    4    4    0    0 -0.12032712527E+01 -0.55331551658E+01 -0.88857780662E+01  0.10536637030E+02  0.51100000000E-03 0. -1.
        -11    1    4    4    0    0  0.17593234860E+02  0.21245816791E+02  0.15605857676E+01  0.27628645861E+02  0.51100000000E-03 0.  1.
        -12    1    4    4    0    0  0.15009349169E+02 -0.17088683957E+01 -0.58564517237E+01  0.16201815345E+02  0.00000000000E+00 0.  1.
</event>
<event>
 8    1  0.1240174E-006  0.9118800E+02  0.7816164E-02  0.1184000E+00
        -11   -1    0    0    0    0  0.00000000000E+00  0.00000000000E+00  0.45593999997E+02  0.45594000000E+02  0.51100000000E-03 0.  1.
         11   -1    0    0    0    0 -0.00000000000E+00 -0.00000000000E+00 -0.45593999997E+02  0.45594000000E+02  0.51100000000E-03 0. -1.
         23    2    1    2    0    0  0.00000000000E+00 -0.35527136788E-14  0.00000000000E+00  0.91188000000E+02  0.91188000000E+02 0.  0.
    9900012    2    3    3    0    0 -0.22142885005E+02  0.27428818702E+02 -0.10636374712E+02  0.54367083135E+02  0.39999997623E+02 0.  0.
        -12    1    3    3    0    0  0.22142885005E+02 -0.27428818702E+02  0.10636374712E+02  0.36820916865E+02  0.00000000000E+00 0.  1.
         11    1    4    4    0    0 -0.67432642552E+01  0.47374606740E+01 -0.14075652694E+01  0.83604058933E+01  0.51100000000E-03 0. -1.
        -11    1    4    4    0    0 -0.26027413220E+02  0.85859806045E+01 -0.53327890038E+01  0.27921030438E+02  0.51100000000E-03 0.  1.
        -12    1    4    4    0    0  0.10627792470E+02  0.14105377424E+02 -0.38960204388E+01  0.18085646804E+02  0.00000000000E+00 0.  1.
</event>
<event>
 8    1  0.1240174E-006  0.9118800E+02  0.7816164E-02  0.1184000E+00
        -11   -1    0    0    0    0  0.00000000000E+00  0.00000000000E+00  0.45593999997E+02  0.45594000000E+02  0.51100000000E-03 0. -1.
         11   -1    0    0    0    0 -0.00000000000E+00 -0.00000000000E+00 -0.45593999997E+02  0.45594000000E+02  0.51100000000E-03 0.  1.
         23    2    1    2    0    0  0.35527136788E-14  0.00000000000E+00  0.17763568394E-14  0.91188000000E+02  0.91188000000E+02 0.  0.
    9900012    2    3    3    0    0 -0.31518076430E+02 -0.18513515897E+02  0.44319074595E+01  0.54367065513E+02  0.39999957450E+02 0.  0.
        -12    1    3    3    0    0  0.31518076430E+02  0.18513515897E+02 -0.44319074595E+01  0.36820934487E+02  0.00000000000E+00 0.  1.
         11    1    4    4    0    0 -0.21835057781E+02 -0.30598637898E+00 -0.38089581575E+01  0.22166901869E+02  0.51100000000E-03 0. -1.
        -11    1    4    4    0    0 -0.37101860078E+01  0.55024015842E+01  0.24403190429E+01  0.70708599688E+01  0.51100000000E-03 0.  1.
         12    1    4    4    0    0 -0.59728326416E+01 -0.23709931102E+02  0.58005465740E+01  0.25129303675E+02  0.00000000000E+00 0. -1.
</event>
<event>
 8    1  0.1240174E-006  0.9118800E+02  0.7816164E-02  0.1184000E+00
        -11   -1    0    0    0    0  0.00000000000E+00  0.00000000000E+00  0.45593999997E+02  0.45594000000E+02  0.51100000000E-03 0.  1.
         11   -1    0    0    0    0 -0.00000000000E+00 -0.00000000000E+00 -0.45593999997E+02  0.45594000000E+02  0.51100000000E-03 0. -1.
         23    2    1    2    0    0  0.00000000000E+00  0.00000000000E+00  0.00000000000E+00  0.91188000000E+02  0.91188000000E+02 0.  0.
    9900012    2    3    3    0    0  0.18529334832E+02 -0.24080099845E+02 -0.20798870144E+02  0.54367075824E+02  0.39999980956E+02 0.  0.
         12    1    3    3    0    0 -0.18529334832E+02  0.24080099845E+02  0.20798870144E+02  0.36820924176E+02  0.00000000000E+00 0. -1.
         11    1    4    4    0    0  0.15176175629E+02 -0.25891335651E+02 -0.71925629735E+01  0.30861149215E+02  0.51100000000E-03 0. -1.
        -11    1    4    4    0    0  0.58714711547E+01 -0.32993384606E+01  0.18902718854E+01  0.69952080641E+01  0.51100000000E-03 0.  1.
         12    1    4    4    0    0 -0.25183119517E+01  0.51105742657E+01 -0.15496579056E+02  0.16510718544E+02  0.00000000000E+00 0. -1.
</event>
<event>
 8    1  0.1240174E-006  0.9118800E+02  0.7816164E-02  0.1184000E+00
        -11   -1    0    0    0    0  0.00000000000E+00  0.00000000000E+00  0.45593999997E+02  0.45594000000E+02  0.51100000000E-03 0. -1.
         11   -1    0    0    0    0 -0.00000000000E+00 -0.00000000000E+00 -0.45593999997E+02  0.45594000000E+02  0.51100000000E-03 0.  1.
         23    2    1    2    0    0  0.35527136788E-14 -0.35527136788E-14 -0.13322676296E-14  0.91188000000E+02  0.91188000000E+02 0.  0.
    9900012    2    3    3    0    0  0.28124252235E+02 -0.23653300406E+02  0.23080078172E+01  0.54367094472E+02  0.40000023467E+02 0.  0.
        -12    1    3    3    0    0 -0.28124252235E+02  0.23653300406E+02 -0.23080078172E+01  0.36820905528E+02  0.00000000000E+00 0.  1.
         11    1    4    4    0    0  0.95574844576E+01  0.18096966553E+01  0.73736843699E+01  0.12206216965E+02  0.51100000000E-03 0. -1.
        -11    1    4    4    0    0  0.24061125948E+02 -0.11380975759E+02 -0.47765383172E+01  0.27042183892E+02  0.51100000000E-03 0.  1.
         12    1    4    4    0    0 -0.54943581713E+01 -0.14082021303E+02 -0.28913823551E+00  0.15118693614E+02  0.00000000000E+00 0. -1.
</event>
<event>
 8    1  0.1240174E-006  0.9118800E+02  0.7816164E-02  0.1184000E+00
        -11   -1    0    0    0    0  0.00000000000E+00  0.00000000000E+00  0.45593999997E+02  0.45594000000E+02  0.51100000000E-03 0. -1.
         11   -1    0    0    0    0 -0.00000000000E+00 -0.00000000000E+00 -0.45593999997E+02  0.45594000000E+02  0.51100000000E-03 0.  1.
         23    2    1    2    0    0  0.00000000000E+00 -0.99920072216E-15  0.71054273576E-14  0.91188000000E+02  0.91188000000E+02 0.  0.
    9900012    2    3    3    0    0  0.13561372206E+02 -0.82850718819E+00  0.34222540664E+02  0.54367088418E+02  0.40000009666E+02 0.  0.
        -12    1    3    3    0    0 -0.13561372206E+02  0.82850718819E+00 -0.34222540664E+02  0.36820911582E+02  0.00000000000E+00 0.  1.
         11    1    4    4    0    0  0.60081253102E+01 -0.86376048952E+01  0.14299085886E+02  0.17753017927E+02  0.51100000000E-03 0. -1.
        -11    1    4    4    0    0  0.14578650723E+02  0.96752956833E+01  0.24230789804E+01  0.17664079808E+02  0.51100000000E-03 0.  1.
        -12    1    4    4    0    0 -0.70254038273E+01 -0.18661979763E+01  0.17500375797E+02  0.18949990683E+02  0.00000000000E+00 0.  1.
</event>
<event>
 8    1  0.1240174E-006  0.9118800E+02  0.7816164E-02  0.1184000E+00
        -11   -1    0    0    0    0  0.00000000000E+00  0.00000000000E+00  0.45593999997E+02  0.45594000000E+02  0.51100000000E-03 0.  1.
         11   -1    0    0    0    0 -0.00000000000E+00 -0.00000000000E+00 -0.45593999997E+02  0.45594000000E+02  0.51100000000E-03 0. -1.
         23    2    1    2    0    0  0.00000000000E+00 -0.35527136788E-14  0.00000000000E+00  0.91188000000E+02  0.91188000000E+02 0.  0.
    9900012    2    3    3    0    0 -0.10647963185E+02 -0.17541652236E+02  0.30572726020E+02  0.54367078509E+02  0.39999987076E+02 0.  0.
         12    1    3    3    0    0  0.10647963185E+02  0.17541652236E+02 -0.30572726020E+02  0.36820921491E+02  0.00000000000E+00 0. -1.
         11    1    4    4    0    0  0.10492339480E+02 -0.32906642758E+01  0.18362758584E+02  0.21403470799E+02  0.51100000000E-03 0. -1.
        -11    1    4    4    0    0 -0.13527059907E+02 -0.95090626687E+01  0.16198740958E+02  0.23147415222E+02  0.51100000000E-03 0.  1.
         12    1    4    4    0    0 -0.76132427582E+01 -0.47419252912E+01 -0.39887735219E+01  0.98161924886E+01  0.00000000000E+00 0. -1.
</event>
<event>
 8    1  0.1240174E-006  0.9118800E+02  0.7816164E-02  0.1184000E+00
        -11   -1    0    0    0    0  0.00000000000E+00  0.00000000000E+00  0.45593999997E+02  0.45594000000E+02  0.51100000000E-03 0. -1.
         11   -1    0    0    0    0 -0.00000000000E+00 -0.00000000000E+00 -0.45593999997E+02  0.45594000000E+02  0.51100000000E-03 0.  1.
         23    2    1    2    0    0  0.00000000000E+00  0.00000000000E+00  0.00000000000E+00  0.91188000000E+02  0.91188000000E+02 0.  0.
    9900012    2    3    3    0    0 -0.57049629493E+01  0.16368941147E+02 -0.32485221826E+02  0.54367102759E+02  0.40000042360E+02 0.  0.
         12    1    3    3    0    0  0.57049629493E+01 -0.16368941147E+02  0.32485221826E+02  0.36820897241E+02  0.00000000000E+00 0. -1.
         11    1    4    4    0    0 -0.88240496373E+00  0.11187373565E+02 -0.27076507355E+01  0.11544147373E+02  0.51100000000E-03 0. -1.
        -11    1    4    4    0    0 -0.11772943310E+01  0.17686852563E+02 -0.16338127903E+02  0.24106953336E+02  0.51100000000E-03 0.  1.
        -12    1    4    4    0    0 -0.36452636546E+01 -0.12505284981E+02 -0.13439443188E+02  0.18716002051E+02  0.00000000000E+00 0.  1.
</event>
<event>
 8    1  0.1240174E-006  0.9118800E+02  0.7816164E-02  0.1184000E+00
        -11   -1    0    0    0    0  0.00000000000E+00  0.00000000000E+00  0.45593999997E+02  0.45594000000E+02  0.51100000000E-03 0.  1.
         11   -1    0    0    0    0 -0.00000000000E+00 -0.00000000000E+00 -0.45593999997E+02  0.45594000000E+02  0.51100000000E-03 0. -1.
         23    2    1    2    0    0  0.00000000000E+00  0.00000000000E+00 -0.35527136788E-14  0.91188000000E+02  0.91188000000E+02 0.  0.
    9900012    2    3    3    0    0 -0.23514992312E+02 -0.17976820826E+02  0.21901101179E+02  0.54367093122E+02  0.40000020390E+02 0.  0.
         12    1    3    3    0    0  0.23514992312E+02  0.17976820826E+02 -0.21901101179E+02  0.36820906878E+02  0.00000000000E+00 0. -1.
         11    1    4    4    0    0 -0.78591131994E+01 -0.25307594050E+02  0.31789064264E+01  0.26689799984E+02  0.51100000000E-03 0. -1.
        -11    1    4    4    0    0 -0.56146065753E+01  0.84648912852E+01  0.10892715269E+02  0.14893939629E+02  0.51100000000E-03 0.  1.
         12    1    4    4    0    0 -0.10041272537E+02 -0.11341180617E+01  0.78294794833E+01  0.12783353509E+02  0.00000000000E+00 0. -1.
</event>
<event>
 8    1  0.1240174E-006  0.9118800E+02  0.7816164E-02  0.1184000E+00
        -11   -1    0    0    0    0  0.00000000000E+00  0.00000000000E+00  0.45593999997E+02  0.45594000000E+02  0.51100000000E-03 0. -1.
         11   -1    0    0    0    0 -0.00000000000E+00 -0.00000000000E+00 -0.45593999997E+02  0.45594000000E+02  0.51100000000E-03 0.  1.
         23    2    1    2    0    0  0.00000000000E+00  0.00000000000E+00  0.88817841970E-15  0.91188000000E+02  0.91188000000E+02 0.  0.
    9900012    2    3    3    0    0  0.23295118170E+02  0.27846781004E+02 -0.61379719973E+01  0.54367076015E+02  0.39999981391E+02 0.  0.
         12    1    3    3    0    0 -0.23295118170E+02 -0.27846781004E+02  0.61379719973E+01  0.36820923985E+02  0.00000000000E+00 0. -1.
         11    1    4    4    0    0  0.25236171172E+02  0.61984270814E+01  0.12196619443E+01  0.26014849782E+02  0.51100000000E-03 0. -1.
        -11    1    4    4    0    0 -0.70345919036E+01  0.87057442650E+01 -0.89791071849E+01  0.14349210172E+02  0.51100000000E-03 0.  1.
        -12    1    4    4    0    0  0.50935389024E+01  0.12942609658E+02  0.16214732432E+01  0.14003016060E+02  0.00000000000E+00 0.  1.
</event>
<event>
 8    1  0.1240174E-006  0.9118800E+02  0.7816164E-02  0.1184000E+00
        -11   -1    0    0    0    0  0.00000000000E+00  0.00000000000E+00  0.45593999997E+02  0.45594000000E+02  0.51100000000E-03 0.  1.
         11   -1    0    0    0    0 -0.00000000000E+00 -0.00000000000E+00 -0.45593999997E+02  0.45594000000E+02  0.51100000000E-03 0. -1.
         23    2    1    2    0    0 -0.88817841970E-15  0.00000000000E+00  0.71054273576E-14  0.91188000000E+02  0.91188000000E+02 0.  0.
    9900012    2    3    3    0    0 -0.67235023737E+01  0.96331727245E+01 -0.34896650905E+02  0.54367085491E+02  0.40000002994E+02 0.  0.
        -12    1    3    3    0    0  0.67235023737E+01 -0.96331727245E+01  0.34896650905E+02  0.36820914509E+02  0.00000000000E+00 0.  1.
         11    1    4    4    0    0 -0.87277749176E+01  0.16239335434E+01 -0.96263816030E+01  0.13094977594E+02  0.51100000000E-03 0. -1.
        -11    1    4    4    0    0  0.14157313093E+02  0.17577394125E+01 -0.21675667974E+01  0.14429743863E+02  0.51100000000E-03 0.  1.
        -12    1    4    4    0    0 -0.12153040549E+02  0.62514997686E+01 -0.23102702504E+02  0.26842364034E+02  0.00000000000E+00 0.  1.
</event>
<event>
 8    1  0.1240174E-006  0.9118800E+02  0.7816164E-02  0.1184000E+00
        -11   -1    0    0    0    0  0.00000000000E+00  0.00000000000E+00  0.45593999997E+02  0.45594000000E+02  0.51100000000E-03 0. -1.
         11   -1    0    0    0    0 -0.00000000000E+00 -0.00000000000E+00 -0.45593999997E+02  0.45594000000E+02  0.51100000000E-03 0.  1.
         23    2    1    2    0    0  0.00000000000E+00  0.00000000000E+00  0.00000000000E+00  0.91188000000E+02  0.91188000000E+02 0.  0.
    9900012    2    3    3    0    0 -0.17288783737E+02  0.31968551899E+02 -0.59066996632E+01  0.54367089439E+02  0.40000011995E+02 0.  0.
         12    1    3    3    0    0  0.17288783737E+02 -0.31968551899E+02  0.59066996632E+01  0.36820910561E+02  0.00000000000E+00 0. -1.
         11    1    4    4    0    0 -0.85340912077E+01  0.39678177012E+01 -0.16955813455E+02  0.19392624893E+02  0.51100000000E-03 0. -1.
        -11    1    4    4    0    0 -0.94652398868E+00 -0.15550398977E+01 -0.10452266379E+01  0.20991797756E+01  0.51100000000E-03 0.  1.
        -12    1    4    4    0    0 -0.78081685404E+01  0.29555774095E+02  0.12094340430E+02  0.32875284771E+02  0.00000000000E+00 0.  1.
</event>
<event>
 8    1  0.1240174E-006  0.9118800E+02  0.7816164E-02  0.1184000E+00
        -11   -1    0    0    0    0  0.00000000000E+00  0.00000000000E+00  0.45593999997E+02  0.45594000000E+02  0.51100000000E-03 0.  1.
         11   -1    0    0    0    0 -0.00000000000E+00 -0.00000000000E+00 -0.45593999997E+02  0.45594000000E+02  0.51100000000E-03 0. -1.
         23    2    1    2    0    0  0.17763568394E-14 -0.35527136788E-14 -0.35527136788E-14  0.91188000000E+02  0.91188000000E+02 0.  0.
    9900012    2    3    3    0    0 -0.81433232539E+01  0.29665670630E+02  0.20233891455E+02  0.54367135114E+02  0.40000116120E+02 0.  0.
        -12    1    3    3    0    0  0.81433232539E+01 -0.29665670630E+02 -0.20233891455E+02  0.36820864886E+02  0.00000000000E+00 0.  1.
         11    1    4    4    0    0 -0.19855755593E+01  0.99359683285E+00 -0.96742180287E+01  0.99257362294E+01  0.51100000000E-03 0. -1.
        -11    1    4    4    0    0 -0.99260105066E+01  0.17783702366E+02  0.13661746123E+02  0.24524050682E+02  0.51100000000E-03 0.  1.
        -12    1    4    4    0    0  0.37682628121E+01  0.10888371430E+02  0.16246363360E+02  0.19917348203E+02  0.00000000000E+00 0.  1.
</event>
<event>
 8    1  0.1240174E-006  0.9118800E+02  0.7816164E-02  0.1184000E+00
        -11   -1    0    0    0    0  0.00000000000E+00  0.00000000000E+00  0.45593999997E+02  0.45594000000E+02  0.51100000000E-03 0. -1.
         11   -1    0    0    0    0 -0.00000000000E+00 -0.00000000000E+00 -0.45593999997E+02  0.45594000000E+02  0.51100000000E-03 0.  1.
         23    2    1    2    0    0  0.00000000000E+00  0.35527136788E-14  0.00000000000E+00  0.91188000000E+02  0.91188000000E+02 0.  0.
    9900012    2    3    3    0    0  0.81723651173E+01 -0.27055568252E+02  0.23600607556E+02  0.54367082004E+02  0.39999995045E+02 0.  0.
        -12    1    3    3    0    0 -0.81723651173E+01  0.27055568252E+02 -0.23600607556E+02  0.36820917996E+02  0.00000000000E+00 0.  1.
         11    1    4    4    0    0  0.16991445109E+02 -0.13568720244E+02  0.25911654772E+02  0.33826516659E+02  0.51100000000E-03 0.  1.
        -11    1    4    4    0    0 -0.29264080658E+01 -0.14012988350E+02 -0.39084414266E+00  0.14320630785E+02  0.51100000000E-03 0. -1.
         12    1    4    4    0    0 -0.58926719264E+01  0.52614034205E+00 -0.19202030735E+01  0.62199345603E+01  0.00000000000E+00 0. -1.
</event>
<event>
 8    1  0.1240174E-006  0.9118800E+02  0.7816164E-02  0.1184000E+00
        -11   -1    0    0    0    0  0.00000000000E+00  0.00000000000E+00  0.45593999997E+02  0.45594000000E+02  0.51100000000E-03 0.  1.
         11   -1    0    0    0    0 -0.00000000000E+00 -0.00000000000E+00 -0.45593999997E+02  0.45594000000E+02  0.51100000000E-03 0. -1.
         23    2    1    2    0    0  0.35527136788E-14 -0.17763568394E-14  0.35527136788E-14  0.91188000000E+02  0.91188000000E+02 0.  0.
    9900012    2    3    3    0    0 -0.26410412756E+02  0.76791915487E+01 -0.24480589966E+02  0.54367093305E+02  0.40000020807E+02 0.  0.
        -12    1    3    3    0    0  0.26410412756E+02 -0.76791915487E+01  0.24480589966E+02  0.36820906695E+02  0.00000000000E+00 0.  1.
         11    1    4    4    0    0 -0.12856344481E+02  0.17173769056E+02 -0.75207750976E+01  0.22732927557E+02  0.51100000000E-03 0.  1.
        -11    1    4    4    0    0  0.27602697798E+01 -0.66196327949E+01  0.95352025610E+00  0.72351799381E+01  0.51100000000E-03 0. -1.
        -12    1    4    4    0    0 -0.16314338055E+02 -0.28749447123E+01 -0.17913335124E+02  0.24398985809E+02  0.00000000000E+00 0.  1.
</event>
<event>
 8    1  0.1240174E-006  0.9118800E+02  0.7816164E-02  0.1184000E+00
        -11   -1    0    0    0    0  0.00000000000E+00  0.00000000000E+00  0.45593999997E+02  0.45594000000E+02  0.51100000000E-03 0.  1.
         11   -1    0    0    0    0 -0.00000000000E+00 -0.00000000000E+00 -0.45593999997E+02  0.45594000000E+02  0.51100000000E-03 0. -1.
         23    2    1    2    0    0  0.17763568394E-14  0.00000000000E+00  0.00000000000E+00  0.91188000000E+02  0.91188000000E+02 0.  0.
    9900012    2    3    3    0    0  0.14332152895E+02  0.87248109407E+01 -0.32775726353E+02  0.54367066137E+02  0.39999958873E+02 0.  0.
        -12    1    3    3    0    0 -0.14332152895E+02 -0.87248109407E+01  0.32775726353E+02  0.36820933863E+02  0.00000000000E+00 0.  1.
         11    1    4    4    0    0  0.16553159950E+02 -0.31266713850E+01 -0.25089755862E+01  0.17031680393E+02  0.51100000000E-03 0. -1.
        -11    1    4    4    0    0 -0.17194218700E+01 -0.16242676580E+01  0.15165032927E+01  0.28097045200E+01  0.51100000000E-03 0.  1.
         12    1    4    4    0    0 -0.50158518526E+00  0.13475749984E+02 -0.31783254060E+02  0.34525681224E+02  0.00000000000E+00 0. -1.
</event>
<event>
 8    1  0.1240174E-006  0.9118800E+02  0.7816164E-02  0.1184000E+00
        -11   -1    0    0    0    0  0.00000000000E+00  0.00000000000E+00  0.45593999997E+02  0.45594000000E+02  0.51100000000E-03 0. -1.
         11   -1    0    0    0    0 -0.00000000000E+00 -0.00000000000E+00 -0.45593999997E+02  0.45594000000E+02  0.51100000000E-03 0.  1.
         23    2    1    2    0    0  0.00000000000E+00  0.88817841970E-15  0.00000000000E+00  0.91188000000E+02  0.91188000000E+02 0.  0.
    9900012    2    3    3    0    0 -0.35832883614E+02 -0.73101604027E+01 -0.42834377439E+01  0.54367057153E+02  0.39999938393E+02 0.  0.
         12    1    3    3    0    0  0.35832883614E+02  0.73101604027E+01  0.42834377439E+01  0.36820942847E+02  0.00000000000E+00 0. -1.
         11    1    4    4    0    0 -0.19292368404E+02  0.86390597221E+01  0.31850702960E+01  0.21376938616E+02  0.51100000000E-03 0. -1.
        -11    1    4    4    0    0  0.18510838063E+01  0.39458018746E+01 -0.35364288681E+01  0.56126814529E+01  0.51100000000E-03 0.  1.
        -12    1    4    4    0    0 -0.18391599016E+02 -0.19895021999E+02 -0.39320791718E+01  0.27377437085E+02  0.00000000000E+00 0.  1.
</event>
<event>
 8    1  0.1240174E-006  0.9118800E+02  0.7816164E-02  0.1184000E+00
        -11   -1    0    0    0    0  0.00000000000E+00  0.00000000000E+00  0.45593999997E+02  0.45594000000E+02  0.51100000000E-03 0.  1.
         11   -1    0    0    0    0 -0.00000000000E+00 -0.00000000000E+00 -0.45593999997E+02  0.45594000000E+02  0.51100000000E-03 0. -1.
         23    2    1    2    0    0  0.00000000000E+00  0.00000000000E+00 -0.22204460493E-14  0.91188000000E+02  0.91188000000E+02 0.  0.
    9900012    2    3    3    0    0  0.78614914613E+01 -0.35912363518E+02 -0.20688509254E+01  0.54367067834E+02  0.39999962741E+02 0.  0.
        -12    1    3    3    0    0 -0.78614914613E+01  0.35912363518E+02  0.20688509254E+01  0.36820932166E+02  0.00000000000E+00 0.  1.
         11    1    4    4    0    0  0.73593657946E+01 -0.54307673511E+01  0.83194948719E+01  0.12363959483E+02  0.51100000000E-03 0. -1.
        -11    1    4    4    0    0 -0.35884053692E+00 -0.69685320250E+01 -0.16310533643E+02  0.17740425956E+02  0.51100000000E-03 0.  1.
        -12    1    4    4    0    0  0.86096620358E+00 -0.23513064142E+02  0.59221878456E+01  0.24262682395E+02  0.00000000000E+00 0.  1.
</event>
<event>
 8    1  0.1240174E-006  0.9118800E+02  0.7816164E-02  0.1184000E+00
        -11   -1    0    0    0    0  0.00000000000E+00  0.00000000000E+00  0.45593999997E+02  0.45594000000E+02  0.51100000000E-03 0.  1.
         11   -1    0    0    0    0 -0.00000000000E+00 -0.00000000000E+00 -0.45593999997E+02  0.45594000000E+02  0.51100000000E-03 0. -1.
         23    2    1    2    0    0 -0.35527136788E-14  0.17763568394E-14  0.71054273576E-14  0.91188000000E+02  0.91188000000E+02 0.  0.
    9900012    2    3    3    0    0 -0.25056895227E+02  0.93005220155E+01  0.25326503078E+02  0.54367089279E+02  0.40000011630E+02 0.  0.
         12    1    3    3    0    0  0.25056895227E+02 -0.93005220155E+01 -0.25326503078E+02  0.36820910721E+02  0.00000000000E+00 0. -1.
         11    1    4    4    0    0 -0.12209664120E+02  0.12969466936E+01 -0.47312127646E+01  0.13158356399E+02  0.51100000000E-03 0. -1.
        -11    1    4    4    0    0 -0.90602766183E+01 -0.73598164747E+01  0.83757610343E+01  0.14366937186E+02  0.51100000000E-03 0.  1.
        -12    1    4    4    0    0 -0.37869544887E+01  0.15363391797E+02  0.21681954808E+02  0.26841795694E+02  0.00000000000E+00 0.  1.
</event>
<event>
 8    1  0.1240174E-006  0.9118800E+02  0.7816164E-02  0.1184000E+00
        -11   -1    0    0    0    0  0.00000000000E+00  0.00000000000E+00  0.45593999997E+02  0.45594000000E+02  0.51100000000E-03 0.  1.
         11   -1    0    0    0    0 -0.00000000000E+00 -0.00000000000E+00 -0.45593999997E+02  0.45594000000E+02  0.51100000000E-03 0. -1.
         23    2    1    2    0    0  0.00000000000E+00  0.88817841970E-15  0.00000000000E+00  0.91188000000E+02  0.91188000000E+02 0.  0.
    9900012    2    3    3    0    0 -0.56525620765E+01  0.76947790841E+01 -0.35561492265E+02  0.54367070961E+02  0.39999969870E+02 0.  0.
        -12    1    3    3    0    0  0.56525620765E+01 -0.76947790841E+01  0.35561492265E+02  0.36820929039E+02  0.00000000000E+00 0.  1.
         11    1    4    4    0    0  0.32501507172E+01 -0.71863206638E+01 -0.26526652979E+02  0.27674356413E+02  0.51100000000E-03 0. -1.
        -11    1    4    4    0    0 -0.66723246287E+01  0.11829935937E+02  0.31439122351E+01  0.13941000130E+02  0.51100000000E-03 0.  1.
        -12    1    4    4    0    0 -0.22303881651E+01  0.30511638111E+01 -0.12178751521E+02  0.12751714418E+02  0.00000000000E+00 0.  1.
</event>
<event>
 8    1  0.1240174E-006  0.9118800E+02  0.7816164E-02  0.1184000E+00
        -11   -1    0    0    0    0  0.00000000000E+00  0.00000000000E+00  0.45593999997E+02  0.45594000000E+02  0.51100000000E-03 0.  1.
         11   -1    0    0    0    0 -0.00000000000E+00 -0.00000000000E+00 -0.45593999997E+02  0.45594000000E+02  0.51100000000E-03 0. -1.
         23    2    1    2    0    0  0.00000000000E+00  0.00000000000E+00  0.00000000000E+00  0.91188000000E+02  0.91188000000E+02 0.  0.
    9900012    2    3    3    0    0 -0.69835695400E+01 -0.34777464690E+02  0.98761497145E+01  0.54367073519E+02  0.39999975700E+02 0.  0.
         12    1    3    3    0    0  0.69835695400E+01  0.34777464690E+02 -0.98761497145E+01  0.36820926481E+02  0.00000000000E+00 0. -1.
         11    1    4    4    0    0 -0.95596056786E+01 -0.29247523460E+01  0.10771410712E+02  0.14695697534E+02  0.51100000000E-03 0. -1.
        -11    1    4    4    0    0  0.80164166196E+01 -0.49526186534E+01  0.62556109225E+01  0.11310350800E+02  0.51100000000E-03 0.  1.
         12    1    4    4    0    0 -0.54403804810E+01 -0.26900093690E+02 -0.71508719197E+01  0.28361025185E+02  0.00000000000E+00 0. -1.
</event>
<event>
 8    1  0.1240174E-006  0.9118800E+02  0.7816164E-02  0.1184000E+00
        -11   -1    0    0    0    0  0.00000000000E+00  0.00000000000E+00  0.45593999997E+02  0.45594000000E+02  0.51100000000E-03 0. -1.
         11   -1    0    0    0    0 -0.00000000000E+00 -0.00000000000E+00 -0.45593999997E+02  0.45594000000E+02  0.51100000000E-03 0.  1.
         23    2    1    2    0    0  0.35527136788E-14 -0.88817841970E-15 -0.35527136788E-14  0.91188000000E+02  0.91188000000E+02 0.  0.
    9900012    2    3    3    0    0 -0.25387798071E+02  0.40333512917E+01  0.26362313015E+02  0.54367085277E+02  0.40000002506E+02 0.  0.
        -12    1    3    3    0    0  0.25387798071E+02 -0.40333512917E+01 -0.26362313015E+02  0.36820914723E+02  0.00000000000E+00 0.  1.
         11    1    4    4    0    0  0.61596909801E+00 -0.95185288715E+00 -0.59812066575E+01  0.60877151042E+01  0.51100000000E-03 0. -1.
        -11    1    4    4    0    0  0.73001622128E+00  0.79457281917E+01  0.31349647059E+01  0.85729530588E+01  0.51100000000E-03 0.  1.
         12    1    4    4    0    0 -0.26733783391E+02 -0.29605240128E+01  0.29208554966E+02  0.39706417114E+02  0.00000000000E+00 0. -1.
</event>
<event>
 8    1  0.1240174E-006  0.9118800E+02  0.7816164E-02  0.1184000E+00
        -11   -1    0    0    0    0  0.00000000000E+00  0.00000000000E+00  0.45593999997E+02  0.45594000000E+02  0.51100000000E-03 0.  1.
         11   -1    0    0    0    0 -0.00000000000E+00 -0.00000000000E+00 -0.45593999997E+02  0.45594000000E+02  0.51100000000E-03 0. -1.
         23    2    1    2    0    0 -0.17763568394E-14  0.17763568394E-14  0.00000000000E+00  0.91188000000E+02  0.91188000000E+02 0.  0.
    9900012    2    3    3    0    0 -0.14060134824E+02 -0.15611706389E+02 -0.30238445778E+02  0.54367131315E+02  0.40000107459E+02 0.  0.
        -12    1    3    3    0    0  0.14060134824E+02  0.15611706389E+02  0.30238445778E+02  0.36820868685E+02  0.00000000000E+00 0.  1.
         11    1    4    4    0    0 -0.25149314942E+02 -0.93682466540E+01 -0.15937116088E+02  0.31212878062E+02  0.51100000000E-03 0. -1.
        -11    1    4    4    0    0  0.93010404612E+01 -0.85637410401E+01 -0.15488464718E+02  0.19993487786E+02  0.51100000000E-03 0.  1.
         12    1    4    4    0    0  0.17881396570E+01  0.23202813047E+01  0.11871350281E+01  0.31607654676E+01  0.00000000000E+00 0. -1.
</event>
<event>
 8    1  0.1240174E-006  0.9118800E+02  0.7816164E-02  0.1184000E+00
        -11   -1    0    0    0    0  0.00000000000E+00  0.00000000000E+00  0.45593999997E+02  0.45594000000E+02  0.51100000000E-03 0.  1.
         11   -1    0    0    0    0 -0.00000000000E+00 -0.00000000000E+00 -0.45593999997E+02  0.45594000000E+02  0.51100000000E-03 0. -1.
         23    2    1    2    0    0  0.00000000000E+00  0.13322676296E-14  0.71054273576E-14  0.91188000000E+02  0.91188000000E+02 0.  0.
    9900012    2    3    3    0    0 -0.18700942330E+02 -0.30791483951E+01  0.31568545033E+02  0.54367089713E+02  0.40000012618E+02 0.  0.
         12    1    3    3    0    0  0.18700942330E+02  0.30791483951E+01 -0.31568545033E+02  0.36820910287E+02  0.00000000000E+00 0. -1.
         11    1    4    4    0    0 -0.13069541874E+02  0.14928880331E+02  0.24022755988E+02  0.31157297673E+02  0.51100000000E-03 0.  1.
        -11    1    4    4    0    0 -0.17950692696E+01 -0.13391682776E+02  0.99126130093E+01  0.16757665058E+02  0.51100000000E-03 0. -1.
        -12    1    4    4    0    0 -0.38363311870E+01 -0.46163459508E+01 -0.23668239646E+01  0.64521269821E+01  0.00000000000E+00 0.  1.
</event>
<event>
 8    1  0.1240174E-006  0.9118800E+02  0.7816164E-02  0.1184000E+00
        -11   -1    0    0    0    0  0.00000000000E+00  0.00000000000E+00  0.45593999997E+02  0.45594000000E+02  0.51100000000E-03 0.  1.
         11   -1    0    0    0    0 -0.00000000000E+00 -0.00000000000E+00 -0.45593999997E+02  0.45594000000E+02  0.51100000000E-03 0. -1.
         23    2    1    2    0    0  0.35527136788E-14  0.49960036108E-15  0.35527136788E-14  0.91188000000E+02  0.91188000000E+02 0.  0.
    9900012    2    3    3    0    0  0.29800302598E+02 -0.26220189120E+00  0.21625281562E+02  0.54367087635E+02  0.40000007880E+02 0.  0.
         12    1    3    3    0    0 -0.29800302598E+02  0.26220189120E+00 -0.21625281562E+02  0.36820912365E+02  0.00000000000E+00 0. -1.
         11    1    4    4    0    0 -0.23206724884E+01  0.28760059590E+01  0.18834089034E+01  0.41477898251E+01  0.51100000000E-03 0. -1.
        -11    1    4    4    0    0  0.23372898559E+02 -0.39625903592E+01  0.28999108972E+02  0.37455878455E+02  0.51100000000E-03 0.  1.
        -12    1    4    4    0    0  0.87480765281E+01  0.82438250902E+00 -0.92572363133E+01  0.12763419355E+02  0.00000000000E+00 0.  1.
</event>
<event>
 8    1  0.1240174E-006  0.9118800E+02  0.7816164E-02  0.1184000E+00
        -11   -1    0    0    0    0  0.00000000000E+00  0.00000000000E+00  0.45593999997E+02  0.45594000000E+02  0.51100000000E-03 0. -1.
         11   -1    0    0    0    0 -0.00000000000E+00 -0.00000000000E+00 -0.45593999997E+02  0.45594000000E+02  0.51100000000E-03 0.  1.
         23    2    1    2    0    0 -0.88817841970E-15  0.13322676296E-14 -0.71054273576E-14  0.91188000000E+02  0.91188000000E+02 0.  0.
    9900012    2    3    3    0    0 -0.75265324308E+01  0.38610762578E+01 -0.35836058081E+02  0.54367086662E+02  0.40000005662E+02 0.  0.
         12    1    3    3    0    0  0.75265324308E+01 -0.38610762578E+01  0.35836058081E+02  0.36820913338E+02  0.00000000000E+00 0. -1.
         11    1    4    4    0    0 -0.41043207561E+01 -0.25399819785E+01  0.67895106208E+01  0.83303308488E+01  0.51100000000E-03 0. -1.
        -11    1    4    4    0    0 -0.12623408550E+01  0.11644746083E+02 -0.28108538038E+02  0.30451330458E+02  0.51100000000E-03 0.  1.
        -12    1    4    4    0    0 -0.21598708197E+01 -0.52436878469E+01 -0.14517030664E+02  0.15585425355E+02  0.00000000000E+00 0.  1.
</event>
<event>
 8    1  0.1240174E-006  0.9118800E+02  0.7816164E-02  0.1184000E+00
        -11   -1    0    0    0    0  0.00000000000E+00  0.00000000000E+00  0.45593999997E+02  0.45594000000E+02  0.51100000000E-03 0. -1.
         11   -1    0    0    0    0 -0.00000000000E+00 -0.00000000000E+00 -0.45593999997E+02  0.45594000000E+02  0.51100000000E-03 0.  1.
         23    2    1    2    0    0  0.00000000000E+00  0.88817841970E-15  0.00000000000E+00  0.91188000000E+02  0.91188000000E+02 0.  0.
    9900012    2    3    3    0    0 -0.35984721397E+02 -0.46214822065E+01  0.62865450755E+01  0.54367096687E+02  0.40000028518E+02 0.  0.
         12    1    3    3    0    0  0.35984721397E+02  0.46214822065E+01 -0.62865450755E+01  0.36820903313E+02  0.00000000000E+00 0. -1.
         11    1    4    4    0    0  0.19131871231E+01 -0.70877461149E+01 -0.36856682453E-01  0.73415113318E+01  0.51100000000E-03 0.  1.
        -11    1    4    4    0    0 -0.35257930106E+02  0.58319511807E+01  0.13883639958E+02  0.38339128168E+02  0.51100000000E-03 0. -1.
         12    1    4    4    0    0 -0.26399784138E+01 -0.33656872723E+01 -0.75602381998E+01  0.86864571879E+01  0.00000000000E+00 0. -1.
</event>
<event>
 8    1  0.1240174E-006  0.9118800E+02  0.7816164E-02  0.1184000E+00
        -11   -1    0    0    0    0  0.00000000000E+00  0.00000000000E+00  0.45593999997E+02  0.45594000000E+02  0.51100000000E-03 0.  1.
         11   -1    0    0    0    0 -0.00000000000E+00 -0.00000000000E+00 -0.45593999997E+02  0.45594000000E+02  0.51100000000E-03 0. -1.
         23    2    1    2    0    0  0.00000000000E+00  0.00000000000E+00 -0.22204460493E-15  0.91188000000E+02  0.91188000000E+02 0.  0.
    9900012    2    3    3    0    0  0.12034733707E+02 -0.34782953822E+02 -0.10440729330E+01  0.54367098595E+02  0.40000032867E+02 0.  0.
         12    1    3    3    0    0 -0.12034733707E+02  0.34782953822E+02  0.10440729330E+01  0.36820901405E+02  0.00000000000E+00 0. -1.
         11    1    4    4    0    0 -0.22007990874E+01 -0.42582813119E+00 -0.78308073692E+01  0.81453293693E+01  0.51100000000E-03 0. -1.
        -11    1    4    4    0    0 -0.31962293213E+00 -0.28677415791E+02 -0.11401707986E+01  0.28701852292E+02  0.51100000000E-03 0.  1.
        -12    1    4    4    0    0  0.14555155726E+02 -0.56797098993E+01  0.79269052348E+01  0.17519916934E+02  0.00000000000E+00 0.  1.
</event>
<event>
 8    1  0.1240174E-006  0.9118800E+02  0.7816164E-02  0.1184000E+00
        -11   -1    0    0    0    0  0.00000000000E+00  0.00000000000E+00  0.45593999997E+02  0.45594000000E+02  0.51100000000E-03 0. -1.
         11   -1    0    0    0    0 -0.00000000000E+00 -0.00000000000E+00 -0.45593999997E+02  0.45594000000E+02  0.51100000000E-03 0.  1.
         23    2    1    2    0    0  0.00000000000E+00  0.00000000000E+00  0.71054273576E-14  0.91188000000E+02  0.91188000000E+02 0.  0.
    9900012    2    3    3    0    0  0.13771583629E+02 -0.10700547101E+02 -0.32428697807E+02  0.54367100155E+02  0.40000036424E+02 0.  0.
         12    1    3    3    0    0 -0.13771583629E+02  0.10700547101E+02  0.32428697807E+02  0.36820899845E+02  0.00000000000E+00 0. -1.
         11    1    4    4    0    0 -0.39208433371E+01 -0.50611192127E+01 -0.11397521998E+02  0.13072545587E+02  0.51100000000E-03 0. -1.
        -11    1    4    4    0    0 -0.46868808613E+01 -0.11485852702E+02 -0.71310604904E+01  0.14308867477E+02  0.51100000000E-03 0.  1.
         12    1    4    4    0    0  0.22379307828E+02  0.58464248136E+01 -0.13900115318E+02  0.26985687092E+02  0.00000000000E+00 0. -1.
</event>
<event>
 8    1  0.1240174E-006  0.9118800E+02  0.7816164E-02  0.1184000E+00
        -11   -1    0    0    0    0  0.00000000000E+00  0.00000000000E+00  0.45593999997E+02  0.45594000000E+02  0.51100000000E-03 0.  1.
         11   -1    0    0    0    0 -0.00000000000E+00 -0.00000000000E+00 -0.45593999997E+02  0.45594000000E+02  0.51100000000E-03 0. -1.
         23    2    1    2    0    0  0.00000000000E+00  0.99920072216E-15 -0.17763568394E-14  0.91188000000E+02  0.91188000000E+02 0.  0.
    9900012    2    3    3    0    0 -0.36022421739E+02 -0.92040648756E+00  0.75708226354E+01  0.54367090568E+02  0.40000014567E+02 0.  0.
         12    1    3    3    0    0  0.36022421739E+02  0.92040648756E+00 -0.75708226354E+01  0.36820909432E+02  0.00000000000E+00 0. -1.
         11    1    4    4    0    0 -0.10570110114E+02 -0.50239521236E+01 -0.18055974744E+01  0.11841769516E+02  0.51100000000E-03 0. -1.
        -11    1    4    4    0    0 -0.14050503805E+02  0.11842659169E+02 -0.82573998850E+01  0.20145716331E+02  0.51100000000E-03 0.  1.
        -12    1    4    4    0    0 -0.11401807820E+02 -0.77391135333E+01  0.17633819995E+02  0.22379604721E+02  0.00000000000E+00 0.  1.
</event>
<event>
 8    1  0.1240174E-006  0.9118800E+02  0.7816164E-02  0.1184000E+00
        -11   -1    0    0    0    0  0.00000000000E+00  0.00000000000E+00  0.45593999997E+02  0.45594000000E+02  0.51100000000E-03 0.  1.
         11   -1    0    0    0    0 -0.00000000000E+00 -0.00000000000E+00 -0.45593999997E+02  0.45594000000E+02  0.51100000000E-03 0. -1.
         23    2    1    2    0    0 -0.88817841970E-15  0.00000000000E+00  0.00000000000E+00  0.91188000000E+02  0.91188000000E+02 0.  0.
    9900012    2    3    3    0    0  0.47408242854E+01  0.34959509406E+02  0.10542170856E+02  0.54367080957E+02  0.39999992657E+02 0.  0.
        -12    1    3    3    0    0 -0.47408242854E+01 -0.34959509406E+02 -0.10542170856E+02  0.36820919043E+02  0.00000000000E+00 0.  1.
         11    1    4    4    0    0  0.33571301858E+01  0.30615309511E+02 -0.79057882477E+00  0.30808968088E+02  0.51100000000E-03 0. -1.
        -11    1    4    4    0    0 -0.80698818767E+01 -0.21145477027E+01  0.15211228115E+01  0.84798655862E+01  0.51100000000E-03 0.  1.
        -12    1    4    4    0    0  0.94535759764E+01  0.64587475983E+01  0.98116268697E+01  0.15078247282E+02  0.00000000000E+00 0.  1.
</event>
<event>
 8    1  0.1240174E-006  0.9118800E+02  0.7816164E-02  0.1184000E+00
        -11   -1    0    0    0    0  0.00000000000E+00  0.00000000000E+00  0.45593999997E+02  0.45594000000E+02  0.51100000000E-03 0. -1.
         11   -1    0    0    0    0 -0.00000000000E+00 -0.00000000000E+00 -0.45593999997E+02  0.45594000000E+02  0.51100000000E-03 0.  1.
         23    2    1    2    0    0  0.00000000000E+00  0.00000000000E+00  0.00000000000E+00  0.91188000000E+02  0.91188000000E+02 0.  0.
    9900012    2    3    3    0    0 -0.33562807911E+02 -0.46430362655E+01 -0.14413850402E+02  0.54367096372E+02  0.40000027798E+02 0.  0.
         12    1    3    3    0    0  0.33562807911E+02  0.46430362655E+01  0.14413850402E+02  0.36820903628E+02  0.00000000000E+00 0. -1.
         11    1    4    4    0    0 -0.33918238791E+01 -0.21084850244E+01  0.78966330493E+01  0.88491238042E+01  0.51100000000E-03 0. -1.
        -11    1    4    4    0    0 -0.34117285253E+02  0.27723020255E+00 -0.16342180118E+02  0.37830316690E+02  0.51100000000E-03 0.  1.
        -12    1    4    4    0    0  0.39463012210E+01 -0.28117814437E+01 -0.59683033333E+01  0.76876558776E+01  0.00000000000E+00 0.  1.
</event>
<event>
 8    1  0.1240174E-006  0.9118800E+02  0.7816164E-02  0.1184000E+00
        -11   -1    0    0    0    0  0.00000000000E+00  0.00000000000E+00  0.45593999997E+02  0.45594000000E+02  0.51100000000E-03 0. -1.
         11   -1    0    0    0    0 -0.00000000000E+00 -0.00000000000E+00 -0.45593999997E+02  0.45594000000E+02  0.51100000000E-03 0.  1.
         23    2    1    2    0    0 -0.77715611724E-15  0.17763568394E-14  0.00000000000E+00  0.91188000000E+02  0.91188000000E+02 0.  0.
    9900012    2    3    3    0    0 -0.32287903523E+00 -0.12800994963E+02  0.34522599196E+02  0.54367087760E+02  0.40000008167E+02 0.  0.
        -12    1    3    3    0    0  0.32287903523E+00  0.12800994963E+02 -0.34522599196E+02  0.36820912240E+02  0.00000000000E+00 0.  1.
         11    1    4    4    0    0 -0.51051683949E+01 -0.18228901056E+02  0.53421670145E+01  0.19669629553E+02  0.51100000000E-03 0. -1.
        -11    1    4    4    0    0 -0.52857743694E+01  0.22615555644E+01  0.19661111076E+02  0.20484465657E+02  0.51100000000E-03 0.  1.
         12    1    4    4    0    0  0.10068063729E+02  0.31663505289E+01  0.95193211061E+01  0.14212992551E+02  0.00000000000E+00 0. -1.
</event>
<event>
 8    1  0.1240174E-006  0.9118800E+02  0.7816164E-02  0.1184000E+00
        -11   -1    0    0    0    0  0.00000000000E+00  0.00000000000E+00  0.45593999997E+02  0.45594000000E+02  0.51100000000E-03 0. -1.
         11   -1    0    0    0    0 -0.00000000000E+00 -0.00000000000E+00 -0.45593999997E+02  0.45594000000E+02  0.51100000000E-03 0.  1.
         23    2    1    2    0    0  0.00000000000E+00 -0.17763568394E-14 -0.88817841970E-15  0.91188000000E+02  0.91188000000E+02 0.  0.
    9900012    2    3    3    0    0 -0.33406106760E+02 -0.13652861848E+02  0.73083221428E+01  0.54367079615E+02  0.39999989597E+02 0.  0.
         12    1    3    3    0    0  0.33406106760E+02  0.13652861848E+02 -0.73083221428E+01  0.36820920385E+02  0.00000000000E+00 0. -1.
         11    1    4    4    0    0 -0.20492406671E+01 -0.33558255322E+00  0.12377551255E+02  0.12550529004E+02  0.51100000000E-03 0. -1.
        -11    1    4    4    0    0 -0.19589071180E+01 -0.11594047884E+02  0.81282651414E+00  0.11786430785E+02  0.51100000000E-03 0.  1.
         12    1    4    4    0    0 -0.29397958975E+02 -0.17232314109E+01 -0.58820556261E+01  0.30030119826E+02  0.00000000000E+00 0. -1.
</event>
<event>
 8    1  0.1240174E-006  0.9118800E+02  0.7816164E-02  0.1184000E+00
        -11   -1    0    0    0    0  0.00000000000E+00  0.00000000000E+00  0.45593999997E+02  0.45594000000E+02  0.51100000000E-03 0.  1.
         11   -1    0    0    0    0 -0.00000000000E+00 -0.00000000000E+00 -0.45593999997E+02  0.45594000000E+02  0.51100000000E-03 0. -1.
         23    2    1    2    0    0  0.00000000000E+00  0.00000000000E+00  0.88817841970E-15  0.91188000000E+02  0.91188000000E+02 0.  0.
    9900012    2    3    3    0    0  0.31371103683E+02  0.18599702373E+02  0.50679950503E+01  0.54367086806E+02  0.40000005991E+02 0.  0.
         12    1    3    3    0    0 -0.31371103683E+02 -0.18599702373E+02 -0.50679950503E+01  0.36820913194E+02  0.00000000000E+00 0. -1.
         11    1    4    4    0    0  0.19657441205E+02  0.18903046322E+02 -0.94228416947E+01  0.28853597710E+02  0.51100000000E-03 0. -1.
        -11    1    4    4    0    0 -0.19416898967E+01  0.47259165823E+01  0.19322217447E+00  0.51129035066E+01  0.51100000000E-03 0.  1.
        -12    1    4    4    0    0  0.13655352375E+02 -0.50292605309E+01  0.14297614571E+02  0.20400585589E+02  0.00000000000E+00 0.  1.
</event>
<event>
 8    1  0.1240174E-006  0.9118800E+02  0.7816164E-02  0.1184000E+00
        -11   -1    0    0    0    0  0.00000000000E+00  0.00000000000E+00  0.45593999997E+02  0.45594000000E+02  0.51100000000E-03 0. -1.
         11   -1    0    0    0    0 -0.00000000000E+00 -0.00000000000E+00 -0.45593999997E+02  0.45594000000E+02  0.51100000000E-03 0.  1.
         23    2    1    2    0    0  0.00000000000E+00  0.00000000000E+00  0.00000000000E+00  0.91188000000E+02  0.91188000000E+02 0.  0.
    9900012    2    3    3    0    0 -0.13264890424E+02 -0.11704873424E+02  0.32292704134E+02  0.54367080401E+02  0.39999991390E+02 0.  0.
        -12    1    3    3    0    0  0.13264890424E+02  0.11704873424E+02 -0.32292704134E+02  0.36820919599E+02  0.00000000000E+00 0.  1.
         11    1    4    4    0    0  0.15556842781E+01  0.69113387554E+01  0.97338452063E+01  0.12038874521E+02  0.51100000000E-03 0.  1.
        -11    1    4    4    0    0 -0.38122332924E+01 -0.10611792439E+02  0.25956366978E+02  0.28299757038E+02  0.51100000000E-03 0. -1.
        -12    1    4    4    0    0 -0.11008341410E+02 -0.80044197401E+01 -0.33975080505E+01  0.14028448842E+02  0.00000000000E+00 0.  1.
</event>
<event>
 8    1  0.1240174E-006  0.9118800E+02  0.7816164E-02  0.1184000E+00
        -11   -1    0    0    0    0  0.00000000000E+00  0.00000000000E+00  0.45593999997E+02  0.45594000000E+02  0.51100000000E-03 0. -1.
         11   -1    0    0    0    0 -0.00000000000E+00 -0.00000000000E+00 -0.45593999997E+02  0.45594000000E+02  0.51100000000E-03 0.  1.
         23    2    1    2    0    0 -0.88817841970E-15  0.00000000000E+00  0.00000000000E+00  0.91188000000E+02  0.91188000000E+02 0.  0.
    9900012    2    3    3    0    0 -0.66576853188E+01  0.13135192661E+02 -0.33747975638E+02  0.54367028805E+02  0.39999873768E+02 0.  0.
         12    1    3    3    0    0  0.66576853188E+01 -0.13135192661E+02  0.33747975638E+02  0.36820971195E+02  0.00000000000E+00 0. -1.
         11    1    4    4    0    0  0.16007518398E+01 -0.14051931456E+01  0.41694443260E+01  0.46820124389E+01  0.51100000000E-03 0. -1.
        -11    1    4    4    0    0 -0.11543036712E+02  0.19760913291E+02 -0.18862927187E+02  0.29657130895E+02  0.51100000000E-03 0.  1.
        -12    1    4    4    0    0  0.32845995531E+01 -0.52205274849E+01 -0.19054492778E+02  0.20027885471E+02  0.00000000000E+00 0.  1.
</event>
<event>
 8    1  0.1240174E-006  0.9118800E+02  0.7816164E-02  0.1184000E+00
        -11   -1    0    0    0    0  0.00000000000E+00  0.00000000000E+00  0.45593999997E+02  0.45594000000E+02  0.51100000000E-03 0.  1.
         11   -1    0    0    0    0 -0.00000000000E+00 -0.00000000000E+00 -0.45593999997E+02  0.45594000000E+02  0.51100000000E-03 0. -1.
         23    2    1    2    0    0  0.35527136788E-14  0.35527136788E-14  0.00000000000E+00  0.91188000000E+02  0.91188000000E+02 0.  0.
    9900012    2    3    3    0    0  0.26450159664E+02 -0.16844969779E+02 -0.19298051571E+02  0.54367099040E+02  0.40000033881E+02 0.  0.
        -12    1    3    3    0    0 -0.26450159664E+02  0.16844969779E+02  0.19298051571E+02  0.36820900960E+02  0.00000000000E+00 0.  1.
         11    1    4    4    0    0 -0.22560714326E+01 -0.10912950836E+02 -0.78545643044E+01  0.13633654497E+02  0.51100000000E-03 0. -1.
        -11    1    4    4    0    0  0.26565380973E+02 -0.15991351767E+01  0.17616361735E+01  0.26671709016E+02  0.51100000000E-03 0.  1.
         12    1    4    4    0    0  0.21408501234E+01 -0.43328837660E+01 -0.13205123440E+02  0.14061735527E+02  0.00000000000E+00 0. -1.
</event>
<event>
 8    1  0.1240174E-006  0.9118800E+02  0.7816164E-02  0.1184000E+00
        -11   -1    0    0    0    0  0.00000000000E+00  0.00000000000E+00  0.45593999997E+02  0.45594000000E+02  0.51100000000E-03 0.  1.
         11   -1    0    0    0    0 -0.00000000000E+00 -0.00000000000E+00 -0.45593999997E+02  0.45594000000E+02  0.51100000000E-03 0. -1.
         23    2    1    2    0    0 -0.17763568394E-14  0.00000000000E+00  0.00000000000E+00  0.91188000000E+02  0.91188000000E+02 0.  0.
    9900012    2    3    3    0    0  0.14230750405E+02 -0.33378893925E+02  0.62542639881E+01  0.54367073412E+02  0.39999975458E+02 0.  0.
        -12    1    3    3    0    0 -0.14230750405E+02  0.33378893925E+02 -0.62542639881E+01  0.36820926588E+02  0.00000000000E+00 0.  1.
         11    1    4    4    0    0 -0.80999776637E+01 -0.12504645495E+02 -0.36414868878E+01  0.15337412563E+02  0.51100000000E-03 0. -1.
        -11    1    4    4    0    0  0.28939871709E+01 -0.96639522827E+01  0.12916781115E+02  0.16389337085E+02  0.51100000000E-03 0.  1.
         12    1    4    4    0    0  0.19436740898E+02 -0.11210296147E+02 -0.30210302389E+01  0.22640323764E+02  0.00000000000E+00 0. -1.
</event>
<event>
 8    1  0.1240174E-006  0.9118800E+02  0.7816164E-02  0.1184000E+00
        -11   -1    0    0    0    0  0.00000000000E+00  0.00000000000E+00  0.45593999997E+02  0.45594000000E+02  0.51100000000E-03 0.  1.
         11   -1    0    0    0    0 -0.00000000000E+00 -0.00000000000E+00 -0.45593999997E+02  0.45594000000E+02  0.51100000000E-03 0. -1.
         23    2    1    2    0    0 -0.17763568394E-14  0.00000000000E+00  0.00000000000E+00  0.91188000000E+02  0.91188000000E+02 0.  0.
    9900012    2    3    3    0    0 -0.14002304870E+02 -0.16875436095E+02  0.29579309007E+02  0.54367076513E+02  0.39999982528E+02 0.  0.
         12    1    3    3    0    0  0.14002304870E+02  0.16875436095E+02 -0.29579309007E+02  0.36820923487E+02  0.00000000000E+00 0. -1.
         11    1    4    4    0    0 -0.26755912679E+01  0.67563008094E+01  0.47046719719E+01  0.86568081811E+01  0.51100000000E-03 0. -1.
        -11    1    4    4    0    0 -0.11303939624E+02  0.15759586610E+01  0.14495376737E+02  0.18449353477E+02  0.51100000000E-03 0.  1.
        -12    1    4    4    0    0 -0.22773977795E-01 -0.25207695566E+02  0.10379260298E+02  0.27260914855E+02  0.00000000000E+00 0.  1.
</event>
<event>
 8    1  0.1240174E-006  0.9118800E+02  0.7816164E-02  0.1184000E+00
        -11   -1    0    0    0    0  0.00000000000E+00  0.00000000000E+00  0.45593999997E+02  0.45594000000E+02  0.51100000000E-03 0. -1.
         11   -1    0    0    0    0 -0.00000000000E+00 -0.00000000000E+00 -0.45593999997E+02  0.45594000000E+02  0.51100000000E-03 0.  1.
         23    2    1    2    0    0 -0.17763568394E-14 -0.17763568394E-14  0.00000000000E+00  0.91188000000E+02  0.91188000000E+02 0.  0.
    9900012    2    3    3    0    0  0.82099590378E+01 -0.14516672596E+02 -0.32827466980E+02  0.54367084762E+02  0.40000001331E+02 0.  0.
         12    1    3    3    0    0 -0.82099590378E+01  0.14516672596E+02  0.32827466980E+02  0.36820915238E+02  0.00000000000E+00 0. -1.
         11    1    4    4    0    0 -0.25970244977E+01  0.26393729198E+01 -0.91099813904E+01  0.98337473450E+01  0.51100000000E-03 0. -1.
        -11    1    4    4    0    0 -0.14950498349E+01 -0.57642232951E+01 -0.26827866389E+02  0.27480827124E+02  0.51100000000E-03 0.  1.
         12    1    4    4    0    0  0.12302033370E+02 -0.11391822220E+02  0.31103807989E+01  0.17052510292E+02  0.00000000000E+00 0. -1.
</event>
<event>
 8    1  0.1240174E-006  0.9118800E+02  0.7816164E-02  0.1184000E+00
        -11   -1    0    0    0    0  0.00000000000E+00  0.00000000000E+00  0.45593999997E+02  0.45594000000E+02  0.51100000000E-03 0.  1.
         11   -1    0    0    0    0 -0.00000000000E+00 -0.00000000000E+00 -0.45593999997E+02  0.45594000000E+02  0.51100000000E-03 0. -1.
         23    2    1    2    0    0 -0.35527136788E-14  0.00000000000E+00 -0.17763568394E-14  0.91188000000E+02  0.91188000000E+02 0.  0.
    9900012    2    3    3    0    0  0.25093571273E+02 -0.22762595301E+02  0.14420684920E+02  0.54367092656E+02  0.40000019328E+02 0.  0.
         12    1    3    3    0    0 -0.25093571273E+02  0.22762595301E+02 -0.14420684920E+02  0.36820907344E+02  0.00000000000E+00 0. -1.
         11    1    4    4    0    0  0.15079975415E+02 -0.21583840986E+02  0.73250310103E+01  0.27329909071E+02  0.51100000000E-03 0. -1.
        -11    1    4    4    0    0 -0.78348728354E+01  0.13635031098E+01  0.10486417118E+01  0.80214726066E+01  0.51100000000E-03 0.  1.
         12    1    4    4    0    0  0.17848468693E+02 -0.25422574244E+01  0.60470121982E+01  0.19015710979E+02  0.00000000000E+00 0. -1.
</event>
<event>
 8    1  0.1240174E-006  0.9118800E+02  0.7816164E-02  0.1184000E+00
        -11   -1    0    0    0    0  0.00000000000E+00  0.00000000000E+00  0.45593999997E+02  0.45594000000E+02  0.51100000000E-03 0.  1.
         11   -1    0    0    0    0 -0.00000000000E+00 -0.00000000000E+00 -0.45593999997E+02  0.45594000000E+02  0.51100000000E-03 0. -1.
         23    2    1    2    0    0  0.17763568394E-14 -0.35527136788E-14  0.71054273576E-14  0.91188000000E+02  0.91188000000E+02 0.  0.
    9900012    2    3    3    0    0  0.90845985269E+01  0.17443629926E+02 -0.31128277670E+02  0.54367084394E+02  0.40000000493E+02 0.  0.
        -12    1    3    3    0    0 -0.90845985269E+01 -0.17443629926E+02  0.31128277670E+02  0.36820915606E+02  0.00000000000E+00 0.  1.
         11    1    4    4    0    0  0.67064539485E+01 -0.38622700330E+01 -0.84936185266E+01  0.11490657523E+02  0.51100000000E-03 0. -1.
        -11    1    4    4    0    0  0.12097662134E+02 -0.43466721002E+00 -0.43910635798E+01  0.12877259192E+02  0.51100000000E-03 0.  1.
        -12    1    4    4    0    0 -0.97195175553E+01  0.21740567169E+02 -0.18243595564E+02  0.29999167679E+02  0.00000000000E+00 0.  1.
</event>
<event>
 8    1  0.1240174E-006  0.9118800E+02  0.7816164E-02  0.1184000E+00
        -11   -1    0    0    0    0  0.00000000000E+00  0.00000000000E+00  0.45593999997E+02  0.45594000000E+02  0.51100000000E-03 0. -1.
         11   -1    0    0    0    0 -0.00000000000E+00 -0.00000000000E+00 -0.45593999997E+02  0.45594000000E+02  0.51100000000E-03 0.  1.
         23    2    1    2    0    0  0.00000000000E+00  0.00000000000E+00  0.00000000000E+00  0.91188000000E+02  0.91188000000E+02 0.  0.
    9900012    2    3    3    0    0 -0.25420705435E+02 -0.19461769110E+02  0.18188100782E+02  0.54367085674E+02  0.40000003412E+02 0.  0.
         12    1    3    3    0    0  0.25420705435E+02  0.19461769110E+02 -0.18188100782E+02  0.36820914326E+02  0.00000000000E+00 0. -1.
         11    1    4    4    0    0 -0.19464808058E+02 -0.17440616226E+02  0.22907783854E+02  0.34753710715E+02  0.51100000000E-03 0. -1.
        -11    1    4    4    0    0 -0.52433094347E+01 -0.98261783667E+01 -0.19889930337E+01  0.11313804341E+02  0.51100000000E-03 0.  1.
         12    1    4    4    0    0 -0.71258794166E+00  0.78050254826E+01 -0.27306900380E+01  0.82995706180E+01  0.00000000000E+00 0. -1.
</event>
<event>
 8    1  0.1240174E-006  0.9118800E+02  0.7816164E-02  0.1184000E+00
        -11   -1    0    0    0    0  0.00000000000E+00  0.00000000000E+00  0.45593999997E+02  0.45594000000E+02  0.51100000000E-03 0.  1.
         11   -1    0    0    0    0 -0.00000000000E+00 -0.00000000000E+00 -0.45593999997E+02  0.45594000000E+02  0.51100000000E-03 0. -1.
         23    2    1    2    0    0  0.00000000000E+00  0.00000000000E+00  0.00000000000E+00  0.91188000000E+02  0.91188000000E+02 0.  0.
    9900012    2    3    3    0    0 -0.26567227572E+02 -0.32444513325E+01  0.25287075989E+02  0.54367078537E+02  0.39999987141E+02 0.  0.
         12    1    3    3    0    0  0.26567227572E+02  0.32444513325E+01 -0.25287075989E+02  0.36820921463E+02  0.00000000000E+00 0. -1.
         11    1    4    4    0    0 -0.56164725264E+01  0.89637663568E+00 -0.50640788056E+01  0.76153233105E+01  0.51100000000E-03 0. -1.
        -11    1    4    4    0    0  0.44609954389E+01 -0.72449372271E+01  0.23823624817E+01  0.88354539774E+01  0.51100000000E-03 0.  1.
        -12    1    4    4    0    0 -0.25411750484E+02  0.31041092590E+01  0.27968792313E+02  0.37916301249E+02  0.00000000000E+00 0.  1.
</event>
<event>
 8    1  0.1240174E-006  0.9118800E+02  0.7816164E-02  0.1184000E+00
        -11   -1    0    0    0    0  0.00000000000E+00  0.00000000000E+00  0.45593999997E+02  0.45594000000E+02  0.51100000000E-03 0.  1.
         11   -1    0    0    0    0 -0.00000000000E+00 -0.00000000000E+00 -0.45593999997E+02  0.45594000000E+02  0.51100000000E-03 0. -1.
         23    2    1    2    0    0  0.00000000000E+00  0.35527136788E-14  0.00000000000E+00  0.91188000000E+02  0.91188000000E+02 0.  0.
    9900012    2    3    3    0    0  0.14414194691E+02 -0.31642780066E+02  0.12113640181E+02  0.54367152408E+02  0.40000155545E+02 0.  0.
         12    1    3    3    0    0 -0.14414194691E+02  0.31642780066E+02 -0.12113640181E+02  0.36820847592E+02  0.00000000000E+00 0. -1.
         11    1    4    4    0    0  0.41907784895E+01 -0.76772071541E+00  0.32505344244E+01  0.53589172180E+01  0.51100000000E-03 0. -1.
        -11    1    4    4    0    0  0.22316673753E+02 -0.27143334225E+02  0.36790260662E+01  0.35331710308E+02  0.51100000000E-03 0.  1.
         12    1    4    4    0    0 -0.12093257551E+02 -0.37317251255E+01  0.51840796905E+01  0.13676524882E+02  0.00000000000E+00 0. -1.
</event>
<event>
 8    1  0.1240174E-006  0.9118800E+02  0.7816164E-02  0.1184000E+00
        -11   -1    0    0    0    0  0.00000000000E+00  0.00000000000E+00  0.45593999997E+02  0.45594000000E+02  0.51100000000E-03 0.  1.
         11   -1    0    0    0    0 -0.00000000000E+00 -0.00000000000E+00 -0.45593999997E+02  0.45594000000E+02  0.51100000000E-03 0. -1.
         23    2    1    2    0    0  0.00000000000E+00  0.00000000000E+00  0.00000000000E+00  0.91188000000E+02  0.91188000000E+02 0.  0.
    9900012    2    3    3    0    0  0.16277204216E+02 -0.96460052927E+01 -0.31587771630E+02  0.54367080515E+02  0.39999991650E+02 0.  0.
        -12    1    3    3    0    0 -0.16277204216E+02  0.96460052927E+01  0.31587771630E+02  0.36820919485E+02  0.00000000000E+00 0.  1.
         11    1    4    4    0    0  0.74197714844E+01 -0.13515253708E+02 -0.20470677251E+02  0.25627401722E+02  0.51100000000E-03 0. -1.
        -11    1    4    4    0    0 -0.70858962801E+01 -0.28985846520E+01  0.82692803262E+00  0.77003590377E+01  0.51100000000E-03 0.  1.
         12    1    4    4    0    0  0.15943329012E+02  0.67678330669E+01 -0.11944022412E+02  0.21039319755E+02  0.00000000000E+00 0. -1.
</event>
<event>
 8    1  0.1240174E-006  0.9118800E+02  0.7816164E-02  0.1184000E+00
        -11   -1    0    0    0    0  0.00000000000E+00  0.00000000000E+00  0.45593999997E+02  0.45594000000E+02  0.51100000000E-03 0. -1.
         11   -1    0    0    0    0 -0.00000000000E+00 -0.00000000000E+00 -0.45593999997E+02  0.45594000000E+02  0.51100000000E-03 0.  1.
         23    2    1    2    0    0  0.88817841970E-15 -0.13322676296E-14  0.71054273576E-14  0.91188000000E+02  0.91188000000E+02 0.  0.
    9900012    2    3    3    0    0 -0.40637705816E+01  0.21007637525E+01 -0.36535645503E+02  0.54367070734E+02  0.39999969353E+02 0.  0.
         12    1    3    3    0    0  0.40637705816E+01 -0.21007637525E+01  0.36535645503E+02  0.36820929266E+02  0.00000000000E+00 0. -1.
         11    1    4    4    0    0  0.10071341268E+02 -0.61301502726E+01 -0.78466083253E+01  0.14162624043E+02  0.51100000000E-03 0. -1.
        -11    1    4    4    0    0 -0.67617683344E+01  0.50080018638E+01 -0.30764257812E+02  0.31894218170E+02  0.51100000000E-03 0.  1.
         12    1    4    4    0    0 -0.73733435155E+01  0.32229121613E+01  0.20752206348E+01  0.83102285215E+01  0.00000000000E+00 0. -1.
</event>
<event>
 8    1  0.1240174E-006  0.9118800E+02  0.7816164E-02  0.1184000E+00
        -11   -1    0    0    0    0  0.00000000000E+00  0.00000000000E+00  0.45593999997E+02  0.45594000000E+02  0.51100000000E-03 0. -1.
         11   -1    0    0    0    0 -0.00000000000E+00 -0.00000000000E+00 -0.45593999997E+02  0.45594000000E+02  0.51100000000E-03 0.  1.
         23    2    1    2    0    0 -0.13877787808E-15  0.00000000000E+00  0.00000000000E+00  0.91188000000E+02  0.91188000000E+02 0.  0.
    9900012    2    3    3    0    0  0.13843687141E+00  0.32852985361E+02  0.16626556385E+02  0.54367079464E+02  0.39999989254E+02 0.  0.
        -12    1    3    3    0    0 -0.13843687141E+00 -0.32852985361E+02 -0.16626556385E+02  0.36820920536E+02  0.00000000000E+00 0.  1.
         11    1    4    4    0    0 -0.11211096280E+02  0.15661052663E+02  0.18743789380E+02  0.26875395642E+02  0.51100000000E-03 0. -1.
        -11    1    4    4    0    0  0.76730280649E+01  0.13533211371E+02  0.69553279231E+01  0.17041119578E+02  0.51100000000E-03 0.  1.
        -12    1    4    4    0    0  0.36765050867E+01  0.36587213267E+01 -0.90725609182E+01  0.10450564244E+02  0.00000000000E+00 0.  1.
</event>
<event>
 8    1  0.1240174E-006  0.9118800E+02  0.7816164E-02  0.1184000E+00
        -11   -1    0    0    0    0  0.00000000000E+00  0.00000000000E+00  0.45593999997E+02  0.45594000000E+02  0.51100000000E-03 0. -1.
         11   -1    0    0    0    0 -0.00000000000E+00 -0.00000000000E+00 -0.45593999997E+02  0.45594000000E+02  0.51100000000E-03 0.  1.
         23    2    1    2    0    0  0.35527136788E-14  0.17763568394E-14  0.00000000000E+00  0.91188000000E+02  0.91188000000E+02 0.  0.
    9900012    2    3    3    0    0  0.23777778950E+02 -0.53326780354E+01  0.27603608901E+02  0.54367089485E+02  0.40000012098E+02 0.  0.
        -12    1    3    3    0    0 -0.23777778950E+02  0.53326780354E+01 -0.27603608901E+02  0.36820910515E+02  0.00000000000E+00 0.  1.
         11    1    4    4    0    0 -0.28896255570E+01 -0.34180655618E+00  0.63465978653E+01  0.69818387483E+01  0.51100000000E-03 0.  1.
        -11    1    4    4    0    0  0.24544708236E+01  0.74605779751E+01  0.18403354846E+02  0.20009200899E+02  0.51100000000E-03 0. -1.
        -12    1    4    4    0    0  0.24212933683E+02 -0.12451449454E+02  0.28536561895E+01  0.27376049838E+02  0.00000000000E+00 0.  1.
</event>
<event>
 8    1  0.1240174E-006  0.9118800E+02  0.7816164E-02  0.1184000E+00
        -11   -1    0    0    0    0  0.00000000000E+00  0.00000000000E+00  0.45593999997E+02  0.45594000000E+02  0.51100000000E-03 0.  1.
         11   -1    0    0    0    0 -0.00000000000E+00 -0.00000000000E+00 -0.45593999997E+02  0.45594000000E+02  0.51100000000E-03 0. -1.
         23    2    1    2    0    0 -0.35527136788E-14  0.00000000000E+00  0.17763568394E-14  0.91188000000E+02  0.91188000000E+02 0.  0.
    9900012    2    3    3    0    0 -0.28573143604E+02 -0.20859331835E+02  0.10210000876E+02  0.54367076901E+02  0.39999983411E+02 0.  0.
         12    1    3    3    0    0  0.28573143604E+02  0.20859331835E+02 -0.10210000876E+02  0.36820923099E+02  0.00000000000E+00 0. -1.
         11    1    4    4    0    0  0.36144778808E+01  0.26686567724E-01 -0.52163942869E+01  0.63463321802E+01  0.51100000000E-03 0. -1.
        -11    1    4    4    0    0 -0.28080027546E+02 -0.26259337782E+02  0.14917956059E+02  0.41238164132E+02  0.51100000000E-03 0.  1.
        -12    1    4    4    0    0 -0.41075939384E+01  0.53733193793E+01  0.50843910288E+00  0.67825805882E+01  0.00000000000E+00 0.  1.
</event>
<event>
 8    1  0.1240174E-006  0.9118800E+02  0.7816164E-02  0.1184000E+00
        -11   -1    0    0    0    0  0.00000000000E+00  0.00000000000E+00  0.45593999997E+02  0.45594000000E+02  0.51100000000E-03 0.  1.
         11   -1    0    0    0    0 -0.00000000000E+00 -0.00000000000E+00 -0.45593999997E+02  0.45594000000E+02  0.51100000000E-03 0. -1.
         23    2    1    2    0    0  0.00000000000E+00 -0.35527136788E-14  0.00000000000E+00  0.91188000000E+02  0.91188000000E+02 0.  0.
    9900012    2    3    3    0    0  0.19201218374E+02 -0.26474262291E+02 -0.16917613359E+02  0.54367095711E+02  0.40000026293E+02 0.  0.
        -12    1    3    3    0    0 -0.19201218374E+02  0.26474262291E+02  0.16917613359E+02  0.36820904289E+02  0.00000000000E+00 0.  1.
         11    1    4    4    0    0 -0.38803678482E+01 -0.22931952176E+02 -0.37774941226E+01  0.23562706707E+02  0.51100000000E-03 0. -1.
        -11    1    4    4    0    0  0.24759159241E+02 -0.36476361047E+01 -0.94529979258E+01  0.26752203377E+02  0.51100000000E-03 0.  1.
        -12    1    4    4    0    0 -0.16775730192E+01  0.10532599013E+00 -0.36871213106E+01  0.40521856273E+01  0.00000000000E+00 0.  1.
</event>
<event>
 8    1  0.1240174E-006  0.9118800E+02  0.7816164E-02  0.1184000E+00
        -11   -1    0    0    0    0  0.00000000000E+00  0.00000000000E+00  0.45593999997E+02  0.45594000000E+02  0.51100000000E-03 0.  1.
         11   -1    0    0    0    0 -0.00000000000E+00 -0.00000000000E+00 -0.45593999997E+02  0.45594000000E+02  0.51100000000E-03 0. -1.
         23    2    1    2    0    0  0.71054273576E-14 -0.15543122345E-14  0.17763568394E-14  0.91188000000E+02  0.91188000000E+02 0.  0.
    9900012    2    3    3    0    0  0.35989701258E+02  0.15852210040E+01  0.76164229739E+01  0.54367062733E+02  0.39999951113E+02 0.  0.
         12    1    3    3    0    0 -0.35989701258E+02 -0.15852210040E+01 -0.76164229739E+01  0.36820937267E+02  0.00000000000E+00 0. -1.
         11    1    4    4    0    0  0.66631332639E+00 -0.80306463219E+01 -0.50871099905E+00  0.80742826888E+01  0.51100000000E-03 0. -1.
        -11    1    4    4    0    0 -0.35196373276E+01  0.54740568126E+01  0.97468521403E+00  0.65805133867E+01  0.51100000000E-03 0.  1.
        -12    1    4    4    0    0  0.38843025259E+02  0.41418105133E+01  0.71504487589E+01  0.39712266658E+02  0.00000000000E+00 0.  1.
</event>
<event>
 8    1  0.1240174E-006  0.9118800E+02  0.7816164E-02  0.1184000E+00
        -11   -1    0    0    0    0  0.00000000000E+00  0.00000000000E+00  0.45593999997E+02  0.45594000000E+02  0.51100000000E-03 0.  1.
         11   -1    0    0    0    0 -0.00000000000E+00 -0.00000000000E+00 -0.45593999997E+02  0.45594000000E+02  0.51100000000E-03 0. -1.
         23    2    1    2    0    0 -0.88817841970E-15  0.88817841970E-15  0.00000000000E+00  0.91188000000E+02  0.91188000000E+02 0.  0.
    9900012    2    3    3    0    0 -0.71134265041E+01  0.48870844726E+01  0.35795186508E+02  0.54367084633E+02  0.40000001038E+02 0.  0.
         12    1    3    3    0    0  0.71134265041E+01 -0.48870844726E+01 -0.35795186508E+02  0.36820915367E+02  0.00000000000E+00 0. -1.
         11    1    4    4    0    0 -0.42153628257E-01  0.23988636131E+01 -0.41957686215E+01  0.48333009578E+01  0.51100000000E-03 0. -1.
        -11    1    4    4    0    0 -0.87851372745E+01 -0.10499890256E+02  0.10465329725E+02  0.17232221530E+02  0.51100000000E-03 0.  1.
        -12    1    4    4    0    0  0.17138643986E+01  0.12988111116E+02  0.29525625405E+02  0.32301562146E+02  0.00000000000E+00 0.  1.
</event>
<event>
 8    1  0.1240174E-006  0.9118800E+02  0.7816164E-02  0.1184000E+00
        -11   -1    0    0    0    0  0.00000000000E+00  0.00000000000E+00  0.45593999997E+02  0.45594000000E+02  0.51100000000E-03 0.  1.
         11   -1    0    0    0    0 -0.00000000000E+00 -0.00000000000E+00 -0.45593999997E+02  0.45594000000E+02  0.51100000000E-03 0. -1.
         23    2    1    2    0    0  0.00000000000E+00 -0.35527136788E-14  0.00000000000E+00  0.91188000000E+02  0.91188000000E+02 0.  0.
    9900012    2    3    3    0    0  0.28468538907E+02  0.19937425202E+02  0.12158188543E+02  0.54367079590E+02  0.39999989542E+02 0.  0.
         12    1    3    3    0    0 -0.28468538907E+02 -0.19937425202E+02 -0.12158188543E+02  0.36820920410E+02  0.00000000000E+00 0. -1.
         11    1    4    4    0    0  0.18635724462E+02 -0.78281615901E+01  0.66648799196E+00  0.20224108054E+02  0.51100000000E-03 0.  1.
        -11    1    4    4    0    0  0.37657167612E+01  0.23762191181E+02  0.53959754507E+01  0.24656417091E+02  0.51100000000E-03 0. -1.
        -12    1    4    4    0    0  0.60670976843E+01  0.40033956106E+01  0.60957251002E+01  0.94865544442E+01  0.00000000000E+00 0.  1.
</event>
<event>
 8    1  0.1240174E-006  0.9118800E+02  0.7816164E-02  0.1184000E+00
        -11   -1    0    0    0    0  0.00000000000E+00  0.00000000000E+00  0.45593999997E+02  0.45594000000E+02  0.51100000000E-03 0.  1.
         11   -1    0    0    0    0 -0.00000000000E+00 -0.00000000000E+00 -0.45593999997E+02  0.45594000000E+02  0.51100000000E-03 0. -1.
         23    2    1    2    0    0  0.17763568394E-14 -0.88817841970E-15  0.00000000000E+00  0.91188000000E+02  0.91188000000E+02 0.  0.
    9900012    2    3    3    0    0 -0.88579932939E+01 -0.65503336840E+01  0.35134155750E+02  0.54367084519E+02  0.40000000778E+02 0.  0.
         12    1    3    3    0    0  0.88579932939E+01  0.65503336840E+01 -0.35134155750E+02  0.36820915481E+02  0.00000000000E+00 0. -1.
         11    1    4    4    0    0 -0.21434505725E+02  0.12703888631E+01  0.10415975276E+02  0.23865130729E+02  0.51100000000E-03 0. -1.
        -11    1    4    4    0    0  0.45373814412E+01 -0.86588425097E+01  0.14105161147E+02  0.17161554568E+02  0.51100000000E-03 0.  1.
        -12    1    4    4    0    0  0.80391309897E+01  0.83811996268E+00  0.10613019328E+02  0.13340399222E+02  0.00000000000E+00 0.  1.
</event>
<event>
 8    1  0.1240174E-006  0.9118800E+02  0.7816164E-02  0.1184000E+00
        -11   -1    0    0    0    0  0.00000000000E+00  0.00000000000E+00  0.45593999997E+02  0.45594000000E+02  0.51100000000E-03 0.  1.
         11   -1    0    0    0    0 -0.00000000000E+00 -0.00000000000E+00 -0.45593999997E+02  0.45594000000E+02  0.51100000000E-03 0. -1.
         23    2    1    2    0    0 -0.53290705182E-14  0.35527136788E-14 -0.35527136788E-14  0.91188000000E+02  0.91188000000E+02 0.  0.
    9900012    2    3    3    0    0  0.15139602492E+02 -0.27039962556E+02  0.19885012363E+02  0.54367070417E+02  0.39999968629E+02 0.  0.
         12    1    3    3    0    0 -0.15139602492E+02  0.27039962556E+02 -0.19885012363E+02  0.36820929583E+02  0.00000000000E+00 0. -1.
         11    1    4    4    0    0 -0.31544673504E+01  0.17927585913E+01 -0.35821522862E+01  0.50986726601E+01  0.51100000000E-03 0. -1.
        -11    1    4    4    0    0  0.19408622707E+00 -0.12030745579E+02 -0.36664197993E+01  0.12578519112E+02  0.51100000000E-03 0.  1.
        -12    1    4    4    0    0  0.18099983616E+02 -0.16801975569E+02  0.27133584449E+02  0.36689878645E+02  0.00000000000E+00 0.  1.
</event>
<event>
 8    1  0.1240174E-006  0.9118800E+02  0.7816164E-02  0.1184000E+00
        -11   -1    0    0    0    0  0.00000000000E+00  0.00000000000E+00  0.45593999997E+02  0.45594000000E+02  0.51100000000E-03 0.  1.
         11   -1    0    0    0    0 -0.00000000000E+00 -0.00000000000E+00 -0.45593999997E+02  0.45594000000E+02  0.51100000000E-03 0. -1.
         23    2    1    2    0    0  0.00000000000E+00  0.17763568394E-14 -0.55511151231E-15  0.91188000000E+02  0.91188000000E+02 0.  0.
    9900012    2    3    3    0    0  0.35706344157E+02  0.89406416618E+01 -0.94956728815E+00  0.54367085231E+02  0.40000002401E+02 0.  0.
         12    1    3    3    0    0 -0.35706344157E+02 -0.89406416618E+01  0.94956728815E+00  0.36820914769E+02  0.00000000000E+00 0. -1.
         11    1    4    4    0    0  0.66968625387E+01  0.11487850953E+02 -0.91611648742E+01  0.16147619933E+02  0.51100000000E-03 0. -1.
        -11    1    4    4    0    0  0.15334333558E+02 -0.11361201751E+02 -0.17139559701E+01  0.19161323969E+02  0.51100000000E-03 0.  1.
        -12    1    4    4    0    0  0.13675148060E+02  0.88139924593E+01  0.99255535562E+01  0.19058141329E+02  0.00000000000E+00 0.  1.
</event>
<event>
 8    1  0.1240174E-006  0.9118800E+02  0.7816164E-02  0.1184000E+00
        -11   -1    0    0    0    0  0.00000000000E+00  0.00000000000E+00  0.45593999997E+02  0.45594000000E+02  0.51100000000E-03 0.  1.
         11   -1    0    0    0    0 -0.00000000000E+00 -0.00000000000E+00 -0.45593999997E+02  0.45594000000E+02  0.51100000000E-03 0. -1.
         23    2    1    2    0    0  0.00000000000E+00  0.00000000000E+00 -0.17763568394E-14  0.91188000000E+02  0.91188000000E+02 0.  0.
    9900012    2    3    3    0    0  0.22152691116E+02 -0.25594552481E+02  0.14489898712E+02  0.54367081963E+02  0.39999994952E+02 0.  0.
         12    1    3    3    0    0 -0.22152691116E+02  0.25594552481E+02 -0.14489898712E+02  0.36820918037E+02  0.00000000000E+00 0. -1.
         11    1    4    4    0    0  0.12287763840E+02 -0.85863921805E+01  0.33330434679E+01  0.15356576764E+02  0.51100000000E-03 0. -1.
        -11    1    4    4    0    0 -0.73315427695E+01 -0.12845989824E+02 -0.44204412146E+01  0.15437333796E+02  0.51100000000E-03 0.  1.
        -12    1    4    4    0    0  0.17196470045E+02 -0.41621704765E+01  0.15577296458E+02  0.23573171404E+02  0.00000000000E+00 0.  1.
</event>
<event>
 8    1  0.1240174E-006  0.9118800E+02  0.7816164E-02  0.1184000E+00
        -11   -1    0    0    0    0  0.00000000000E+00  0.00000000000E+00  0.45593999997E+02  0.45594000000E+02  0.51100000000E-03 0. -1.
         11   -1    0    0    0    0 -0.00000000000E+00 -0.00000000000E+00 -0.45593999997E+02  0.45594000000E+02  0.51100000000E-03 0.  1.
         23    2    1    2    0    0  0.00000000000E+00 -0.11102230246E-15  0.00000000000E+00  0.91188000000E+02  0.91188000000E+02 0.  0.
    9900012    2    3    3    0    0  0.31608010341E+02  0.82631182100E+00  0.18868702860E+02  0.54367122001E+02  0.40000086226E+02 0.  0.
        -12    1    3    3    0    0 -0.31608010341E+02 -0.82631182100E+00 -0.18868702860E+02  0.36820877999E+02  0.00000000000E+00 0.  1.
         11    1    4    4    0    0  0.13810105341E+02 -0.13772200984E+01  0.19157385330E+02  0.23656313273E+02  0.51100000000E-03 0. -1.
        -11    1    4    4    0    0  0.13606561015E+02 -0.74201546571E+00 -0.11854322017E+02  0.18061396412E+02  0.51100000000E-03 0.  1.
        -12    1    4    4    0    0  0.41913439853E+01  0.29455473851E+01  0.11565639547E+02  0.12649412316E+02  0.00000000000E+00 0.  1.
</event>
<event>
 8    1  0.1240174E-006  0.9118800E+02  0.7816164E-02  0.1184000E+00
        -11   -1    0    0    0    0  0.00000000000E+00  0.00000000000E+00  0.45593999997E+02  0.45594000000E+02  0.51100000000E-03 0. -1.
         11   -1    0    0    0    0 -0.00000000000E+00 -0.00000000000E+00 -0.45593999997E+02  0.45594000000E+02  0.51100000000E-03 0.  1.
         23    2    1    2    0    0  0.35527136788E-14 -0.35527136788E-14  0.35527136788E-14  0.91188000000E+02  0.91188000000E+02 0.  0.
    9900012    2    3    3    0    0  0.20652928054E+02 -0.28623503791E+02  0.10484769506E+02  0.54367098353E+02  0.40000032315E+02 0.  0.
        -12    1    3    3    0    0 -0.20652928054E+02  0.28623503791E+02 -0.10484769506E+02  0.36820901647E+02  0.00000000000E+00 0.  1.
         11    1    4    4    0    0  0.25067020344E+01 -0.91808563417E+01  0.87998436507E+01  0.12961825751E+02  0.51100000000E-03 0. -1.
        -11    1    4    4    0    0  0.70919167181E+01 -0.27003908727E+02  0.10816502565E+00  0.27919850809E+02  0.51100000000E-03 0.  1.
        -12    1    4    4    0    0  0.11054309302E+02  0.75612612770E+01  0.15767608294E+01  0.13485421793E+02  0.00000000000E+00 0.  1.
</event>
<event>
 8    1  0.1240174E-006  0.9118800E+02  0.7816164E-02  0.1184000E+00
        -11   -1    0    0    0    0  0.00000000000E+00  0.00000000000E+00  0.45593999997E+02  0.45594000000E+02  0.51100000000E-03 0. -1.
         11   -1    0    0    0    0 -0.00000000000E+00 -0.00000000000E+00 -0.45593999997E+02  0.45594000000E+02  0.51100000000E-03 0.  1.
         23    2    1    2    0    0 -0.17763568394E-14  0.00000000000E+00  0.00000000000E+00  0.91188000000E+02  0.91188000000E+02 0.  0.
    9900012    2    3    3    0    0  0.15200488129E+02  0.16436123304E+02 -0.29233214270E+02  0.54367057519E+02  0.39999939226E+02 0.  0.
         12    1    3    3    0    0 -0.15200488129E+02 -0.16436123304E+02  0.29233214270E+02  0.36820942481E+02  0.00000000000E+00 0. -1.
         11    1    4    4    0    0 -0.91054692226E+00  0.33085791133E-02 -0.11296989756E+01  0.14509743902E+01  0.51100000000E-03 0. -1.
        -11    1    4    4    0    0  0.73129180737E+01  0.18559425640E+02 -0.35834301825E+02  0.41012537576E+02  0.51100000000E-03 0.  1.
         12    1    4    4    0    0  0.87981169781E+01 -0.21266109145E+01  0.77307865311E+01  0.11903545553E+02  0.00000000000E+00 0. -1.
</event>
<event>
 8    1  0.1240174E-006  0.9118800E+02  0.7816164E-02  0.1184000E+00
        -11   -1    0    0    0    0  0.00000000000E+00  0.00000000000E+00  0.45593999997E+02  0.45594000000E+02  0.51100000000E-03 0. -1.
         11   -1    0    0    0    0 -0.00000000000E+00 -0.00000000000E+00 -0.45593999997E+02  0.45594000000E+02  0.51100000000E-03 0.  1.
         23    2    1    2    0    0  0.00000000000E+00  0.00000000000E+00 -0.35527136788E-14  0.91188000000E+02  0.91188000000E+02 0.  0.
    9900012    2    3    3    0    0  0.16661744203E+02 -0.21637718668E+02 -0.24697676903E+02  0.54367084293E+02  0.40000000263E+02 0.  0.
         12    1    3    3    0    0 -0.16661744203E+02  0.21637718668E+02  0.24697676903E+02  0.36820915707E+02  0.00000000000E+00 0. -1.
         11    1    4    4    0    0 -0.49653185901E+01 -0.10336823759E+02  0.45246286554E+01  0.12327878117E+02  0.51100000000E-03 0. -1.
        -11    1    4    4    0    0  0.17375092726E+02 -0.16935582124E+01 -0.99622146440E+01  0.20099942973E+02  0.51100000000E-03 0.  1.
        -12    1    4    4    0    0  0.42519700674E+01 -0.96073366968E+01 -0.19260090915E+02  0.21939263203E+02  0.00000000000E+00 0.  1.
</event>
<event>
 8    1  0.1240174E-006  0.9118800E+02  0.7816164E-02  0.1184000E+00
        -11   -1    0    0    0    0  0.00000000000E+00  0.00000000000E+00  0.45593999997E+02  0.45594000000E+02  0.51100000000E-03 0. -1.
         11   -1    0    0    0    0 -0.00000000000E+00 -0.00000000000E+00 -0.45593999997E+02  0.45594000000E+02  0.51100000000E-03 0.  1.
         23    2    1    2    0    0  0.17763568394E-14 -0.35527136788E-14 -0.35527136788E-14  0.91188000000E+02  0.91188000000E+02 0.  0.
    9900012    2    3    3    0    0 -0.31877463730E+01  0.26156646038E+02  0.25718630514E+02  0.54367084553E+02  0.40000000854E+02 0.  0.
        -12    1    3    3    0    0  0.31877463730E+01 -0.26156646038E+02 -0.25718630514E+02  0.36820915447E+02  0.00000000000E+00 0.  1.
         11    1    4    4    0    0  0.87486326327E+01 -0.39970250593E+01  0.14380291098E+02  0.17300507350E+02  0.51100000000E-03 0.  1.
        -11    1    4    4    0    0 -0.17664926446E+01  0.29617484857E+01  0.68784572982E+01  0.76945191806E+01  0.51100000000E-03 0. -1.
        -12    1    4    4    0    0 -0.10169886361E+02  0.27191922612E+02  0.44598821175E+01  0.29372058021E+02  0.00000000000E+00 0.  1.
</event>
<event>
 8    1  0.1240174E-006  0.9118800E+02  0.7816164E-02  0.1184000E+00
        -11   -1    0    0    0    0  0.00000000000E+00  0.00000000000E+00  0.45593999997E+02  0.45594000000E+02  0.51100000000E-03 0.  1.
         11   -1    0    0    0    0 -0.00000000000E+00 -0.00000000000E+00 -0.45593999997E+02  0.45594000000E+02  0.51100000000E-03 0. -1.
         23    2    1    2    0    0  0.00000000000E+00  0.00000000000E+00  0.35527136788E-14  0.91188000000E+02  0.91188000000E+02 0.  0.
    9900012    2    3    3    0    0 -0.25438217196E+02 -0.10081282123E+02 -0.24638268889E+02  0.54367089674E+02  0.40000012530E+02 0.  0.
        -12    1    3    3    0    0  0.25438217196E+02  0.10081282123E+02  0.24638268889E+02  0.36820910326E+02  0.00000000000E+00 0.  1.
         11    1    4    4    0    0 -0.12053484436E+02 -0.96696966501E+01 -0.99762767713E+01  0.18393358008E+02  0.51100000000E-03 0. -1.
        -11    1    4    4    0    0  0.47770467241E+01  0.74770399695E-01 -0.16997280731E+02  0.17655971186E+02  0.51100000000E-03 0.  1.
         12    1    4    4    0    0 -0.18161779484E+02 -0.48635587283E+00  0.23352886133E+01  0.18317760479E+02  0.00000000000E+00 0. -1.
</event>
<event>
 8    1  0.1240174E-006  0.9118800E+02  0.7816164E-02  0.1184000E+00
        -11   -1    0    0    0    0  0.00000000000E+00  0.00000000000E+00  0.45593999997E+02  0.45594000000E+02  0.51100000000E-03 0.  1.
         11   -1    0    0    0    0 -0.00000000000E+00 -0.00000000000E+00 -0.45593999997E+02  0.45594000000E+02  0.51100000000E-03 0. -1.
         23    2    1    2    0    0  0.71054273576E-14  0.00000000000E+00  0.22204460493E-14  0.91188000000E+02  0.91188000000E+02 0.  0.
    9900012    2    3    3    0    0  0.36523145174E+02 -0.42356606875E+01 -0.19746679487E+01  0.54367078388E+02  0.39999986801E+02 0.  0.
        -12    1    3    3    0    0 -0.36523145174E+02  0.42356606875E+01  0.19746679487E+01  0.36820921612E+02  0.00000000000E+00 0.  1.
         11    1    4    4    0    0  0.32174169706E+02 -0.72899001579E+01  0.15226929254E+02  0.36334270535E+02  0.51100000000E-03 0. -1.
        -11    1    4    4    0    0  0.38351879408E+01  0.22405699241E+01 -0.14491959144E+02  0.15157364554E+02  0.51100000000E-03 0.  1.
         12    1    4    4    0    0  0.51378752735E+00  0.81366954628E+00 -0.27096380587E+01  0.28754432985E+01  0.00000000000E+00 0. -1.
</event>
<event>
 8    1  0.1240174E-006  0.9118800E+02  0.7816164E-02  0.1184000E+00
        -11   -1    0    0    0    0  0.00000000000E+00  0.00000000000E+00  0.45593999997E+02  0.45594000000E+02  0.51100000000E-03 0. -1.
         11   -1    0    0    0    0 -0.00000000000E+00 -0.00000000000E+00 -0.45593999997E+02  0.45594000000E+02  0.51100000000E-03 0.  1.
         23    2    1    2    0    0  0.17763568394E-14  0.17763568394E-14 -0.71054273576E-14  0.91188000000E+02  0.91188000000E+02 0.  0.
    9900012    2    3    3    0    0 -0.69019410742E+01  0.79360283058E+01 -0.35286860606E+02  0.54367083834E+02  0.39999999217E+02 0.  0.
         12    1    3    3    0    0  0.69019410742E+01 -0.79360283058E+01  0.35286860606E+02  0.36820916166E+02  0.00000000000E+00 0. -1.
         11    1    4    4    0    0 -0.74805805340E+01  0.98479371591E+01 -0.88984969595E+01  0.15235622725E+02  0.51100000000E-03 0.  1.
        -11    1    4    4    0    0  0.20829377141E+01  0.13010966231E+02 -0.16714699337E+02  0.21283915194E+02  0.51100000000E-03 0. -1.
        -12    1    4    4    0    0 -0.15042982543E+01 -0.14922875085E+02 -0.96736643098E+01  0.17847545916E+02  0.00000000000E+00 0.  1.
</event>
<event>
 8    1  0.1240174E-006  0.9118800E+02  0.7816164E-02  0.1184000E+00
        -11   -1    0    0    0    0  0.00000000000E+00  0.00000000000E+00  0.45593999997E+02  0.45594000000E+02  0.51100000000E-03 0.  1.
         11   -1    0    0    0    0 -0.00000000000E+00 -0.00000000000E+00 -0.45593999997E+02  0.45594000000E+02  0.51100000000E-03 0. -1.
         23    2    1    2    0    0  0.00000000000E+00  0.88817841970E-15  0.00000000000E+00  0.91188000000E+02  0.91188000000E+02 0.  0.
    9900012    2    3    3    0    0  0.30939148088E+02 -0.72934532914E+01 -0.18583712277E+02  0.54367086006E+02  0.40000004169E+02 0.  0.
        -12    1    3    3    0    0 -0.30939148088E+02  0.72934532914E+01  0.18583712277E+02  0.36820913994E+02  0.00000000000E+00 0.  1.
         11    1    4    4    0    0  0.10004403228E+02  0.10640470517E+02 -0.45863983470E+01  0.15308257472E+02  0.51100000000E-03 0. -1.
        -11    1    4    4    0    0  0.20169520240E+02 -0.14795314504E+02 -0.33155155363E+00  0.25016410707E+02  0.51100000000E-03 0.  1.
        -12    1    4    4    0    0  0.76522461988E+00 -0.31386093047E+01 -0.13665762377E+02  0.14042417827E+02  0.00000000000E+00 0.  1.
</event>
<event>
 8    1  0.1240174E-006  0.9118800E+02  0.7816164E-02  0.1184000E+00
        -11   -1    0    0    0    0  0.00000000000E+00  0.00000000000E+00  0.45593999997E+02  0.45594000000E+02  0.51100000000E-03 0.  1.
         11   -1    0    0    0    0 -0.00000000000E+00 -0.00000000000E+00 -0.45593999997E+02  0.45594000000E+02  0.51100000000E-03 0. -1.
         23    2    1    2    0    0  0.17763568394E-14  0.00000000000E+00  0.17763568394E-14  0.91188000000E+02  0.91188000000E+02 0.  0.
    9900012    2    3    3    0    0 -0.82639505802E+01  0.34348385994E+02 -0.10376676511E+02  0.54367083187E+02  0.39999997741E+02 0.  0.
         12    1    3    3    0    0  0.82639505802E+01 -0.34348385994E+02  0.10376676511E+02  0.36820916813E+02  0.00000000000E+00 0. -1.
         11    1    4    4    0    0 -0.15923853469E+02  0.15062083066E+02  0.18161280066E+01  0.21993948640E+02  0.51100000000E-03 0. -1.
        -11    1    4    4    0    0  0.33778069534E+01  0.22370352800E+02 -0.14218130903E+02  0.26720731855E+02  0.51100000000E-03 0.  1.
         12    1    4    4    0    0  0.42820959357E+01 -0.30840498724E+01  0.20253263860E+01  0.56524026916E+01  0.00000000000E+00 0. -1.
</event>
<event>
 8    1  0.1240174E-006  0.9118800E+02  0.7816164E-02  0.1184000E+00
        -11   -1    0    0    0    0  0.00000000000E+00  0.00000000000E+00  0.45593999997E+02  0.45594000000E+02  0.51100000000E-03 0. -1.
         11   -1    0    0    0    0 -0.00000000000E+00 -0.00000000000E+00 -0.45593999997E+02  0.45594000000E+02  0.51100000000E-03 0.  1.
         23    2    1    2    0    0 -0.35527136788E-14  0.00000000000E+00  0.00000000000E+00  0.91188000000E+02  0.91188000000E+02 0.  0.
    9900012    2    3    3    0    0 -0.23552272760E+02  0.24763984965E+02  0.13704510039E+02  0.54367107847E+02  0.40000053959E+02 0.  0.
        -12    1    3    3    0    0  0.23552272760E+02 -0.24763984965E+02 -0.13704510039E+02  0.36820892153E+02  0.00000000000E+00 0.  1.
         11    1    4    4    0    0  0.65459752452E+01  0.25020598716E+01  0.90853555477E+01  0.11474048161E+02  0.51100000000E-03 0. -1.
        -11    1    4    4    0    0 -0.54439631825E+01  0.64253661917E+01 -0.74102459358E+01  0.11217567068E+02  0.51100000000E-03 0.  1.
         12    1    4    4    0    0 -0.24654284823E+02  0.15836558902E+02  0.12029400427E+02  0.31675492618E+02  0.00000000000E+00 0. -1.
</event>
<event>
 8    1  0.1240174E-006  0.9118800E+02  0.7816164E-02  0.1184000E+00
        -11   -1    0    0    0    0  0.00000000000E+00  0.00000000000E+00  0.45593999997E+02  0.45594000000E+02  0.51100000000E-03 0.  1.
         11   -1    0    0    0    0 -0.00000000000E+00 -0.00000000000E+00 -0.45593999997E+02  0.45594000000E+02  0.51100000000E-03 0. -1.
         23    2    1    2    0    0 -0.88817841970E-15  0.00000000000E+00  0.00000000000E+00  0.91188000000E+02  0.91188000000E+02 0.  0.
    9900012    2    3    3    0    0 -0.22665217550E+01 -0.16743296180E+02 -0.32715564060E+02  0.54367038312E+02  0.39999895440E+02 0.  0.
        -12    1    3    3    0    0  0.22665217550E+01  0.16743296180E+02  0.32715564060E+02  0.36820961688E+02  0.00000000000E+00 0.  1.
         11    1    4    4    0    0  0.56145869070E+01  0.20555744508E+00  0.28288942588E+00  0.56254659085E+01  0.51100000000E-03 0. -1.
        -11    1    4    4    0    0 -0.12819656896E+02 -0.72553901205E+01 -0.79684267962E+00  0.14751923510E+02  0.51100000000E-03 0.  1.
         12    1    4    4    0    0  0.49385482341E+01 -0.96934635044E+01 -0.32201610806E+02  0.33989648893E+02  0.00000000000E+00 0. -1.
</event>
<event>
 8    1  0.1240174E-006  0.9118800E+02  0.7816164E-02  0.1184000E+00
        -11   -1    0    0    0    0  0.00000000000E+00  0.00000000000E+00  0.45593999997E+02  0.45594000000E+02  0.51100000000E-03 0.  1.
         11   -1    0    0    0    0 -0.00000000000E+00 -0.00000000000E+00 -0.45593999997E+02  0.45594000000E+02  0.51100000000E-03 0. -1.
         23    2    1    2    0    0 -0.17763568394E-14 -0.17763568394E-14  0.35527136788E-14  0.91188000000E+02  0.91188000000E+02 0.  0.
    9900012    2    3    3    0    0  0.15243586643E+02  0.12957427338E+02 -0.30911427165E+02  0.54367106660E+02  0.40000051252E+02 0.  0.
        -12    1    3    3    0    0 -0.15243586643E+02 -0.12957427338E+02  0.30911427165E+02  0.36820893340E+02  0.00000000000E+00 0.  1.
         11    1    4    4    0    0 -0.57335765676E+01 -0.48806708539E+01 -0.84880049964E+01  0.11346412531E+02  0.51100000000E-03 0. -1.
        -11    1    4    4    0    0  0.31102411564E+01  0.10159978430E+02  0.29733488424E+01  0.11033565396E+02  0.51100000000E-03 0.  1.
        -12    1    4    4    0    0  0.17866922054E+02  0.76781197625E+01 -0.25396771012E+02  0.31987128733E+02  0.00000000000E+00 0.  1.
</event>
<event>
 8    1  0.1240174E-006  0.9118800E+02  0.7816164E-02  0.1184000E+00
        -11   -1    0    0    0    0  0.00000000000E+00  0.00000000000E+00  0.45593999997E+02  0.45594000000E+02  0.51100000000E-03 0.  1.
         11   -1    0    0    0    0 -0.00000000000E+00 -0.00000000000E+00 -0.45593999997E+02  0.45594000000E+02  0.51100000000E-03 0. -1.
         23    2    1    2    0    0  0.17763568394E-14  0.00000000000E+00  0.00000000000E+00  0.91188000000E+02  0.91188000000E+02 0.  0.
    9900012    2    3    3    0    0 -0.95290693102E+01  0.21653497299E+02 -0.28215301496E+02  0.54367077338E+02  0.39999984407E+02 0.  0.
        -12    1    3    3    0    0  0.95290693102E+01 -0.21653497299E+02  0.28215301496E+02  0.36820922662E+02  0.00000000000E+00 0.  1.
         11    1    4    4    0    0  0.57927261781E+01  0.10721128577E+02 -0.26469377931E+02  0.29139770810E+02  0.51100000000E-03 0. -1.
        -11    1    4    4    0    0 -0.13877071861E+02  0.13298804440E+02 -0.60124480709E+01  0.20139038086E+02  0.51100000000E-03 0.  1.
        -12    1    4    4    0    0 -0.14447236269E+01 -0.23664357175E+01  0.42665245067E+01  0.50882684412E+01  0.00000000000E+00 0.  1.
</event>
<event>
 8    1  0.1240174E-006  0.9118800E+02  0.7816164E-02  0.1184000E+00
        -11   -1    0    0    0    0  0.00000000000E+00  0.00000000000E+00  0.45593999997E+02  0.45594000000E+02  0.51100000000E-03 0. -1.
         11   -1    0    0    0    0 -0.00000000000E+00 -0.00000000000E+00 -0.45593999997E+02  0.45594000000E+02  0.51100000000E-03 0.  1.
         23    2    1    2    0    0  0.35527136788E-14  0.35527136788E-14 -0.17763568394E-14  0.91188000000E+02  0.91188000000E+02 0.  0.
    9900012    2    3    3    0    0  0.26339010254E+02  0.21572287454E+02 -0.14023840141E+02  0.54367148034E+02  0.40000145574E+02 0.  0.
         12    1    3    3    0    0 -0.26339010254E+02 -0.21572287454E+02  0.14023840141E+02  0.36820851966E+02  0.00000000000E+00 0. -1.
         11    1    4    4    0    0  0.32966684413E+01  0.19046247187E+02  0.33864488125E+01  0.19623852591E+02  0.51100000000E-03 0. -1.
        -11    1    4    4    0    0 -0.27556927515E+01 -0.15058844646E+01 -0.48260810691E+01  0.57578285237E+01  0.51100000000E-03 0.  1.
        -12    1    4    4    0    0  0.25798034565E+02  0.40319247316E+01 -0.12584207885E+02  0.28985466919E+02  0.00000000000E+00 0.  1.
</event>
<event>
 8    1  0.1240174E-006  0.9118800E+02  0.7816164E-02  0.1184000E+00
        -11   -1    0    0    0    0  0.00000000000E+00  0.00000000000E+00  0.45593999997E+02  0.45594000000E+02  0.51100000000E-03 0.  1.
         11   -1    0    0    0    0 -0.00000000000E+00 -0.00000000000E+00 -0.45593999997E+02  0.45594000000E+02  0.51100000000E-03 0. -1.
         23    2    1    2    0    0 -0.35527136788E-14 -0.35527136788E-14  0.00000000000E+00  0.91188000000E+02  0.91188000000E+02 0.  0.
    9900012    2    3    3    0    0  0.27031102437E+02 -0.14975825780E+02 -0.20020584948E+02  0.54367086399E+02  0.40000005064E+02 0.  0.
        -12    1    3    3    0    0 -0.27031102437E+02  0.14975825780E+02  0.20020584948E+02  0.36820913601E+02  0.00000000000E+00 0.  1.
         11    1    4    4    0    0  0.95328463873E+01  0.97666415999E+01 -0.16860487763E+02  0.21691899323E+02  0.51100000000E-03 0. -1.
        -11    1    4    4    0    0  0.17923468643E+01 -0.26229694653E+01  0.35147680062E+01  0.47377284110E+01  0.51100000000E-03 0.  1.
         12    1    4    4    0    0  0.15705909185E+02 -0.22119497915E+02 -0.66748651913E+01  0.27937458665E+02  0.00000000000E+00 0. -1.
</event>
<event>
 8    1  0.1240174E-006  0.9118800E+02  0.7816164E-02  0.1184000E+00
        -11   -1    0    0    0    0  0.00000000000E+00  0.00000000000E+00  0.45593999997E+02  0.45594000000E+02  0.51100000000E-03 0. -1.
         11   -1    0    0    0    0 -0.00000000000E+00 -0.00000000000E+00 -0.45593999997E+02  0.45594000000E+02  0.51100000000E-03 0.  1.
         23    2    1    2    0    0  0.00000000000E+00  0.00000000000E+00  0.00000000000E+00  0.91188000000E+02  0.91188000000E+02 0.  0.
    9900012    2    3    3    0    0 -0.21732495062E+02 -0.18925797570E+02  0.22919249684E+02  0.54367093420E+02  0.40000021070E+02 0.  0.
        -12    1    3    3    0    0  0.21732495062E+02  0.18925797570E+02 -0.22919249684E+02  0.36820906580E+02  0.00000000000E+00 0.  1.
         11    1    4    4    0    0 -0.50427704166E+01  0.64021991744E+01  0.19972421786E+02  0.21571168721E+02  0.51100000000E-03 0. -1.
        -11    1    4    4    0    0 -0.13234252268E+02 -0.10576662294E+02  0.46014659150E+01  0.17555190321E+02  0.51100000000E-03 0.  1.
         12    1    4    4    0    0 -0.34554723769E+01 -0.14751334451E+02 -0.16546380167E+01  0.15240734378E+02  0.00000000000E+00 0. -1.
</event>
<event>
 8    1  0.1240174E-006  0.9118800E+02  0.7816164E-02  0.1184000E+00
        -11   -1    0    0    0    0  0.00000000000E+00  0.00000000000E+00  0.45593999997E+02  0.45594000000E+02  0.51100000000E-03 0.  1.
         11   -1    0    0    0    0 -0.00000000000E+00 -0.00000000000E+00 -0.45593999997E+02  0.45594000000E+02  0.51100000000E-03 0. -1.
         23    2    1    2    0    0 -0.35527136788E-14  0.55511151231E-16  0.00000000000E+00  0.91188000000E+02  0.91188000000E+02 0.  0.
    9900012    2    3    3    0    0  0.18941742109E+02 -0.34772137399E+00 -0.31573236600E+02  0.54367085105E+02  0.40000002114E+02 0.  0.
        -12    1    3    3    0    0 -0.18941742109E+02  0.34772137399E+00  0.31573236600E+02  0.36820914895E+02  0.00000000000E+00 0.  1.
         11    1    4    4    0    0  0.77316190148E+01 -0.46434198307E+01 -0.27737689043E+02  0.29167082028E+02  0.51100000000E-03 0. -1.
        -11    1    4    4    0    0 -0.60239542848E+00 -0.18217874566E+01 -0.10252533649E+02  0.10430543431E+02  0.51100000000E-03 0.  1.
        -12    1    4    4    0    0  0.11812518523E+02  0.61174859133E+01  0.64169860914E+01  0.14769459646E+02  0.00000000000E+00 0.  1.
</event>
<event>
 8    1  0.1240174E-006  0.9118800E+02  0.7816164E-02  0.1184000E+00
        -11   -1    0    0    0    0  0.00000000000E+00  0.00000000000E+00  0.45593999997E+02  0.45594000000E+02  0.51100000000E-03 0.  1.
         11   -1    0    0    0    0 -0.00000000000E+00 -0.00000000000E+00 -0.45593999997E+02  0.45594000000E+02  0.51100000000E-03 0. -1.
         23    2    1    2    0    0 -0.35527136788E-14 -0.35527136788E-14  0.00000000000E+00  0.91188000000E+02  0.91188000000E+02 0.  0.
    9900012    2    3    3    0    0 -0.20805945545E+02 -0.29995995814E+02 -0.48097180553E+01  0.54367074935E+02  0.39999978929E+02 0.  0.
        -12    1    3    3    0    0  0.20805945545E+02  0.29995995814E+02  0.48097180553E+01  0.36820925065E+02  0.00000000000E+00 0.  1.
         11    1    4    4    0    0 -0.16662349962E+02 -0.17384861953E+02  0.10802133231E+02  0.26392298383E+02  0.51100000000E-03 0. -1.
        -11    1    4    4    0    0  0.56080888099E+01 -0.11283200639E+02 -0.51516729779E+01  0.13612531414E+02  0.51100000000E-03 0.  1.
         12    1    4    4    0    0 -0.97516843932E+01 -0.13279332224E+01 -0.10460178309E+02  0.14362245138E+02  0.00000000000E+00 0. -1.
</event>
<event>
 8    1  0.1240174E-006  0.9118800E+02  0.7816164E-02  0.1184000E+00
        -11   -1    0    0    0    0  0.00000000000E+00  0.00000000000E+00  0.45593999997E+02  0.45594000000E+02  0.51100000000E-03 0. -1.
         11   -1    0    0    0    0 -0.00000000000E+00 -0.00000000000E+00 -0.45593999997E+02  0.45594000000E+02  0.51100000000E-03 0.  1.
         23    2    1    2    0    0  0.00000000000E+00  0.35527136788E-14 -0.35527136788E-14  0.91188000000E+02  0.91188000000E+02 0.  0.
    9900012    2    3    3    0    0  0.70211192947E+01 -0.20868638765E+02  0.29512566849E+02  0.54366976086E+02  0.39999753584E+02 0.  0.
        -12    1    3    3    0    0 -0.70211192947E+01  0.20868638765E+02 -0.29512566849E+02  0.36821023914E+02  0.00000000000E+00 0.  1.
         11    1    4    4    0    0 -0.10221927064E+01  0.25016666613E+01  0.76921880959E+01  0.81530958523E+01  0.51100000000E-03 0. -1.
        -11    1    4    4    0    0 -0.60046733483E+01 -0.24767665965E+02  0.19072443624E+02  0.31831611417E+02  0.51100000000E-03 0.  1.
         12    1    4    4    0    0  0.14047985349E+02  0.13973605385E+01  0.27479351286E+01  0.14382268817E+02  0.00000000000E+00 0. -1.
</event>
<event>
 8    1  0.1240174E-006  0.9118800E+02  0.7816164E-02  0.1184000E+00
        -11   -1    0    0    0    0  0.00000000000E+00  0.00000000000E+00  0.45593999997E+02  0.45594000000E+02  0.51100000000E-03 0.  1.
         11   -1    0    0    0    0 -0.00000000000E+00 -0.00000000000E+00 -0.45593999997E+02  0.45594000000E+02  0.51100000000E-03 0. -1.
         23    2    1    2    0    0  0.35527136788E-14  0.00000000000E+00 -0.17763568394E-14  0.91188000000E+02  0.91188000000E+02 0.  0.
    9900012    2    3    3    0    0 -0.26316330803E+02  0.24553504934E+02  0.77683802497E+01  0.54367196054E+02  0.40000255044E+02 0.  0.
         12    1    3    3    0    0  0.26316330803E+02 -0.24553504934E+02 -0.77683802497E+01  0.36820803946E+02  0.00000000000E+00 0. -1.
         11    1    4    4    0    0 -0.19677312120E+00  0.44708608960E+01 -0.29285225918E+01  0.53482297673E+01  0.51100000000E-03 0. -1.
        -11    1    4    4    0    0 -0.73250598454E+01  0.22501046994E+02 -0.52658112710E+01  0.24242161335E+02  0.51100000000E-03 0.  1.
         12    1    4    4    0    0 -0.18794497837E+02 -0.24184029558E+01  0.15962714113E+02  0.24776804952E+02  0.00000000000E+00 0. -1.
</event>
<event>
 8    1  0.1240174E-006  0.9118800E+02  0.7816164E-02  0.1184000E+00
        -11   -1    0    0    0    0  0.00000000000E+00  0.00000000000E+00  0.45593999997E+02  0.45594000000E+02  0.51100000000E-03 0.  1.
         11   -1    0    0    0    0 -0.00000000000E+00 -0.00000000000E+00 -0.45593999997E+02  0.45594000000E+02  0.51100000000E-03 0. -1.
         23    2    1    2    0    0 -0.35527136788E-14  0.35527136788E-14 -0.17763568394E-14  0.91188000000E+02  0.91188000000E+02 0.  0.
    9900012    2    3    3    0    0  0.24989185252E+02 -0.23413689447E+02 -0.13532167363E+02  0.54367084929E+02  0.40000001714E+02 0.  0.
        -12    1    3    3    0    0 -0.24989185252E+02  0.23413689447E+02  0.13532167363E+02  0.36820915071E+02  0.00000000000E+00 0.  1.
         11    1    4    4    0    0  0.86404879821E+01  0.94298555143E+01 -0.15711383091E+01  0.12885987872E+02  0.51100000000E-03 0. -1.
        -11    1    4    4    0    0  0.12168787301E+02 -0.81413933675E+01 -0.37064426524E+01  0.15102959569E+02  0.51100000000E-03 0.  1.
        -12    1    4    4    0    0  0.41799099689E+01 -0.24702151593E+02 -0.82545864017E+01  0.26378137488E+02  0.00000000000E+00 0.  1.
</event>
<event>
 8    1  0.1240174E-006  0.9118800E+02  0.7816164E-02  0.1184000E+00
        -11   -1    0    0    0    0  0.00000000000E+00  0.00000000000E+00  0.45593999997E+02  0.45594000000E+02  0.51100000000E-03 0.  1.
         11   -1    0    0    0    0 -0.00000000000E+00 -0.00000000000E+00 -0.45593999997E+02  0.45594000000E+02  0.51100000000E-03 0. -1.
         23    2    1    2    0    0  0.35527136788E-14  0.00000000000E+00  0.71054273576E-14  0.91188000000E+02  0.91188000000E+02 0.  0.
    9900012    2    3    3    0    0 -0.16416210732E+02  0.78827827308E+01 -0.32002339952E+02  0.54367082021E+02  0.39999995084E+02 0.  0.
        -12    1    3    3    0    0  0.16416210732E+02 -0.78827827308E+01  0.32002339952E+02  0.36820917979E+02  0.00000000000E+00 0.  1.
         11    1    4    4    0    0 -0.71654739895E+01  0.35684728428E+01 -0.19090234887E+02  0.20700605891E+02  0.51100000000E-03 0. -1.
        -11    1    4    4    0    0  0.53721510155E+01  0.33286232430E+01  0.66822019854E+01  0.91973671701E+01  0.51100000000E-03 0.  1.
        -12    1    4    4    0    0 -0.14622887758E+02  0.98568664513E+00 -0.19594307050E+02  0.24469108960E+02  0.00000000000E+00 0.  1.
</event>
<event>
 8    1  0.1240174E-006  0.9118800E+02  0.7816164E-02  0.1184000E+00
        -11   -1    0    0    0    0  0.00000000000E+00  0.00000000000E+00  0.45593999997E+02  0.45594000000E+02  0.51100000000E-03 0.  1.
         11   -1    0    0    0    0 -0.00000000000E+00 -0.00000000000E+00 -0.45593999997E+02  0.45594000000E+02  0.51100000000E-03 0. -1.
         23    2    1    2    0    0  0.00000000000E+00 -0.71054273576E-14  0.00000000000E+00  0.91188000000E+02  0.91188000000E+02 0.  0.
    9900012    2    3    3    0    0 -0.96345211107E+01  0.28595199505E+02  0.21101534712E+02  0.54367025014E+02  0.39999865123E+02 0.  0.
         12    1    3    3    0    0  0.96345211107E+01 -0.28595199505E+02 -0.21101534712E+02  0.36820974986E+02  0.00000000000E+00 0. -1.
         11    1    4    4    0    0  0.32502970892E+01  0.30348179139E+01  0.24457512755E+01  0.50750616254E+01  0.51100000000E-03 0. -1.
        -11    1    4    4    0    0 -0.87322897253E+01 -0.79298869524E+01  0.35464564676E+01  0.12317197111E+02  0.51100000000E-03 0.  1.
        -12    1    4    4    0    0 -0.41525284746E+01  0.33490268543E+02  0.15109326969E+02  0.36974766278E+02  0.00000000000E+00 0.  1.
</event>
<event>
 8    1  0.1240174E-006  0.9118800E+02  0.7816164E-02  0.1184000E+00
        -11   -1    0    0    0    0  0.00000000000E+00  0.00000000000E+00  0.45593999997E+02  0.45594000000E+02  0.51100000000E-03 0. -1.
         11   -1    0    0    0    0 -0.00000000000E+00 -0.00000000000E+00 -0.45593999997E+02  0.45594000000E+02  0.51100000000E-03 0.  1.
         23    2    1    2    0    0 -0.17763568394E-14  0.00000000000E+00  0.00000000000E+00  0.91188000000E+02  0.91188000000E+02 0.  0.
    9900012    2    3    3    0    0 -0.14660499834E+01 -0.64536344884E+01 -0.36221264038E+02  0.54367100104E+02  0.40000036306E+02 0.  0.
         12    1    3    3    0    0  0.14660499834E+01  0.64536344884E+01  0.36221264038E+02  0.36820899896E+02  0.00000000000E+00 0. -1.
         11    1    4    4    0    0 -0.14285950626E+02 -0.12234415024E+02 -0.12981364023E+02  0.22853557894E+02  0.51100000000E-03 0. -1.
        -11    1    4    4    0    0  0.71401335326E+01 -0.28288225825E+01 -0.20535805417E+01  0.79499017207E+01  0.51100000000E-03 0.  1.
        -12    1    4    4    0    0  0.56797671096E+01  0.86096031181E+01 -0.21186319473E+02  0.23563640489E+02  0.00000000000E+00 0.  1.
</event>
<event>
 8    1  0.1240174E-006  0.9118800E+02  0.7816164E-02  0.1184000E+00
        -11   -1    0    0    0    0  0.00000000000E+00  0.00000000000E+00  0.45593999997E+02  0.45594000000E+02  0.51100000000E-03 0. -1.
         11   -1    0    0    0    0 -0.00000000000E+00 -0.00000000000E+00 -0.45593999997E+02  0.45594000000E+02  0.51100000000E-03 0.  1.
         23    2    1    2    0    0 -0.26645352591E-14  0.35527136788E-14  0.35527136788E-14  0.91188000000E+02  0.91188000000E+02 0.  0.
    9900012    2    3    3    0    0  0.45607414807E+01 -0.31355915360E+02 -0.18755948257E+02  0.54367090371E+02  0.40000014118E+02 0.  0.
         12    1    3    3    0    0 -0.45607414807E+01  0.31355915360E+02  0.18755948257E+02  0.36820909629E+02  0.00000000000E+00 0. -1.
         11    1    4    4    0    0  0.14547124402E+02 -0.54170659495E+01 -0.11086594803E+02  0.19075534500E+02  0.51100000000E-03 0. -1.
        -11    1    4    4    0    0 -0.11782774507E+02 -0.63128768435E+01 -0.80044855485E+01  0.15580692484E+02  0.51100000000E-03 0.  1.
        -12    1    4    4    0    0  0.17963915858E+01 -0.19625972567E+02  0.33513209434E+00  0.19710863386E+02  0.00000000000E+00 0.  1.
</event>
<event>
 8    1  0.1240174E-006  0.9118800E+02  0.7816164E-02  0.1184000E+00
        -11   -1    0    0    0    0  0.00000000000E+00  0.00000000000E+00  0.45593999997E+02  0.45594000000E+02  0.51100000000E-03 0.  1.
         11   -1    0    0    0    0 -0.00000000000E+00 -0.00000000000E+00 -0.45593999997E+02  0.45594000000E+02  0.51100000000E-03 0. -1.
         23    2    1    2    0    0  0.00000000000E+00  0.00000000000E+00  0.00000000000E+00  0.91188000000E+02  0.91188000000E+02 0.  0.
    9900012    2    3    3    0    0  0.89745968800E+01 -0.22638033113E+02 -0.27618034683E+02  0.54367085126E+02  0.40000002162E+02 0.  0.
        -12    1    3    3    0    0 -0.89745968800E+01  0.22638033113E+02  0.27618034683E+02  0.36820914874E+02  0.00000000000E+00 0.  1.
         11    1    4    4    0    0  0.31711088116E+01 -0.94381374862E+01 -0.34088101437E+02  0.35512434866E+02  0.51100000000E-03 0. -1.
        -11    1    4    4    0    0  0.82766218849E+01 -0.11689269577E+02  0.35833004389E+01  0.14764197756E+02  0.51100000000E-03 0.  1.
         12    1    4    4    0    0 -0.24731338165E+01 -0.15106260500E+01  0.28867663147E+01  0.40904525047E+01  0.00000000000E+00 0. -1.
</event>
<event>
 8    1  0.1240174E-006  0.9118800E+02  0.7816164E-02  0.1184000E+00
        -11   -1    0    0    0    0  0.00000000000E+00  0.00000000000E+00  0.45593999997E+02  0.45594000000E+02  0.51100000000E-03 0.  1.
         11   -1    0    0    0    0 -0.00000000000E+00 -0.00000000000E+00 -0.45593999997E+02  0.45594000000E+02  0.51100000000E-03 0. -1.
         23    2    1    2    0    0 -0.35527136788E-14 -0.35527136788E-14 -0.88817841970E-15  0.91188000000E+02  0.91188000000E+02 0.  0.
    9900012    2    3    3    0    0 -0.27141201047E+02 -0.23687613695E+02  0.76178874723E+01  0.54367081402E+02  0.39999993672E+02 0.  0.
         12    1    3    3    0    0  0.27141201047E+02  0.23687613695E+02 -0.76178874723E+01  0.36820918598E+02  0.00000000000E+00 0. -1.
         11    1    4    4    0    0 -0.10964469191E+02  0.16847236447E+01 -0.62007166682E+01  0.12708531224E+02  0.51100000000E-03 0. -1.
        -11    1    4    4    0    0 -0.17864687020E+02 -0.21096782525E+02  0.58651257489E+00  0.27650773452E+02  0.51100000000E-03 0.  1.
         12    1    4    4    0    0  0.16879551643E+01 -0.42755548149E+01  0.13232091566E+02  0.14007776726E+02  0.00000000000E+00 0. -1.
</event>
<event>
 8    1  0.1240174E-006  0.9118800E+02  0.7816164E-02  0.1184000E+00
        -11   -1    0    0    0    0  0.00000000000E+00  0.00000000000E+00  0.45593999997E+02  0.45594000000E+02  0.51100000000E-03 0.  1.
         11   -1    0    0    0    0 -0.00000000000E+00 -0.00000000000E+00 -0.45593999997E+02  0.45594000000E+02  0.51100000000E-03 0. -1.
         23    2    1    2    0    0 -0.35527136788E-14  0.17763568394E-14  0.00000000000E+00  0.91188000000E+02  0.91188000000E+02 0.  0.
    9900012    2    3    3    0    0 -0.12747640076E+02 -0.10818174560E+02  0.32806156463E+02  0.54367093843E+02  0.40000022035E+02 0.  0.
         12    1    3    3    0    0  0.12747640076E+02  0.10818174560E+02 -0.32806156463E+02  0.36820906157E+02  0.00000000000E+00 0. -1.
         11    1    4    4    0    0 -0.19407770277E+01  0.50898875276E+01  0.28095017067E+02  0.28618238150E+02  0.51100000000E-03 0. -1.
        -11    1    4    4    0    0 -0.14638472298E+02 -0.15330030147E+02  0.26551120217E+01  0.21362217012E+02  0.51100000000E-03 0.  1.
         12    1    4    4    0    0  0.38316092496E+01 -0.57803193978E+00  0.20560273742E+01  0.43866386823E+01  0.00000000000E+00 0. -1.
</event>
<event>
 8    1  0.1240174E-006  0.9118800E+02  0.7816164E-02  0.1184000E+00
        -11   -1    0    0    0    0  0.00000000000E+00  0.00000000000E+00  0.45593999997E+02  0.45594000000E+02  0.51100000000E-03 0. -1.
         11   -1    0    0    0    0 -0.00000000000E+00 -0.00000000000E+00 -0.45593999997E+02  0.45594000000E+02  0.51100000000E-03 0.  1.
         23    2    1    2    0    0  0.17763568394E-14  0.35527136788E-14  0.00000000000E+00  0.91188000000E+02  0.91188000000E+02 0.  0.
    9900012    2    3    3    0    0  0.14275890433E+02  0.30399013770E+02  0.15095643780E+02  0.54367088184E+02  0.40000009133E+02 0.  0.
        -12    1    3    3    0    0 -0.14275890433E+02 -0.30399013770E+02 -0.15095643780E+02  0.36820911816E+02  0.00000000000E+00 0.  1.
         11    1    4    4    0    0  0.16498012865E+00  0.14813715994E+02  0.25135660606E+02  0.29176614512E+02  0.51100000000E-03 0. -1.
        -11    1    4    4    0    0  0.39772813024E+01  0.50109059848E+01  0.14683746052E+01  0.65638456402E+01  0.51100000000E-03 0.  1.
        -12    1    4    4    0    0  0.10133629002E+02  0.10574391791E+02 -0.11508391432E+02  0.18626628032E+02  0.00000000000E+00 0.  1.
</event>
<event>
 8    1  0.1240174E-006  0.9118800E+02  0.7816164E-02  0.1184000E+00
        -11   -1    0    0    0    0  0.00000000000E+00  0.00000000000E+00  0.45593999997E+02  0.45594000000E+02  0.51100000000E-03 0.  1.
         11   -1    0    0    0    0 -0.00000000000E+00 -0.00000000000E+00 -0.45593999997E+02  0.45594000000E+02  0.51100000000E-03 0. -1.
         23    2    1    2    0    0  0.17763568394E-14  0.00000000000E+00  0.00000000000E+00  0.91188000000E+02  0.91188000000E+02 0.  0.
    9900012    2    3    3    0    0 -0.96079252457E+01 -0.34363938013E+01 -0.35378792693E+02  0.54367082001E+02  0.39999995037E+02 0.  0.
        -12    1    3    3    0    0  0.96079252457E+01  0.34363938013E+01  0.35378792693E+02  0.36820917999E+02  0.00000000000E+00 0.  1.
         11    1    4    4    0    0  0.70613462183E+00 -0.11595225634E+02  0.22751630645E+01  0.11837408958E+02  0.51100000000E-03 0. -1.
        -11    1    4    4    0    0 -0.64200767903E+01  0.60724711454E+01 -0.37027944163E+02  0.38067846551E+02  0.51100000000E-03 0.  1.
        -12    1    4    4    0    0 -0.38939830773E+01  0.20863606874E+01 -0.62601159466E+00  0.44618264916E+01  0.00000000000E+00 0.  1.
</event>
<event>
 8    1  0.1240174E-006  0.9118800E+02  0.7816164E-02  0.1184000E+00
        -11   -1    0    0    0    0  0.00000000000E+00  0.00000000000E+00  0.45593999997E+02  0.45594000000E+02  0.51100000000E-03 0. -1.
         11   -1    0    0    0    0 -0.00000000000E+00 -0.00000000000E+00 -0.45593999997E+02  0.45594000000E+02  0.51100000000E-03 0.  1.
         23    2    1    2    0    0  0.00000000000E+00  0.00000000000E+00  0.00000000000E+00  0.91188000000E+02  0.91188000000E+02 0.  0.
    9900012    2    3    3    0    0  0.12477014066E+02  0.28995949111E+02 -0.18956227302E+02  0.54367088843E+02  0.40000010636E+02 0.  0.
         12    1    3    3    0    0 -0.12477014066E+02 -0.28995949111E+02  0.18956227302E+02  0.36820911157E+02  0.00000000000E+00 0. -1.
         11    1    4    4    0    0  0.12852345565E+01 -0.27621073032E+01  0.15432456134E+01  0.34150654318E+01  0.51100000000E-03 0. -1.
        -11    1    4    4    0    0  0.21567992105E+02  0.20545703268E+02 -0.19581848411E+02  0.35647622553E+02  0.51100000000E-03 0.  1.
         12    1    4    4    0    0 -0.10376212596E+02  0.11212353147E+02 -0.91762450453E+00  0.15304400859E+02  0.00000000000E+00 0. -1.
</event>
<event>
 8    1  0.1240174E-006  0.9118800E+02  0.7816164E-02  0.1184000E+00
        -11   -1    0    0    0    0  0.00000000000E+00  0.00000000000E+00  0.45593999997E+02  0.45594000000E+02  0.51100000000E-03 0.  1.
         11   -1    0    0    0    0 -0.00000000000E+00 -0.00000000000E+00 -0.45593999997E+02  0.45594000000E+02  0.51100000000E-03 0. -1.
         23    2    1    2    0    0 -0.44408920985E-15  0.71054273576E-14  0.00000000000E+00  0.91188000000E+02  0.91188000000E+02 0.  0.
    9900012    2    3    3    0    0  0.41051546387E+00 -0.35669362136E+02 -0.91273277030E+01  0.54367081636E+02  0.39999994206E+02 0.  0.
         12    1    3    3    0    0 -0.41051546387E+00  0.35669362136E+02  0.91273277030E+01  0.36820918364E+02  0.00000000000E+00 0. -1.
         11    1    4    4    0    0  0.95919569150E+01 -0.21157061092E+01 -0.96333471561E+00  0.98696435515E+01  0.51100000000E-03 0. -1.
        -11    1    4    4    0    0  0.57466305121E+01 -0.24390832072E+00 -0.54026749909E+01  0.78912705459E+01  0.51100000000E-03 0.  1.
        -12    1    4    4    0    0 -0.14928071963E+02 -0.33309747706E+02 -0.27613179965E+01  0.36606167539E+02  0.00000000000E+00 0.  1.
</event>
<event>
 8    1  0.1240174E-006  0.9118800E+02  0.7816164E-02  0.1184000E+00
        -11   -1    0    0    0    0  0.00000000000E+00  0.00000000000E+00  0.45593999997E+02  0.45594000000E+02  0.51100000000E-03 0.  1.
         11   -1    0    0    0    0 -0.00000000000E+00 -0.00000000000E+00 -0.45593999997E+02  0.45594000000E+02  0.51100000000E-03 0. -1.
         23    2    1    2    0    0  0.00000000000E+00  0.00000000000E+00  0.00000000000E+00  0.91188000000E+02  0.91188000000E+02 0.  0.
    9900012    2    3    3    0    0 -0.98564770100E+01  0.19441066572E+02 -0.29676004553E+02  0.54367211650E+02  0.40000290597E+02 0.  0.
         12    1    3    3    0    0  0.98564770100E+01 -0.19441066572E+02  0.29676004553E+02  0.36820788350E+02  0.00000000000E+00 0. -1.
         11    1    4    4    0    0 -0.65349323571E+01  0.13014488149E+01 -0.21759968056E+02  0.22757313550E+02  0.51100000000E-03 0. -1.
        -11    1    4    4    0    0 -0.52430112684E+00  0.23554174778E+02 -0.93525612426E+01  0.25348460371E+02  0.51100000000E-03 0.  1.
        -12    1    4    4    0    0 -0.27972435261E+01 -0.54145570213E+01  0.14365247458E+01  0.62614377284E+01  0.00000000000E+00 0.  1.
</event>
<event>
 8    1  0.1240174E-006  0.9118800E+02  0.7816164E-02  0.1184000E+00
        -11   -1    0    0    0    0  0.00000000000E+00  0.00000000000E+00  0.45593999997E+02  0.45594000000E+02  0.51100000000E-03 0.  1.
         11   -1    0    0    0    0 -0.00000000000E+00 -0.00000000000E+00 -0.45593999997E+02  0.45594000000E+02  0.51100000000E-03 0. -1.
         23    2    1    2    0    0  0.44408920985E-15  0.00000000000E+00  0.35527136788E-14  0.91188000000E+02  0.91188000000E+02 0.  0.
    9900012    2    3    3    0    0  0.31401360117E+01  0.31473553267E+02  0.18850299013E+02  0.54367098568E+02  0.40000032805E+02 0.  0.
         12    1    3    3    0    0 -0.31401360117E+01 -0.31473553267E+02 -0.18850299013E+02  0.36820901432E+02  0.00000000000E+00 0. -1.
         11    1    4    4    0    0  0.19691291646E+01 -0.33383383505E+01  0.46797279558E+00  0.39039686740E+01  0.51100000000E-03 0. -1.
        -11    1    4    4    0    0  0.15069751545E+02  0.22879241974E+02  0.16659431848E+02  0.32063901738E+02  0.51100000000E-03 0.  1.
        -12    1    4    4    0    0 -0.13898744698E+02  0.11932649643E+02  0.17228943698E+01  0.18399228155E+02  0.00000000000E+00 0.  1.
</event>
<event>
 8    1  0.1240174E-006  0.9118800E+02  0.7816164E-02  0.1184000E+00
        -11   -1    0    0    0    0  0.00000000000E+00  0.00000000000E+00  0.45593999997E+02  0.45594000000E+02  0.51100000000E-03 0.  1.
         11   -1    0    0    0    0 -0.00000000000E+00 -0.00000000000E+00 -0.45593999997E+02  0.45594000000E+02  0.51100000000E-03 0. -1.
         23    2    1    2    0    0  0.35527136788E-14  0.00000000000E+00  0.00000000000E+00  0.91188000000E+02  0.91188000000E+02 0.  0.
    9900012    2    3    3    0    0 -0.24780776080E+02 -0.16710543859E+02 -0.21504651661E+02  0.54367093136E+02  0.40000020423E+02 0.  0.
        -12    1    3    3    0    0  0.24780776080E+02  0.16710543859E+02  0.21504651661E+02  0.36820906864E+02  0.00000000000E+00 0.  1.
         11    1    4    4    0    0 -0.24779297061E+02 -0.70234352259E+01 -0.12865450030E+02  0.28789963702E+02  0.51100000000E-03 0. -1.
        -11    1    4    4    0    0 -0.84475722307E+01 -0.28384369733E-01  0.22570626713E+01  0.87439473025E+01  0.51100000000E-03 0.  1.
        -12    1    4    4    0    0  0.84460932118E+01 -0.96587242636E+01 -0.10896264302E+02  0.16833182132E+02  0.00000000000E+00 0.  1.
</event>
<event>
 8    1  0.1240174E-006  0.9118800E+02  0.7816164E-02  0.1184000E+00
        -11   -1    0    0    0    0  0.00000000000E+00  0.00000000000E+00  0.45593999997E+02  0.45594000000E+02  0.51100000000E-03 0.  1.
         11   -1    0    0    0    0 -0.00000000000E+00 -0.00000000000E+00 -0.45593999997E+02  0.45594000000E+02  0.51100000000E-03 0. -1.
         23    2    1    2    0    0  0.00000000000E+00  0.00000000000E+00  0.22204460493E-15  0.91188000000E+02  0.91188000000E+02 0.  0.
    9900012    2    3    3    0    0  0.30803139849E+02 -0.20137064621E+02 -0.12019142774E+01  0.54367090261E+02  0.40000013868E+02 0.  0.
         12    1    3    3    0    0 -0.30803139849E+02  0.20137064621E+02  0.12019142774E+01  0.36820909739E+02  0.00000000000E+00 0. -1.
         11    1    4    4    0    0  0.29582700768E+01 -0.11141325337E+02 -0.11364525837E+02  0.16187431540E+02  0.51100000000E-03 0. -1.
        -11    1    4    4    0    0  0.26844067923E+02 -0.14893410415E+02  0.96309166628E+01  0.32174092255E+02  0.51100000000E-03 0.  1.
         12    1    4    4    0    0  0.10008018492E+01  0.58976711311E+01  0.53169489635E+00  0.60055664657E+01  0.00000000000E+00 0. -1.
</event>
<event>
 8    1  0.1240174E-006  0.9118800E+02  0.7816164E-02  0.1184000E+00
        -11   -1    0    0    0    0  0.00000000000E+00  0.00000000000E+00  0.45593999997E+02  0.45594000000E+02  0.51100000000E-03 0.  1.
         11   -1    0    0    0    0 -0.00000000000E+00 -0.00000000000E+00 -0.45593999997E+02  0.45594000000E+02  0.51100000000E-03 0. -1.
         23    2    1    2    0    0  0.35527136788E-14 -0.35527136788E-14  0.44408920985E-15  0.91188000000E+02  0.91188000000E+02 0.  0.
    9900012    2    3    3    0    0 -0.20667864713E+02 -0.30399716189E+02 -0.21156318752E+01  0.54367091885E+02  0.40000017571E+02 0.  0.
         12    1    3    3    0    0  0.20667864713E+02  0.30399716189E+02  0.21156318752E+01  0.36820908115E+02  0.00000000000E+00 0. -1.
         11    1    4    4    0    0 -0.15076629513E+02 -0.13807649467E+02 -0.11760990082E+02  0.23585521601E+02  0.51100000000E-03 0. -1.
        -11    1    4    4    0    0 -0.31259183945E+01 -0.22462476645E+02  0.60608191516E+01  0.23474832308E+02  0.51100000000E-03 0.  1.
        -12    1    4    4    0    0 -0.24653168060E+01  0.58704099227E+01  0.35845390548E+01  0.73067379760E+01  0.00000000000E+00 0.  1.
</event>
<event>
 8    1  0.1240174E-006  0.9118800E+02  0.7816164E-02  0.1184000E+00
        -11   -1    0    0    0    0  0.00000000000E+00  0.00000000000E+00  0.45593999997E+02  0.45594000000E+02  0.51100000000E-03 0.  1.
         11   -1    0    0    0    0 -0.00000000000E+00 -0.00000000000E+00 -0.45593999997E+02  0.45594000000E+02  0.51100000000E-03 0. -1.
         23    2    1    2    0    0  0.88817841970E-15  0.71054273576E-14 -0.35527136788E-14  0.91188000000E+02  0.91188000000E+02 0.  0.
    9900012    2    3    3    0    0  0.63778221838E+01  0.27719496637E+02 -0.23382312788E+02  0.54367086637E+02  0.40000005606E+02 0.  0.
        -12    1    3    3    0    0 -0.63778221838E+01 -0.27719496637E+02  0.23382312788E+02  0.36820913363E+02  0.00000000000E+00 0.  1.
         11    1    4    4    0    0 -0.23014538603E+01  0.61258224500E+01 -0.11384141470E+02  0.13130920296E+02  0.51100000000E-03 0. -1.
        -11    1    4    4    0    0  0.23662941208E+01 -0.38062585583E+01 -0.14277478600E+02  0.14964402678E+02  0.51100000000E-03 0.  1.
        -12    1    4    4    0    0  0.63129819233E+01  0.25399932745E+02  0.22793072826E+01  0.26271763662E+02  0.00000000000E+00 0.  1.
</event>
<event>
 8    1  0.1240174E-006  0.9118800E+02  0.7816164E-02  0.1184000E+00
        -11   -1    0    0    0    0  0.00000000000E+00  0.00000000000E+00  0.45593999997E+02  0.45594000000E+02  0.51100000000E-03 0.  1.
         11   -1    0    0    0    0 -0.00000000000E+00 -0.00000000000E+00 -0.45593999997E+02  0.45594000000E+02  0.51100000000E-03 0. -1.
         23    2    1    2    0    0  0.00000000000E+00  0.00000000000E+00  0.00000000000E+00  0.91188000000E+02  0.91188000000E+02 0.  0.
    9900012    2    3    3    0    0 -0.21972715240E+02 -0.14671215911E+02 -0.25646289434E+02  0.54367123407E+02  0.40000089431E+02 0.  0.
        -12    1    3    3    0    0  0.21972715240E+02  0.14671215911E+02  0.25646289434E+02  0.36820876593E+02  0.00000000000E+00 0.  1.
         11    1    4    4    0    0 -0.22719051577E+02 -0.28405765841E+01 -0.14265618019E+02  0.26976508996E+02  0.51100000000E-03 0. -1.
        -11    1    4    4    0    0 -0.35952373209E+01 -0.13883617237E+02 -0.15461236078E+02  0.21088631542E+02  0.51100000000E-03 0.  1.
         12    1    4    4    0    0  0.43415736575E+01  0.20529779105E+01  0.40805646627E+01  0.63019828698E+01  0.00000000000E+00 0. -1.
</event>
<event>
 8    1  0.1240174E-006  0.9118800E+02  0.7816164E-02  0.1184000E+00
        -11   -1    0    0    0    0  0.00000000000E+00  0.00000000000E+00  0.45593999997E+02  0.45594000000E+02  0.51100000000E-03 0.  1.
         11   -1    0    0    0    0 -0.00000000000E+00 -0.00000000000E+00 -0.45593999997E+02  0.45594000000E+02  0.51100000000E-03 0. -1.
         23    2    1    2    0    0  0.00000000000E+00  0.00000000000E+00  0.00000000000E+00  0.91188000000E+02  0.91188000000E+02 0.  0.
    9900012    2    3    3    0    0 -0.13961816087E+02 -0.23952673720E+02 -0.24230490356E+02  0.54367088147E+02  0.40000009049E+02 0.  0.
        -12    1    3    3    0    0  0.13961816087E+02  0.23952673720E+02  0.24230490356E+02  0.36820911853E+02  0.00000000000E+00 0.  1.
         11    1    4    4    0    0 -0.11272748324E+02 -0.21104456338E+02 -0.28043857539E+02  0.36863679659E+02  0.51100000000E-03 0. -1.
        -11    1    4    4    0    0 -0.53931049170E+01  0.58392771807E+01  0.12150967066E+01  0.80410943848E+01  0.51100000000E-03 0.  1.
         12    1    4    4    0    0  0.27040371535E+01 -0.86874945630E+01  0.25982704770E+01  0.94623141028E+01  0.00000000000E+00 0. -1.
</event>
<event>
 8    1  0.1240174E-006  0.9118800E+02  0.7816164E-02  0.1184000E+00
        -11   -1    0    0    0    0  0.00000000000E+00  0.00000000000E+00  0.45593999997E+02  0.45594000000E+02  0.51100000000E-03 0.  1.
         11   -1    0    0    0    0 -0.00000000000E+00 -0.00000000000E+00 -0.45593999997E+02  0.45594000000E+02  0.51100000000E-03 0. -1.
         23    2    1    2    0    0  0.88817841970E-15  0.00000000000E+00  0.00000000000E+00  0.91188000000E+02  0.91188000000E+02 0.  0.
    9900012    2    3    3    0    0  0.56230958581E+01  0.17514307116E+02  0.31896869761E+02  0.54367075768E+02  0.39999980827E+02 0.  0.
         12    1    3    3    0    0 -0.56230958581E+01 -0.17514307116E+02 -0.31896869761E+02  0.36820924232E+02  0.00000000000E+00 0. -1.
         11    1    4    4    0    0  0.11580476078E+02 -0.57959429964E+01  0.11413757475E+02  0.17261930407E+02  0.51100000000E-03 0. -1.
        -11    1    4    4    0    0 -0.10993070770E+01  0.25061832882E+02  0.19668341948E+02  0.31877070422E+02  0.51100000000E-03 0.  1.
         12    1    4    4    0    0 -0.48580731428E+01 -0.17515827698E+01  0.81477033857E+00  0.52280749388E+01  0.00000000000E+00 0. -1.
</event>
<event>
 8    1  0.1240174E-006  0.9118800E+02  0.7816164E-02  0.1184000E+00
        -11   -1    0    0    0    0  0.00000000000E+00  0.00000000000E+00  0.45593999997E+02  0.45594000000E+02  0.51100000000E-03 0. -1.
         11   -1    0    0    0    0 -0.00000000000E+00 -0.00000000000E+00 -0.45593999997E+02  0.45594000000E+02  0.51100000000E-03 0.  1.
         23    2    1    2    0    0 -0.88817841970E-15  0.00000000000E+00  0.71054273576E-14  0.91188000000E+02  0.91188000000E+02 0.  0.
    9900012    2    3    3    0    0  0.60941636547E+01  0.16372702636E+02 -0.32412573433E+02  0.54367093726E+02  0.40000021768E+02 0.  0.
         12    1    3    3    0    0 -0.60941636547E+01 -0.16372702636E+02  0.32412573433E+02  0.36820906274E+02  0.00000000000E+00 0. -1.
         11    1    4    4    0    0 -0.49311952491E+01 -0.44656182163E+01 -0.22160399908E+02  0.23137453554E+02  0.51100000000E-03 0. -1.
        -11    1    4    4    0    0  0.32763307101E+01  0.17023180114E+02 -0.13530784685E+02  0.21991024045E+02  0.51100000000E-03 0.  1.
        -12    1    4    4    0    0  0.77490281937E+01  0.38151407382E+01  0.32786111599E+01  0.92386161267E+01  0.00000000000E+00 0.  1.
</event>
<event>
 8    1  0.1240174E-006  0.9118800E+02  0.7816164E-02  0.1184000E+00
        -11   -1    0    0    0    0  0.00000000000E+00  0.00000000000E+00  0.45593999997E+02  0.45594000000E+02  0.51100000000E-03 0. -1.
         11   -1    0    0    0    0 -0.00000000000E+00 -0.00000000000E+00 -0.45593999997E+02  0.45594000000E+02  0.51100000000E-03 0.  1.
         23    2    1    2    0    0  0.35527136788E-14  0.17763568394E-14  0.00000000000E+00  0.91188000000E+02  0.91188000000E+02 0.  0.
    9900012    2    3    3    0    0 -0.16924686746E+02 -0.12383300602E+02 -0.30265255651E+02  0.54367124740E+02  0.40000092470E+02 0.  0.
         12    1    3    3    0    0  0.16924686746E+02  0.12383300602E+02  0.30265255651E+02  0.36820875260E+02  0.00000000000E+00 0. -1.
         11    1    4    4    0    0  0.51542703704E+01 -0.74234885345E+00 -0.19741351802E+01  0.55690928204E+01  0.51100000000E-03 0. -1.
        -11    1    4    4    0    0 -0.13786348636E+02 -0.17458125918E+02 -0.31145627506E+02  0.38274007920E+02  0.51100000000E-03 0.  1.
         12    1    4    4    0    0 -0.82926084810E+01  0.58171741693E+01  0.28545070349E+01  0.10524024000E+02  0.00000000000E+00 0. -1.
</event>
<event>
 8    1  0.1240174E-006  0.9118800E+02  0.7816164E-02  0.1184000E+00
        -11   -1    0    0    0    0  0.00000000000E+00  0.00000000000E+00  0.45593999997E+02  0.45594000000E+02  0.51100000000E-03 0.  1.
         11   -1    0    0    0    0 -0.00000000000E+00 -0.00000000000E+00 -0.45593999997E+02  0.45594000000E+02  0.51100000000E-03 0. -1.
         23    2    1    2    0    0 -0.35527136788E-14  0.00000000000E+00  0.00000000000E+00  0.91188000000E+02  0.91188000000E+02 0.  0.
    9900012    2    3    3    0    0 -0.17863037055E+02  0.26187551965E+02  0.18732458585E+02  0.54367068787E+02  0.39999964914E+02 0.  0.
         12    1    3    3    0    0  0.17863037055E+02 -0.26187551965E+02 -0.18732458585E+02  0.36820931213E+02  0.00000000000E+00 0. -1.
         11    1    4    4    0    0  0.68238384773E+01  0.57948769256E+01  0.11545171010E+02  0.14609460773E+02  0.51100000000E-03 0.  1.
        -11    1    4    4    0    0 -0.24906768010E+02  0.17364651302E+02 -0.16561135746E+01  0.30407579975E+02  0.51100000000E-03 0. -1.
         12    1    4    4    0    0  0.21989247788E+00  0.30280237380E+01  0.88434011488E+01  0.93500280395E+01  0.00000000000E+00 0. -1.
</event>
<event>
 8    1  0.1240174E-006  0.9118800E+02  0.7816164E-02  0.1184000E+00
        -11   -1    0    0    0    0  0.00000000000E+00  0.00000000000E+00  0.45593999997E+02  0.45594000000E+02  0.51100000000E-03 0.  1.
         11   -1    0    0    0    0 -0.00000000000E+00 -0.00000000000E+00 -0.45593999997E+02  0.45594000000E+02  0.51100000000E-03 0. -1.
         23    2    1    2    0    0  0.00000000000E+00 -0.26645352591E-14  0.00000000000E+00  0.91188000000E+02  0.91188000000E+02 0.  0.
    9900012    2    3    3    0    0 -0.53263744406E+01  0.62886631720E+01 -0.35886796294E+02  0.54367086141E+02  0.40000004474E+02 0.  0.
        -12    1    3    3    0    0  0.53263744406E+01 -0.62886631720E+01  0.35886796294E+02  0.36820913859E+02  0.00000000000E+00 0.  1.
         11    1    4    4    0    0 -0.10599490517E+02 -0.38199186167E+01 -0.14019694761E+02  0.17985906119E+02  0.51100000000E-03 0. -1.
        -11    1    4    4    0    0 -0.81014135212E+01  0.74863041778E+01 -0.50588066679E+00  0.11042353318E+02  0.51100000000E-03 0.  1.
         12    1    4    4    0    0  0.13374529598E+02  0.26222776110E+01 -0.21361220867E+02  0.25338826704E+02  0.00000000000E+00 0. -1.
</event>
<event>
 8    1  0.1240174E-006  0.9118800E+02  0.7816164E-02  0.1184000E+00
        -11   -1    0    0    0    0  0.00000000000E+00  0.00000000000E+00  0.45593999997E+02  0.45594000000E+02  0.51100000000E-03 0.  1.
         11   -1    0    0    0    0 -0.00000000000E+00 -0.00000000000E+00 -0.45593999997E+02  0.45594000000E+02  0.51100000000E-03 0. -1.
         23    2    1    2    0    0  0.17763568394E-14  0.00000000000E+00  0.00000000000E+00  0.91188000000E+02  0.91188000000E+02 0.  0.
    9900012    2    3    3    0    0 -0.14392340041E+02 -0.24322290071E+02 -0.23602283993E+02  0.54367067694E+02  0.39999962422E+02 0.  0.
        -12    1    3    3    0    0  0.14392340041E+02  0.24322290071E+02  0.23602283993E+02  0.36820932306E+02  0.00000000000E+00 0.  1.
         11    1    4    4    0    0 -0.34704089666E+01 -0.15593244279E+02 -0.17629160548E+02  0.23790340633E+02  0.51100000000E-03 0. -1.
        -11    1    4    4    0    0  0.46494089377E+01  0.25578295462E+01  0.59313480583E+01  0.79586673198E+01  0.51100000000E-03 0.  1.
        -12    1    4    4    0    0 -0.15571340012E+02 -0.11286875339E+02 -0.11904471504E+02  0.22618059742E+02  0.00000000000E+00 0.  1.
</event>
<event>
 8    1  0.1240174E-006  0.9118800E+02  0.7816164E-02  0.1184000E+00
        -11   -1    0    0    0    0  0.00000000000E+00  0.00000000000E+00  0.45593999997E+02  0.45594000000E+02  0.51100000000E-03 0.  1.
         11   -1    0    0    0    0 -0.00000000000E+00 -0.00000000000E+00 -0.45593999997E+02  0.45594000000E+02  0.51100000000E-03 0. -1.
         23    2    1    2    0    0  0.00000000000E+00  0.35527136788E-14  0.35527136788E-14  0.91188000000E+02  0.91188000000E+02 0.  0.
    9900012    2    3    3    0    0 -0.12994146012E+02  0.22215708700E+02 -0.26332502619E+02  0.54366997328E+02  0.39999802009E+02 0.  0.
        -12    1    3    3    0    0  0.12994146012E+02 -0.22215708700E+02  0.26332502619E+02  0.36821002672E+02  0.00000000000E+00 0.  1.
         11    1    4    4    0    0 -0.15984129167E+02  0.21390312782E+02 -0.17749363862E+02  0.32063652068E+02  0.51100000000E-03 0. -1.
        -11    1    4    4    0    0 -0.70624459940E+01 -0.23167984185E+01  0.16553736919E+01  0.76148513217E+01  0.51100000000E-03 0.  1.
         12    1    4    4    0    0  0.10052429149E+02  0.31421943360E+01 -0.10238512448E+02  0.14688493939E+02  0.00000000000E+00 0. -1.
</event>
<event>
 8    1  0.1240174E-006  0.9118800E+02  0.7816164E-02  0.1184000E+00
        -11   -1    0    0    0    0  0.00000000000E+00  0.00000000000E+00  0.45593999997E+02  0.45594000000E+02  0.51100000000E-03 0.  1.
         11   -1    0    0    0    0 -0.00000000000E+00 -0.00000000000E+00 -0.45593999997E+02  0.45594000000E+02  0.51100000000E-03 0. -1.
         23    2    1    2    0    0 -0.44408920985E-15  0.17763568394E-14  0.71054273576E-14  0.91188000000E+02  0.91188000000E+02 0.  0.
    9900012    2    3    3    0    0 -0.31385514883E+01  0.11581899115E+02 -0.34810756719E+02  0.54367086433E+02  0.40000005141E+02 0.  0.
        -12    1    3    3    0    0  0.31385514883E+01 -0.11581899115E+02  0.34810756719E+02  0.36820913567E+02  0.00000000000E+00 0.  1.
         11    1    4    4    0    0 -0.65170309783E+01  0.23870599365E+00 -0.68942020851E+01  0.94899260258E+01  0.51100000000E-03 0. -1.
        -11    1    4    4    0    0 -0.32691332619E+01 -0.36594882834E+01  0.56686578550E+01  0.74975175171E+01  0.51100000000E-03 0.  1.
         12    1    4    4    0    0  0.66476127519E+01  0.15002681404E+02 -0.33585212489E+02  0.37379642890E+02  0.00000000000E+00 0. -1.
</event>
<event>
 8    1  0.1240174E-006  0.9118800E+02  0.7816164E-02  0.1184000E+00
        -11   -1    0    0    0    0  0.00000000000E+00  0.00000000000E+00  0.45593999997E+02  0.45594000000E+02  0.51100000000E-03 0. -1.
         11   -1    0    0    0    0 -0.00000000000E+00 -0.00000000000E+00 -0.45593999997E+02  0.45594000000E+02  0.51100000000E-03 0.  1.
         23    2    1    2    0    0 -0.17763568394E-14 -0.71054273576E-14  0.00000000000E+00  0.91188000000E+02  0.91188000000E+02 0.  0.
    9900012    2    3    3    0    0 -0.90457557912E+01 -0.34202956499E+02  0.10203325031E+02  0.54367139434E+02  0.40000125969E+02 0.  0.
        -12    1    3    3    0    0  0.90457557912E+01  0.34202956499E+02 -0.10203325031E+02  0.36820860566E+02  0.00000000000E+00 0.  1.
         11    1    4    4    0    0  0.41694049552E+01 -0.27074869940E+02  0.58693955587E+01  0.28015751363E+02  0.51100000000E-03 0. -1.
        -11    1    4    4    0    0  0.57061886190E+01 -0.14704752142E+01 -0.79804771537E+00  0.59464078508E+01  0.51100000000E-03 0.  1.
         12    1    4    4    0    0 -0.18921349365E+02 -0.56576113441E+01  0.51319771882E+01  0.20404980220E+02  0.00000000000E+00 0. -1.
</event>
<event>
 8    1  0.1240174E-006  0.9118800E+02  0.7816164E-02  0.1184000E+00
        -11   -1    0    0    0    0  0.00000000000E+00  0.00000000000E+00  0.45593999997E+02  0.45594000000E+02  0.51100000000E-03 0. -1.
         11   -1    0    0    0    0 -0.00000000000E+00 -0.00000000000E+00 -0.45593999997E+02  0.45594000000E+02  0.51100000000E-03 0.  1.
         23    2    1    2    0    0  0.35527136788E-14  0.00000000000E+00  0.00000000000E+00  0.91188000000E+02  0.91188000000E+02 0.  0.
    9900012    2    3    3    0    0 -0.13860852247E+02  0.24831753100E+02 -0.23388890659E+02  0.54367090271E+02  0.40000013890E+02 0.  0.
         12    1    3    3    0    0  0.13860852247E+02 -0.24831753100E+02  0.23388890659E+02  0.36820909729E+02  0.00000000000E+00 0. -1.
         11    1    4    4    0    0  0.24954501876E+00 -0.44430723766E+01 -0.16431602312E+01  0.47437475340E+01  0.51100000000E-03 0. -1.
        -11    1    4    4    0    0 -0.22930984847E+02  0.20125022339E+02 -0.20704364703E+02  0.36871632839E+02  0.51100000000E-03 0.  1.
        -12    1    4    4    0    0  0.88205875815E+01  0.91498031376E+01 -0.10413657249E+01  0.12751709898E+02  0.00000000000E+00 0.  1.
</event>
<event>
 8    1  0.1240174E-006  0.9118800E+02  0.7816164E-02  0.1184000E+00
        -11   -1    0    0    0    0  0.00000000000E+00  0.00000000000E+00  0.45593999997E+02  0.45594000000E+02  0.51100000000E-03 0. -1.
         11   -1    0    0    0    0 -0.00000000000E+00 -0.00000000000E+00 -0.45593999997E+02  0.45594000000E+02  0.51100000000E-03 0.  1.
         23    2    1    2    0    0  0.00000000000E+00 -0.17763568394E-14 -0.71054273576E-14  0.91188000000E+02  0.91188000000E+02 0.  0.
    9900012    2    3    3    0    0 -0.48404843450E+01  0.12920513872E+02  0.34138049185E+02  0.54367131330E+02  0.40000107494E+02 0.  0.
        -12    1    3    3    0    0  0.48404843450E+01 -0.12920513872E+02 -0.34138049185E+02  0.36820868670E+02  0.00000000000E+00 0.  1.
         11    1    4    4    0    0 -0.43801604874E+01 -0.23614045855E+01 -0.38759975825E+01  0.63075664905E+01  0.51100000000E-03 0. -1.
        -11    1    4    4    0    0 -0.36880317788E+00 -0.66561406336E+01  0.46456497587E+01  0.81254098887E+01  0.51100000000E-03 0.  1.
         12    1    4    4    0    0 -0.91520679777E-01  0.21938059091E+02  0.33368397009E+02  0.39934154951E+02  0.00000000000E+00 0. -1.
</event>
<event>
 8    1  0.1240174E-006  0.9118800E+02  0.7816164E-02  0.1184000E+00
        -11   -1    0    0    0    0  0.00000000000E+00  0.00000000000E+00  0.45593999997E+02  0.45594000000E+02  0.51100000000E-03 0. -1.
         11   -1    0    0    0    0 -0.00000000000E+00 -0.00000000000E+00 -0.45593999997E+02  0.45594000000E+02  0.51100000000E-03 0.  1.
         23    2    1    2    0    0  0.00000000000E+00  0.00000000000E+00  0.17763568394E-14  0.91188000000E+02  0.91188000000E+02 0.  0.
    9900012    2    3    3    0    0 -0.27671861190E+02 -0.19532766299E+02 -0.14440179630E+02  0.54367086801E+02  0.40000005981E+02 0.  0.
         12    1    3    3    0    0  0.27671861190E+02  0.19532766299E+02  0.14440179630E+02  0.36820913199E+02  0.00000000000E+00 0. -1.
         11    1    4    4    0    0 -0.10424387965E+02 -0.21129636328E+02  0.12325371246E+01  0.23593400429E+02  0.51100000000E-03 0. -1.
        -11    1    4    4    0    0 -0.20404806849E+02 -0.20858623293E+01 -0.87009296556E+01  0.22280330817E+02  0.51100000000E-03 0.  1.
         12    1    4    4    0    0  0.31573336233E+01  0.36827323580E+01 -0.69717870989E+01  0.84933555549E+01  0.00000000000E+00 0. -1.
</event>
<event>
 8    1  0.1240174E-006  0.9118800E+02  0.7816164E-02  0.1184000E+00
        -11   -1    0    0    0    0  0.00000000000E+00  0.00000000000E+00  0.45593999997E+02  0.45594000000E+02  0.51100000000E-03 0.  1.
         11   -1    0    0    0    0 -0.00000000000E+00 -0.00000000000E+00 -0.45593999997E+02  0.45594000000E+02  0.51100000000E-03 0. -1.
         23    2    1    2    0    0 -0.17763568394E-14 -0.35527136788E-14  0.71054273576E-14  0.91188000000E+02  0.91188000000E+02 0.  0.
    9900012    2    3    3    0    0 -0.90789654798E+01  0.19149714929E+02  0.30110511404E+02  0.54367053610E+02  0.39999930315E+02 0.  0.
         12    1    3    3    0    0  0.90789654798E+01 -0.19149714929E+02 -0.30110511404E+02  0.36820946390E+02  0.00000000000E+00 0. -1.
         11    1    4    4    0    0  0.78966422723E+01  0.38905425850E+01  0.23938421134E+02  0.25505710879E+02  0.51100000000E-03 0. -1.
        -11    1    4    4    0    0 -0.97982794110E-01  0.19541494944E+01  0.70854099282E+01  0.73506009948E+01  0.51100000000E-03 0.  1.
        -12    1    4    4    0    0 -0.16877624958E+02  0.13305022849E+02 -0.91331965860E+00  0.21510741736E+02  0.00000000000E+00 0.  1.
</event>
<event>
 8    1  0.1240174E-006  0.9118800E+02  0.7816164E-02  0.1184000E+00
        -11   -1    0    0    0    0  0.00000000000E+00  0.00000000000E+00  0.45593999997E+02  0.45594000000E+02  0.51100000000E-03 0.  1.
         11   -1    0    0    0    0 -0.00000000000E+00 -0.00000000000E+00 -0.45593999997E+02  0.45594000000E+02  0.51100000000E-03 0. -1.
         23    2    1    2    0    0 -0.17763568394E-14  0.00000000000E+00  0.00000000000E+00  0.91188000000E+02  0.91188000000E+02 0.  0.
    9900012    2    3    3    0    0  0.95818544883E+01 -0.26991240009E+02  0.23139600276E+02  0.54367081032E+02  0.39999992829E+02 0.  0.
        -12    1    3    3    0    0 -0.95818544883E+01  0.26991240009E+02 -0.23139600276E+02  0.36820918968E+02  0.00000000000E+00 0.  1.
         11    1    4    4    0    0  0.10305891023E+01 -0.13518679278E+02  0.71222095196E+00  0.13576599805E+02  0.51100000000E-03 0. -1.
        -11    1    4    4    0    0  0.17409237378E+02 -0.91578671224E+01  0.42655843725E+01  0.20128171467E+02  0.51100000000E-03 0.  1.
         12    1    4    4    0    0 -0.88579719919E+01 -0.43146936086E+01  0.18161794952E+02  0.20662309760E+02  0.00000000000E+00 0. -1.
</event>
<event>
 8    1  0.1240174E-006  0.9118800E+02  0.7816164E-02  0.1184000E+00
        -11   -1    0    0    0    0  0.00000000000E+00  0.00000000000E+00  0.45593999997E+02  0.45594000000E+02  0.51100000000E-03 0. -1.
         11   -1    0    0    0    0 -0.00000000000E+00 -0.00000000000E+00 -0.45593999997E+02  0.45594000000E+02  0.51100000000E-03 0.  1.
         23    2    1    2    0    0  0.00000000000E+00  0.66613381478E-15  0.17763568394E-14  0.91188000000E+02  0.91188000000E+02 0.  0.
    9900012    2    3    3    0    0  0.33939160208E+02 -0.13316895189E+01 -0.14217637281E+02  0.54367065703E+02  0.39999957884E+02 0.  0.
         12    1    3    3    0    0 -0.33939160208E+02  0.13316895189E+01  0.14217637281E+02  0.36820934297E+02  0.00000000000E+00 0. -1.
         11    1    4    4    0    0  0.13763120140E+02  0.97674148708E+01 -0.72781110955E+01  0.18379248370E+02  0.51100000000E-03 0. -1.
        -11    1    4    4    0    0 -0.36675757390E+01 -0.94647460526E+01  0.22247974694E+01  0.10391450990E+02  0.51100000000E-03 0.  1.
        -12    1    4    4    0    0  0.23843615807E+02 -0.16343583372E+01 -0.91643236550E+01  0.25596366343E+02  0.00000000000E+00 0.  1.
</event>
<event>
 8    1  0.1240174E-006  0.9118800E+02  0.7816164E-02  0.1184000E+00
        -11   -1    0    0    0    0  0.00000000000E+00  0.00000000000E+00  0.45593999997E+02  0.45594000000E+02  0.51100000000E-03 0. -1.
         11   -1    0    0    0    0 -0.00000000000E+00 -0.00000000000E+00 -0.45593999997E+02  0.45594000000E+02  0.51100000000E-03 0.  1.
         23    2    1    2    0    0 -0.88817841970E-15  0.00000000000E+00  0.00000000000E+00  0.91188000000E+02  0.91188000000E+02 0.  0.
    9900012    2    3    3    0    0  0.19403092615E+01 -0.27849473446E+02  0.24008771502E+02  0.54367094521E+02  0.40000023579E+02 0.  0.
        -12    1    3    3    0    0 -0.19403092615E+01  0.27849473446E+02 -0.24008771502E+02  0.36820905479E+02  0.00000000000E+00 0.  1.
         11    1    4    4    0    0 -0.64033708028E+00 -0.76431533528E+01  0.93187270038E+01  0.12069237672E+02  0.51100000000E-03 0. -1.
        -11    1    4    4    0    0 -0.68195400031E+01 -0.26151991297E+02  0.15482289531E+02  0.31146975199E+02  0.51100000000E-03 0.  1.
        -12    1    4    4    0    0  0.94001863449E+01  0.59456712036E+01 -0.79224503242E+00  0.11150881650E+02  0.00000000000E+00 0.  1.
</event>
<event>
 8    1  0.1240174E-006  0.9118800E+02  0.7816164E-02  0.1184000E+00
        -11   -1    0    0    0    0  0.00000000000E+00  0.00000000000E+00  0.45593999997E+02  0.45594000000E+02  0.51100000000E-03 0. -1.
         11   -1    0    0    0    0 -0.00000000000E+00 -0.00000000000E+00 -0.45593999997E+02  0.45594000000E+02  0.51100000000E-03 0.  1.
         23    2    1    2    0    0  0.00000000000E+00 -0.17763568394E-14  0.00000000000E+00  0.91188000000E+02  0.91188000000E+02 0.  0.
    9900012    2    3    3    0    0  0.29590689489E+02  0.14755093000E+02  0.16200567961E+02  0.54367080998E+02  0.39999992752E+02 0.  0.
        -12    1    3    3    0    0 -0.29590689489E+02 -0.14755093000E+02 -0.16200567961E+02  0.36820919002E+02  0.00000000000E+00 0.  1.
         11    1    4    4    0    0  0.81191443060E+01  0.98583096162E+01  0.18256029220E+02  0.22279797483E+02  0.51100000000E-03 0. -1.
        -11    1    4    4    0    0  0.11661053196E+02  0.11628220809E+02 -0.85255472832E+01  0.18544018916E+02  0.51100000000E-03 0.  1.
        -12    1    4    4    0    0  0.98104919875E+01 -0.67314374252E+01  0.64700860239E+01  0.13543264599E+02  0.00000000000E+00 0.  1.
</event>
<event>
 8    1  0.1240174E-006  0.9118800E+02  0.7816164E-02  0.1184000E+00
        -11   -1    0    0    0    0  0.00000000000E+00  0.00000000000E+00  0.45593999997E+02  0.45594000000E+02  0.51100000000E-03 0.  1.
         11   -1    0    0    0    0 -0.00000000000E+00 -0.00000000000E+00 -0.45593999997E+02  0.45594000000E+02  0.51100000000E-03 0. -1.
         23    2    1    2    0    0  0.00000000000E+00  0.13322676296E-14 -0.35527136788E-14  0.91188000000E+02  0.91188000000E+02 0.  0.
    9900012    2    3    3    0    0 -0.22271895584E+02 -0.37559240875E+01  0.29079800206E+02  0.54367094543E+02  0.40000023630E+02 0.  0.
         12    1    3    3    0    0  0.22271895584E+02  0.37559240875E+01 -0.29079800206E+02  0.36820905457E+02  0.00000000000E+00 0. -1.
         11    1    4    4    0    0 -0.20824223132E+02  0.89878249045E+01  0.90207262834E+01  0.24409071439E+02  0.51100000000E-03 0. -1.
        -11    1    4    4    0    0 -0.19325920624E+01 -0.13044922921E+02  0.38484834988E+01  0.13737385180E+02  0.51100000000E-03 0.  1.
        -12    1    4    4    0    0  0.48491961123E+00  0.30117392862E+00  0.16210590424E+02  0.16220637924E+02  0.00000000000E+00 0.  1.
</event>
<event>
 8    1  0.1240174E-006  0.9118800E+02  0.7816164E-02  0.1184000E+00
        -11   -1    0    0    0    0  0.00000000000E+00  0.00000000000E+00  0.45593999997E+02  0.45594000000E+02  0.51100000000E-03 0.  1.
         11   -1    0    0    0    0 -0.00000000000E+00 -0.00000000000E+00 -0.45593999997E+02  0.45594000000E+02  0.51100000000E-03 0. -1.
         23    2    1    2    0    0 -0.17763568394E-14  0.71054273576E-14 -0.17763568394E-14  0.91188000000E+02  0.91188000000E+02 0.  0.
    9900012    2    3    3    0    0 -0.15532692992E+02  0.33206435904E+02 -0.34415993352E+01  0.54367128975E+02  0.40000102125E+02 0.  0.
        -12    1    3    3    0    0  0.15532692992E+02 -0.33206435904E+02  0.34415993352E+01  0.36820871025E+02  0.00000000000E+00 0.  1.
         11    1    4    4    0    0 -0.14976527686E+02  0.12731937215E+02 -0.10064231054E+02  0.22083644485E+02  0.51100000000E-03 0. -1.
        -11    1    4    4    0    0  0.37739622190E+01  0.64534776999E+01 -0.84259970614E+01  0.11264439267E+02  0.51100000000E-03 0.  1.
        -12    1    4    4    0    0 -0.43301275256E+01  0.14021020989E+02  0.15048628780E+02  0.21019045224E+02  0.00000000000E+00 0.  1.
</event>
<event>
 8    1  0.1240174E-006  0.9118800E+02  0.7816164E-02  0.1184000E+00
        -11   -1    0    0    0    0  0.00000000000E+00  0.00000000000E+00  0.45593999997E+02  0.45594000000E+02  0.51100000000E-03 0.  1.
         11   -1    0    0    0    0 -0.00000000000E+00 -0.00000000000E+00 -0.45593999997E+02  0.45594000000E+02  0.51100000000E-03 0. -1.
         23    2    1    2    0    0  0.35527136788E-14  0.17763568394E-14 -0.71054273576E-14  0.91188000000E+02  0.91188000000E+02 0.  0.
    9900012    2    3    3    0    0  0.10476786288E+02  0.12494376448E+02 -0.33013756207E+02  0.54367073984E+02  0.39999976762E+02 0.  0.
        -12    1    3    3    0    0 -0.10476786288E+02 -0.12494376448E+02  0.33013756207E+02  0.36820926016E+02  0.00000000000E+00 0.  1.
         11    1    4    4    0    0  0.30853166138E+01 -0.16744869505E+00 -0.36434878313E+01  0.47772608795E+01  0.51100000000E-03 0. -1.
        -11    1    4    4    0    0 -0.10477980778E+02  0.17539099114E+02 -0.20883010008E+02  0.29214862419E+02  0.51100000000E-03 0.  1.
        -12    1    4    4    0    0  0.17869450453E+02 -0.48772739704E+01 -0.84872583674E+01  0.20374950686E+02  0.00000000000E+00 0.  1.
</event>
<event>
 8    1  0.1240174E-006  0.9118800E+02  0.7816164E-02  0.1184000E+00
        -11   -1    0    0    0    0  0.00000000000E+00  0.00000000000E+00  0.45593999997E+02  0.45594000000E+02  0.51100000000E-03 0.  1.
         11   -1    0    0    0    0 -0.00000000000E+00 -0.00000000000E+00 -0.45593999997E+02  0.45594000000E+02  0.51100000000E-03 0. -1.
         23    2    1    2    0    0  0.00000000000E+00  0.00000000000E+00  0.00000000000E+00  0.91188000000E+02  0.91188000000E+02 0.  0.
    9900012    2    3    3    0    0  0.16707954993E+01  0.54867864846E+01 -0.36371411273E+02  0.54367137143E+02  0.40000120745E+02 0.  0.
        -12    1    3    3    0    0 -0.16707954993E+01 -0.54867864846E+01  0.36371411273E+02  0.36820862857E+02  0.00000000000E+00 0.  1.
         11    1    4    4    0    0 -0.25713054907E+01 -0.15260206243E+01 -0.39143331861E+02  0.39257365938E+02  0.51100000000E-03 0. -1.
        -11    1    4    4    0    0  0.85008440583E+01  0.32990225367E+01  0.24888410956E+01  0.94521018648E+01  0.51100000000E-03 0.  1.
         12    1    4    4    0    0 -0.42587430683E+01  0.37137845723E+01  0.28307949283E+00  0.56576693408E+01  0.00000000000E+00 0. -1.
</event>
<event>
 8    1  0.1240174E-006  0.9118800E+02  0.7816164E-02  0.1184000E+00
        -11   -1    0    0    0    0  0.00000000000E+00  0.00000000000E+00  0.45593999997E+02  0.45594000000E+02  0.51100000000E-03 0. -1.
         11   -1    0    0    0    0 -0.00000000000E+00 -0.00000000000E+00 -0.45593999997E+02  0.45594000000E+02  0.51100000000E-03 0.  1.
         23    2    1    2    0    0  0.00000000000E+00  0.00000000000E+00  0.00000000000E+00  0.91188000000E+02  0.91188000000E+02 0.  0.
    9900012    2    3    3    0    0 -0.12363319219E+02 -0.34163287530E+02  0.59831178612E+01  0.54367087785E+02  0.40000008224E+02 0.  0.
        -12    1    3    3    0    0  0.12363319219E+02  0.34163287530E+02 -0.59831178612E+01  0.36820912215E+02  0.00000000000E+00 0.  1.
         11    1    4    4    0    0 -0.10374264665E+02 -0.30611272485E+02  0.83995060015E+00  0.32332350483E+02  0.51100000000E-03 0. -1.
        -11    1    4    4    0    0 -0.21943480887E+01  0.33910025279E+01 -0.69790016241E+01  0.80635305920E+01  0.51100000000E-03 0.  1.
        -12    1    4    4    0    0  0.20529353537E+00 -0.69430175737E+01  0.12122168885E+02  0.13971206710E+02  0.00000000000E+00 0.  1.
</event>
<event>
 8    1  0.1240174E-006  0.9118800E+02  0.7816164E-02  0.1184000E+00
        -11   -1    0    0    0    0  0.00000000000E+00  0.00000000000E+00  0.45593999997E+02  0.45594000000E+02  0.51100000000E-03 0.  1.
         11   -1    0    0    0    0 -0.00000000000E+00 -0.00000000000E+00 -0.45593999997E+02  0.45594000000E+02  0.51100000000E-03 0. -1.
         23    2    1    2    0    0  0.00000000000E+00  0.00000000000E+00  0.00000000000E+00  0.91188000000E+02  0.91188000000E+02 0.  0.
    9900012    2    3    3    0    0 -0.12504993547E+02 -0.25451901008E+02  0.23486263604E+02  0.54367099596E+02  0.40000035148E+02 0.  0.
         12    1    3    3    0    0  0.12504993547E+02  0.25451901008E+02 -0.23486263604E+02  0.36820900404E+02  0.00000000000E+00 0. -1.
         11    1    4    4    0    0 -0.78553734857E+01 -0.20033465335E+02  0.90163733646E+01  0.23331129738E+02  0.51100000000E-03 0. -1.
        -11    1    4    4    0    0 -0.10905834300E+02 -0.11769363589E+01  0.19204966134E+02  0.22116806402E+02  0.51100000000E-03 0.  1.
        -12    1    4    4    0    0  0.62562142389E+01 -0.42414993134E+01 -0.47350758942E+01  0.89191634558E+01  0.00000000000E+00 0.  1.
</event>
<event>
 8    1  0.1240174E-006  0.9118800E+02  0.7816164E-02  0.1184000E+00
        -11   -1    0    0    0    0  0.00000000000E+00  0.00000000000E+00  0.45593999997E+02  0.45594000000E+02  0.51100000000E-03 0.  1.
         11   -1    0    0    0    0 -0.00000000000E+00 -0.00000000000E+00 -0.45593999997E+02  0.45594000000E+02  0.51100000000E-03 0. -1.
         23    2    1    2    0    0  0.00000000000E+00 -0.35527136788E-14  0.35527136788E-14  0.91188000000E+02  0.91188000000E+02 0.  0.
    9900012    2    3    3    0    0 -0.54799077264E+01  0.31876330523E+02 -0.17596880005E+02  0.54367081730E+02  0.39999994421E+02 0.  0.
        -12    1    3    3    0    0  0.54799077264E+01 -0.31876330523E+02  0.17596880005E+02  0.36820918270E+02  0.00000000000E+00 0.  1.
         11    1    4    4    0    0 -0.85357812025E+01  0.16056248469E+01 -0.58198487810E+01  0.10455057723E+02  0.51100000000E-03 0. -1.
        -11    1    4    4    0    0 -0.73035573603E+01  0.18708967173E+01  0.52774475024E+01  0.92029156817E+01  0.51100000000E-03 0.  1.
         12    1    4    4    0    0  0.10359430836E+02  0.28399808959E+02 -0.17054478727E+02  0.34709108326E+02  0.00000000000E+00 0. -1.
</event>
<event>
 8    1  0.1240174E-006  0.9118800E+02  0.7816164E-02  0.1184000E+00
        -11   -1    0    0    0    0  0.00000000000E+00  0.00000000000E+00  0.45593999997E+02  0.45594000000E+02  0.51100000000E-03 0. -1.
         11   -1    0    0    0    0 -0.00000000000E+00 -0.00000000000E+00 -0.45593999997E+02  0.45594000000E+02  0.51100000000E-03 0.  1.
         23    2    1    2    0    0 -0.88817841970E-15 -0.88817841970E-15  0.00000000000E+00  0.91188000000E+02  0.91188000000E+02 0.  0.
    9900012    2    3    3    0    0  0.44240571451E+01 -0.76739811069E+01  0.35739591463E+02  0.54367072994E+02  0.39999974503E+02 0.  0.
        -12    1    3    3    0    0 -0.44240571451E+01  0.76739811069E+01 -0.35739591463E+02  0.36820927006E+02  0.00000000000E+00 0.  1.
         11    1    4    4    0    0  0.24718668385E+01 -0.43543200670E+01  0.16578150776E+01  0.52743321857E+01  0.51100000000E-03 0. -1.
        -11    1    4    4    0    0 -0.22732434138E+01  0.33527949771E+01  0.39376506543E+02  0.39584316813E+02  0.51100000000E-03 0.  1.
        -12    1    4    4    0    0  0.42254337204E+01 -0.66724560170E+01 -0.52947301573E+01  0.95084239947E+01  0.00000000000E+00 0.  1.
</event>
<event>
 8    1  0.1240174E-006  0.9118800E+02  0.7816164E-02  0.1184000E+00
        -11   -1    0    0    0    0  0.00000000000E+00  0.00000000000E+00  0.45593999997E+02  0.45594000000E+02  0.51100000000E-03 0.  1.
         11   -1    0    0    0    0 -0.00000000000E+00 -0.00000000000E+00 -0.45593999997E+02  0.45594000000E+02  0.51100000000E-03 0. -1.
         23    2    1    2    0    0  0.00000000000E+00  0.17763568394E-14 -0.71054273576E-14  0.91188000000E+02  0.91188000000E+02 0.  0.
    9900012    2    3    3    0    0  0.17768575764E+01 -0.97600039284E+01  0.35459320078E+02  0.54367105389E+02  0.40000048356E+02 0.  0.
         12    1    3    3    0    0 -0.17768575764E+01  0.97600039284E+01 -0.35459320078E+02  0.36820894611E+02  0.00000000000E+00 0. -1.
         11    1    4    4    0    0 -0.61906292786E+01 -0.94686043972E+01  0.15697211579E+00  0.11313841107E+02  0.51100000000E-03 0. -1.
        -11    1    4    4    0    0  0.12553599550E+02  0.59169859569E+00  0.70347656849E+01  0.14402461505E+02  0.51100000000E-03 0.  1.
        -12    1    4    4    0    0 -0.45861126950E+01 -0.88309812689E+00  0.28267582278E+02  0.28650802777E+02  0.00000000000E+00 0.  1.
</event>
<event>
 8    1  0.1240174E-006  0.9118800E+02  0.7816164E-02  0.1184000E+00
        -11   -1    0    0    0    0  0.00000000000E+00  0.00000000000E+00  0.45593999997E+02  0.45594000000E+02  0.51100000000E-03 0.  1.
         11   -1    0    0    0    0 -0.00000000000E+00 -0.00000000000E+00 -0.45593999997E+02  0.45594000000E+02  0.51100000000E-03 0. -1.
         23    2    1    2    0    0 -0.35527136788E-14  0.00000000000E+00  0.35527136788E-14  0.91188000000E+02  0.91188000000E+02 0.  0.
    9900012    2    3    3    0    0 -0.21336602647E+02 -0.12830362392E+01  0.29981379578E+02  0.54367083174E+02  0.39999997711E+02 0.  0.
         12    1    3    3    0    0  0.21336602647E+02  0.12830362392E+01 -0.29981379578E+02  0.36820916826E+02  0.00000000000E+00 0. -1.
         11    1    4    4    0    0 -0.44176207180E+01  0.39338915574E+01  0.26115623880E+02  0.26777167261E+02  0.51100000000E-03 0.  1.
        -11    1    4    4    0    0 -0.84733352946E+01  0.23181773797E+01  0.11101110574E+02  0.14156483095E+02  0.51100000000E-03 0. -1.
         12    1    4    4    0    0 -0.84456466343E+01 -0.75351051763E+01 -0.72353548762E+01  0.13433432818E+02  0.00000000000E+00 0. -1.
</event>
<event>
 8    1  0.1240174E-006  0.9118800E+02  0.7816164E-02  0.1184000E+00
        -11   -1    0    0    0    0  0.00000000000E+00  0.00000000000E+00  0.45593999997E+02  0.45594000000E+02  0.51100000000E-03 0.  1.
         11   -1    0    0    0    0 -0.00000000000E+00 -0.00000000000E+00 -0.45593999997E+02  0.45594000000E+02  0.51100000000E-03 0. -1.
         23    2    1    2    0    0  0.00000000000E+00 -0.88817841970E-15 -0.88817841970E-15  0.91188000000E+02  0.91188000000E+02 0.  0.
    9900012    2    3    3    0    0  0.36505809848E+02  0.42148076342E+01  0.23115454570E+01  0.54367054895E+02  0.39999933244E+02 0.  0.
        -12    1    3    3    0    0 -0.36505809848E+02 -0.42148076342E+01 -0.23115454570E+01  0.36820945105E+02  0.00000000000E+00 0.  1.
         11    1    4    4    0    0 -0.83779395222E+00  0.63768428875E+01  0.88592843077E+01  0.10947736872E+02  0.51100000000E-03 0. -1.
        -11    1    4    4    0    0  0.13964128372E+02 -0.10906635119E+02 -0.45193760816E+00  0.17724441279E+02  0.51100000000E-03 0.  1.
         12    1    4    4    0    0  0.23379475427E+02  0.87445998652E+01 -0.60958012425E+01  0.25694876743E+02  0.00000000000E+00 0. -1.
</event>
<event>
 8    1  0.1240174E-006  0.9118800E+02  0.7816164E-02  0.1184000E+00
        -11   -1    0    0    0    0  0.00000000000E+00  0.00000000000E+00  0.45593999997E+02  0.45594000000E+02  0.51100000000E-03 0.  1.
         11   -1    0    0    0    0 -0.00000000000E+00 -0.00000000000E+00 -0.45593999997E+02  0.45594000000E+02  0.51100000000E-03 0. -1.
         23    2    1    2    0    0  0.17763568394E-14  0.00000000000E+00  0.00000000000E+00  0.91188000000E+02  0.91188000000E+02 0.  0.
    9900012    2    3    3    0    0 -0.15055779146E+02  0.44507354429E+01 -0.33306065124E+02  0.54367088744E+02  0.40000010409E+02 0.  0.
        -12    1    3    3    0    0  0.15055779146E+02 -0.44507354429E+01  0.33306065124E+02  0.36820911256E+02  0.00000000000E+00 0.  1.
         11    1    4    4    0    0 -0.28812529030E+01 -0.79623628601E+01 -0.30743062869E+02  0.31887877876E+02  0.51100000000E-03 0. -1.
        -11    1    4    4    0    0 -0.14679726373E+02  0.71600994567E+01 -0.62344640040E+00  0.16344726253E+02  0.51100000000E-03 0.  1.
         12    1    4    4    0    0  0.25052001297E+01  0.52529988464E+01 -0.19395558541E+01  0.61344846141E+01  0.00000000000E+00 0. -1.
</event>
<event>
 8    1  0.1240174E-006  0.9118800E+02  0.7816164E-02  0.1184000E+00
        -11   -1    0    0    0    0  0.00000000000E+00  0.00000000000E+00  0.45593999997E+02  0.45594000000E+02  0.51100000000E-03 0.  1.
         11   -1    0    0    0    0 -0.00000000000E+00 -0.00000000000E+00 -0.45593999997E+02  0.45594000000E+02  0.51100000000E-03 0. -1.
         23    2    1    2    0    0  0.00000000000E+00  0.00000000000E+00  0.00000000000E+00  0.91188000000E+02  0.91188000000E+02 0.  0.
    9900012    2    3    3    0    0 -0.23353570918E+02  0.11632802402E+02 -0.25982084183E+02  0.54367081152E+02  0.39999993101E+02 0.  0.
        -12    1    3    3    0    0  0.23353570918E+02 -0.11632802402E+02  0.25982084183E+02  0.36820918848E+02  0.00000000000E+00 0.  1.
         11    1    4    4    0    0 -0.10169520559E+02  0.19785725422E+02 -0.27256673651E+02  0.35182670985E+02  0.51100000000E-03 0. -1.
        -11    1    4    4    0    0 -0.12101630621E+01 -0.32126747674E+01 -0.39358624039E+01  0.52227183460E+01  0.51100000000E-03 0.  1.
        -12    1    4    4    0    0 -0.11973887297E+02 -0.49402482521E+01  0.52104518720E+01  0.13961691821E+02  0.00000000000E+00 0.  1.
</event>
<event>
 8    1  0.1240174E-006  0.9118800E+02  0.7816164E-02  0.1184000E+00
        -11   -1    0    0    0    0  0.00000000000E+00  0.00000000000E+00  0.45593999997E+02  0.45594000000E+02  0.51100000000E-03 0. -1.
         11   -1    0    0    0    0 -0.00000000000E+00 -0.00000000000E+00 -0.45593999997E+02  0.45594000000E+02  0.51100000000E-03 0.  1.
         23    2    1    2    0    0  0.00000000000E+00  0.35527136788E-14  0.00000000000E+00  0.91188000000E+02  0.91188000000E+02 0.  0.
    9900012    2    3    3    0    0  0.26923024277E+02 -0.23398034121E+02 -0.91357093956E+01  0.54367103445E+02  0.40000043923E+02 0.  0.
         12    1    3    3    0    0 -0.26923024277E+02  0.23398034121E+02  0.91357093956E+01  0.36820896555E+02  0.00000000000E+00 0. -1.
         11    1    4    4    0    0 -0.63638622170E+00 -0.58856928189E+01  0.69805028001E+01  0.91528021384E+01  0.51100000000E-03 0.  1.
        -11    1    4    4    0    0  0.20689342425E+02 -0.15238361844E+01  0.10478282589E+01  0.20771829746E+02  0.51100000000E-03 0. -1.
        -12    1    4    4    0    0  0.68700680742E+01 -0.15988505118E+02 -0.17164040455E+02  0.24442471560E+02  0.00000000000E+00 0.  1.
</event>
<event>
 8    1  0.1240174E-006  0.9118800E+02  0.7816164E-02  0.1184000E+00
        -11   -1    0    0    0    0  0.00000000000E+00  0.00000000000E+00  0.45593999997E+02  0.45594000000E+02  0.51100000000E-03 0.  1.
         11   -1    0    0    0    0 -0.00000000000E+00 -0.00000000000E+00 -0.45593999997E+02  0.45594000000E+02  0.51100000000E-03 0. -1.
         23    2    1    2    0    0  0.00000000000E+00  0.00000000000E+00  0.22204460493E-15  0.91188000000E+02  0.91188000000E+02 0.  0.
    9900012    2    3    3    0    0  0.31081520366E+02 -0.19704620265E+02  0.12028356954E+01  0.54367084996E+02  0.40000001865E+02 0.  0.
         12    1    3    3    0    0 -0.31081520366E+02  0.19704620265E+02 -0.12028356954E+01  0.36820915004E+02  0.00000000000E+00 0. -1.
         11    1    4    4    0    0  0.20276968362E+02 -0.58193115237E+01  0.15190203524E+02  0.25995424903E+02  0.51100000000E-03 0. -1.
        -11    1    4    4    0    0  0.10894356628E+02 -0.15085757722E+02 -0.49512375477E+01  0.19255696453E+02  0.51100000000E-03 0.  1.
         12    1    4    4    0    0 -0.89804623636E-01  0.12004489808E+01 -0.90361302805E+01  0.91159636392E+01  0.00000000000E+00 0. -1.
</event>
<event>
 8    1  0.1240174E-006  0.9118800E+02  0.7816164E-02  0.1184000E+00
        -11   -1    0    0    0    0  0.00000000000E+00  0.00000000000E+00  0.45593999997E+02  0.45594000000E+02  0.51100000000E-03 0. -1.
         11   -1    0    0    0    0 -0.00000000000E+00 -0.00000000000E+00 -0.45593999997E+02  0.45594000000E+02  0.51100000000E-03 0.  1.
         23    2    1    2    0    0 -0.11102230246E-15  0.00000000000E+00  0.35527136788E-14  0.91188000000E+02  0.91188000000E+02 0.  0.
    9900012    2    3    3    0    0 -0.72847529987E+00 -0.27939774146E+02  0.23971181424E+02  0.54367092971E+02  0.40000020045E+02 0.  0.
         12    1    3    3    0    0  0.72847529987E+00  0.27939774146E+02 -0.23971181424E+02  0.36820907029E+02  0.00000000000E+00 0. -1.
         11    1    4    4    0    0  0.86764479796E+01 -0.38302793813E+01  0.24848536823E+02  0.26597021867E+02  0.51100000000E-03 0. -1.
        -11    1    4    4    0    0 -0.63127645411E+01 -0.23246144776E+02  0.89161147050E+00  0.24104547587E+02  0.51100000000E-03 0.  1.
        -12    1    4    4    0    0 -0.30921587384E+01 -0.86334998869E+00 -0.17689668696E+01  0.36655235168E+01  0.00000000000E+00 0.  1.
</event>
<event>
 8    1  0.1240174E-006  0.9118800E+02  0.7816164E-02  0.1184000E+00
        -11   -1    0    0    0    0  0.00000000000E+00  0.00000000000E+00  0.45593999997E+02  0.45594000000E+02  0.51100000000E-03 0.  1.
         11   -1    0    0    0    0 -0.00000000000E+00 -0.00000000000E+00 -0.45593999997E+02  0.45594000000E+02  0.51100000000E-03 0. -1.
         23    2    1    2    0    0 -0.35527136788E-14  0.00000000000E+00 -0.17763568394E-14  0.91188000000E+02  0.91188000000E+02 0.  0.
    9900012    2    3    3    0    0 -0.24197603850E+02  0.26682777425E+02 -0.76344584247E+01  0.54367087482E+02  0.40000007534E+02 0.  0.
         12    1    3    3    0    0  0.24197603850E+02 -0.26682777425E+02  0.76344584247E+01  0.36820912518E+02  0.00000000000E+00 0. -1.
         11    1    4    4    0    0  0.37018914002E+01  0.28618531253E+01 -0.36107425888E+00  0.46930350661E+01  0.51100000000E-03 0.  1.
        -11    1    4    4    0    0  0.13632686308E-01  0.11096637331E+02  0.95913955287E+01  0.14667324717E+02  0.51100000000E-03 0. -1.
        -12    1    4    4    0    0 -0.27913127936E+02  0.12724286968E+02 -0.16864779695E+02  0.35006727699E+02  0.00000000000E+00 0.  1.
</event>
<event>
 8    1  0.1240174E-006  0.9118800E+02  0.7816164E-02  0.1184000E+00
        -11   -1    0    0    0    0  0.00000000000E+00  0.00000000000E+00  0.45593999997E+02  0.45594000000E+02  0.51100000000E-03 0.  1.
         11   -1    0    0    0    0 -0.00000000000E+00 -0.00000000000E+00 -0.45593999997E+02  0.45594000000E+02  0.51100000000E-03 0. -1.
         23    2    1    2    0    0  0.00000000000E+00  0.35527136788E-14  0.35527136788E-14  0.91188000000E+02  0.91188000000E+02 0.  0.
    9900012    2    3    3    0    0 -0.21387562966E+02 -0.21975463172E+02 -0.20382140179E+02  0.54367075657E+02  0.39999980574E+02 0.  0.
         12    1    3    3    0    0  0.21387562966E+02  0.21975463172E+02  0.20382140179E+02  0.36820924343E+02  0.00000000000E+00 0. -1.
         11    1    4    4    0    0 -0.35331861697E+00  0.84055718309E+01 -0.13642824673E+02  0.16028260579E+02  0.51100000000E-03 0. -1.
        -11    1    4    4    0    0 -0.12368212576E+02 -0.23912728616E+02 -0.44971318774E+01  0.27294971470E+02  0.51100000000E-03 0.  1.
         12    1    4    4    0    0 -0.86660317733E+01 -0.64683063868E+01 -0.22421836278E+01  0.11043843608E+02  0.00000000000E+00 0. -1.
</event>
<event>
 8    1  0.1240174E-006  0.9118800E+02  0.7816164E-02  0.1184000E+00
        -11   -1    0    0    0    0  0.00000000000E+00  0.00000000000E+00  0.45593999997E+02  0.45594000000E+02  0.51100000000E-03 0. -1.
         11   -1    0    0    0    0 -0.00000000000E+00 -0.00000000000E+00 -0.45593999997E+02  0.45594000000E+02  0.51100000000E-03 0.  1.
         23    2    1    2    0    0  0.00000000000E+00  0.00000000000E+00  0.00000000000E+00  0.91188000000E+02  0.91188000000E+02 0.  0.
    9900012    2    3    3    0    0 -0.28808779587E+02 -0.22413339316E+02  0.48449863785E+01  0.54367116610E+02  0.40000073937E+02 0.  0.
         12    1    3    3    0    0  0.28808779587E+02  0.22413339316E+02 -0.48449863785E+01  0.36820883390E+02  0.00000000000E+00 0. -1.
         11    1    4    4    0    0 -0.29473655538E+02 -0.12420575364E+02  0.11256645243E+02  0.33906918550E+02  0.51100000000E-03 0. -1.
        -11    1    4    4    0    0 -0.76301371982E+01 -0.56509807502E+01 -0.76274713950E+00  0.95254585487E+01  0.51100000000E-03 0.  1.
        -12    1    4    4    0    0  0.82950131496E+01 -0.43417832017E+01 -0.56489117248E+01  0.10934739512E+02  0.00000000000E+00 0.  1.
</event>
<event>
 8    1  0.1240174E-006  0.9118800E+02  0.7816164E-02  0.1184000E+00
        -11   -1    0    0    0    0  0.00000000000E+00  0.00000000000E+00  0.45593999997E+02  0.45594000000E+02  0.51100000000E-03 0.  1.
         11   -1    0    0    0    0 -0.00000000000E+00 -0.00000000000E+00 -0.45593999997E+02  0.45594000000E+02  0.51100000000E-03 0. -1.
         23    2    1    2    0    0 -0.17763568394E-14  0.11102230246E-15  0.00000000000E+00  0.91188000000E+02  0.91188000000E+02 0.  0.
    9900012    2    3    3    0    0 -0.14333679653E+02 -0.65998846533E+00  0.33910108130E+02  0.54367008833E+02  0.39999828236E+02 0.  0.
         12    1    3    3    0    0  0.14333679653E+02  0.65998846533E+00 -0.33910108130E+02  0.36820991167E+02  0.00000000000E+00 0. -1.
         11    1    4    4    0    0 -0.65336348290E+01 -0.12643553026E+01 -0.20406576759E+01  0.69606941048E+01  0.51100000000E-03 0. -1.
        -11    1    4    4    0    0 -0.41749050096E+01  0.14496470205E+01  0.40942023012E+02  0.41179856203E+02  0.51100000000E-03 0.  1.
        -12    1    4    4    0    0 -0.36251398142E+01 -0.84528018328E+00 -0.49912572067E+01  0.62264585250E+01  0.00000000000E+00 0.  1.
</event>
<event>
 8    1  0.1240174E-006  0.9118800E+02  0.7816164E-02  0.1184000E+00
        -11   -1    0    0    0    0  0.00000000000E+00  0.00000000000E+00  0.45593999997E+02  0.45594000000E+02  0.51100000000E-03 0. -1.
         11   -1    0    0    0    0 -0.00000000000E+00 -0.00000000000E+00 -0.45593999997E+02  0.45594000000E+02  0.51100000000E-03 0.  1.
         23    2    1    2    0    0  0.71054273576E-14 -0.88817841970E-15  0.00000000000E+00  0.91188000000E+02  0.91188000000E+02 0.  0.
    9900012    2    3    3    0    0 -0.35248044908E+02  0.55025384423E+01  0.91147357853E+01  0.54367068350E+02  0.39999963916E+02 0.  0.
         12    1    3    3    0    0  0.35248044908E+02 -0.55025384423E+01 -0.91147357853E+01  0.36820931650E+02  0.00000000000E+00 0. -1.
         11    1    4    4    0    0 -0.14617231793E+02  0.17068428224E+02  0.13049067388E+01  0.22509942007E+02  0.51100000000E-03 0. -1.
        -11    1    4    4    0    0 -0.10556224447E+02  0.47378402554E+01  0.14345961390E+01  0.11659291197E+02  0.51100000000E-03 0.  1.
         12    1    4    4    0    0 -0.10074588669E+02 -0.16303730037E+02  0.63752329075E+01  0.20197835146E+02  0.00000000000E+00 0. -1.
</event>
<event>
 8    1  0.1240174E-006  0.9118800E+02  0.7816164E-02  0.1184000E+00
        -11   -1    0    0    0    0  0.00000000000E+00  0.00000000000E+00  0.45593999997E+02  0.45594000000E+02  0.51100000000E-03 0.  1.
         11   -1    0    0    0    0 -0.00000000000E+00 -0.00000000000E+00 -0.45593999997E+02  0.45594000000E+02  0.51100000000E-03 0. -1.
         23    2    1    2    0    0  0.35527136788E-14  0.00000000000E+00 -0.17763568394E-14  0.91188000000E+02  0.91188000000E+02 0.  0.
    9900012    2    3    3    0    0 -0.29612358560E+02  0.20106631374E+02 -0.86379017686E+01  0.54367058246E+02  0.39999940883E+02 0.  0.
        -12    1    3    3    0    0  0.29612358560E+02 -0.20106631374E+02  0.86379017686E+01  0.36820941754E+02  0.00000000000E+00 0.  1.
         11    1    4    4    0    0 -0.11069977860E+02  0.61199027578E+01 -0.13786383456E+02  0.18709943577E+02  0.51100000000E-03 0. -1.
        -11    1    4    4    0    0 -0.12587919658E+02  0.21628987548E+02  0.80081754499E+00  0.25038173509E+02  0.51100000000E-03 0.  1.
        -12    1    4    4    0    0 -0.59544610417E+01 -0.76422589311E+01  0.43476641428E+01  0.10618941160E+02  0.00000000000E+00 0.  1.
</event>
<event>
 8    1  0.1240174E-006  0.9118800E+02  0.7816164E-02  0.1184000E+00
        -11   -1    0    0    0    0  0.00000000000E+00  0.00000000000E+00  0.45593999997E+02  0.45594000000E+02  0.51100000000E-03 0. -1.
         11   -1    0    0    0    0 -0.00000000000E+00 -0.00000000000E+00 -0.45593999997E+02  0.45594000000E+02  0.51100000000E-03 0.  1.
         23    2    1    2    0    0  0.35527136788E-14  0.00000000000E+00 -0.35527136788E-14  0.91188000000E+02  0.91188000000E+02 0.  0.
    9900012    2    3    3    0    0 -0.17636280692E+02  0.17070353570E+02  0.27447109705E+02  0.54367092912E+02  0.40000019911E+02 0.  0.
        -12    1    3    3    0    0  0.17636280692E+02 -0.17070353570E+02 -0.27447109705E+02  0.36820907088E+02  0.00000000000E+00 0.  1.
         11    1    4    4    0    0  0.22314299557E+00  0.49485763595E+01  0.14916892328E+01  0.51733294705E+01  0.51100000000E-03 0. -1.
        -11    1    4    4    0    0  0.61623270493E+01 -0.31422249251E+01 -0.39041750136E+01  0.79429487560E+01  0.51100000000E-03 0.  1.
         12    1    4    4    0    0 -0.24021750737E+02  0.15264002135E+02  0.29859595485E+02  0.41250814685E+02  0.00000000000E+00 0. -1.
</event>
<event>
 8    1  0.1240174E-006  0.9118800E+02  0.7816164E-02  0.1184000E+00
        -11   -1    0    0    0    0  0.00000000000E+00  0.00000000000E+00  0.45593999997E+02  0.45594000000E+02  0.51100000000E-03 0.  1.
         11   -1    0    0    0    0 -0.00000000000E+00 -0.00000000000E+00 -0.45593999997E+02  0.45594000000E+02  0.51100000000E-03 0. -1.
         23    2    1    2    0    0  0.35527136788E-14 -0.35527136788E-14 -0.10658141036E-13  0.91188000000E+02  0.91188000000E+02 0.  0.
    9900012    2    3    3    0    0  0.16357740659E+02 -0.10714670940E+02 -0.31199293026E+02  0.54367139904E+02  0.40000127040E+02 0.  0.
        -12    1    3    3    0    0 -0.16357740659E+02  0.10714670940E+02  0.31199293026E+02  0.36820860096E+02  0.00000000000E+00 0.  1.
         11    1    4    4    0    0 -0.39604936359E+00 -0.20691071326E+02 -0.24931511293E+02  0.32401505263E+02  0.51100000000E-03 0. -1.
        -11    1    4    4    0    0  0.12372716515E+02  0.28654725902E+01 -0.37963926005E+01  0.13255476007E+02  0.51100000000E-03 0.  1.
        -12    1    4    4    0    0  0.43810735073E+01  0.71109277954E+01 -0.24713891329E+01  0.87101586342E+01  0.00000000000E+00 0.  1.
</event>
<event>
 8    1  0.1240174E-006  0.9118800E+02  0.7816164E-02  0.1184000E+00
        -11   -1    0    0    0    0  0.00000000000E+00  0.00000000000E+00  0.45593999997E+02  0.45594000000E+02  0.51100000000E-03 0. -1.
         11   -1    0    0    0    0 -0.00000000000E+00 -0.00000000000E+00 -0.45593999997E+02  0.45594000000E+02  0.51100000000E-03 0.  1.
         23    2    1    2    0    0  0.17763568394E-14  0.00000000000E+00  0.00000000000E+00  0.91188000000E+02  0.91188000000E+02 0.  0.
    9900012    2    3    3    0    0 -0.15303281152E+02  0.32751997695E+02 -0.69927401193E+01  0.54367052410E+02  0.39999927579E+02 0.  0.
        -12    1    3    3    0    0  0.15303281152E+02 -0.32751997695E+02  0.69927401193E+01  0.36820947590E+02  0.00000000000E+00 0.  1.
         11    1    4    4    0    0 -0.16831468679E+02  0.31471629222E+01  0.23092438708E+01  0.17278182192E+02  0.51100000000E-03 0. -1.
        -11    1    4    4    0    0  0.32508772817E+01 -0.22805199527E+01 -0.96333162643E+00  0.40861941264E+01  0.51100000000E-03 0.  1.
         12    1    4    4    0    0 -0.17226897546E+01  0.31885354726E+02 -0.83386523637E+01  0.33002676092E+02  0.00000000000E+00 0. -1.
</event>
<event>
 8    1  0.1240174E-006  0.9118800E+02  0.7816164E-02  0.1184000E+00
        -11   -1    0    0    0    0  0.00000000000E+00  0.00000000000E+00  0.45593999997E+02  0.45594000000E+02  0.51100000000E-03 0. -1.
         11   -1    0    0    0    0 -0.00000000000E+00 -0.00000000000E+00 -0.45593999997E+02  0.45594000000E+02  0.51100000000E-03 0.  1.
         23    2    1    2    0    0  0.35527136788E-14 -0.35527136788E-14  0.11102230246E-14  0.91188000000E+02  0.91188000000E+02 0.  0.
    9900012    2    3    3    0    0  0.18734483003E+02  0.31679739876E+02  0.10926797766E+01  0.54367072240E+02  0.39999972786E+02 0.  0.
        -12    1    3    3    0    0 -0.18734483003E+02 -0.31679739876E+02 -0.10926797766E+01  0.36820927760E+02  0.00000000000E+00 0.  1.
         11    1    4    4    0    0 -0.23151275332E+01  0.66798643819E+01 -0.73374881513E+01  0.10189167595E+02  0.51100000000E-03 0. -1.
        -11    1    4    4    0    0  0.18308954509E+02  0.67161477043E+00  0.11319238818E+00  0.18321618225E+02  0.51100000000E-03 0.  1.
        -12    1    4    4    0    0  0.27406560277E+01  0.24328260724E+02  0.83169755397E+01  0.25856286420E+02  0.00000000000E+00 0.  1.
</event>
<event>
 8    1  0.1240174E-006  0.9118800E+02  0.7816164E-02  0.1184000E+00
        -11   -1    0    0    0    0  0.00000000000E+00  0.00000000000E+00  0.45593999997E+02  0.45594000000E+02  0.51100000000E-03 0.  1.
         11   -1    0    0    0    0 -0.00000000000E+00 -0.00000000000E+00 -0.45593999997E+02  0.45594000000E+02  0.51100000000E-03 0. -1.
         23    2    1    2    0    0  0.00000000000E+00 -0.44408920985E-15  0.00000000000E+00  0.91188000000E+02  0.91188000000E+02 0.  0.
    9900012    2    3    3    0    0 -0.27562555814E+02 -0.20229204192E+01  0.24330896787E+02  0.54367092509E+02  0.40000018993E+02 0.  0.
         12    1    3    3    0    0  0.27562555814E+02  0.20229204192E+01 -0.24330896787E+02  0.36820907491E+02  0.00000000000E+00 0. -1.
         11    1    4    4    0    0 -0.33537598462E+00 -0.47517620191E+01 -0.18842852506E+01  0.51227190538E+01  0.51100000000E-03 0. -1.
        -11    1    4    4    0    0 -0.70857972493E+01 -0.12228884285E+02  0.17915190439E+02  0.22819031141E+02  0.51100000000E-03 0.  1.
         12    1    4    4    0    0 -0.20141382580E+02  0.14957725885E+02  0.82999915988E+01  0.26425342314E+02  0.00000000000E+00 0. -1.
</event>
<event>
 8    1  0.1240174E-006  0.9118800E+02  0.7816164E-02  0.1184000E+00
        -11   -1    0    0    0    0  0.00000000000E+00  0.00000000000E+00  0.45593999997E+02  0.45594000000E+02  0.51100000000E-03 0.  1.
         11   -1    0    0    0    0 -0.00000000000E+00 -0.00000000000E+00 -0.45593999997E+02  0.45594000000E+02  0.51100000000E-03 0. -1.
         23    2    1    2    0    0  0.00000000000E+00  0.00000000000E+00 -0.35527136788E-14  0.91188000000E+02  0.91188000000E+02 0.  0.
    9900012    2    3    3    0    0  0.25653880648E+01 -0.22147239554E+02 -0.29303461517E+02  0.54367159533E+02  0.40000171788E+02 0.  0.
        -12    1    3    3    0    0 -0.25653880648E+01  0.22147239554E+02  0.29303461517E+02  0.36820840467E+02  0.00000000000E+00 0.  1.
         11    1    4    4    0    0  0.13566877008E+02 -0.43003735784E+01 -0.17761992119E+01  0.14342532850E+02  0.51100000000E-03 0. -1.
        -11    1    4    4    0    0 -0.31699625836E-01 -0.98043248586E+01 -0.55908921356E+00  0.98203040589E+01  0.51100000000E-03 0.  1.
        -12    1    4    4    0    0 -0.10969789317E+02 -0.80425411166E+01 -0.26968173092E+02  0.30204322624E+02  0.00000000000E+00 0.  1.
</event>
<event>
 8    1  0.1240174E-006  0.9118800E+02  0.7816164E-02  0.1184000E+00
        -11   -1    0    0    0    0  0.00000000000E+00  0.00000000000E+00  0.45593999997E+02  0.45594000000E+02  0.51100000000E-03 0.  1.
         11   -1    0    0    0    0 -0.00000000000E+00 -0.00000000000E+00 -0.45593999997E+02  0.45594000000E+02  0.51100000000E-03 0. -1.
         23    2    1    2    0    0  0.17763568394E-14  0.00000000000E+00  0.00000000000E+00  0.91188000000E+02  0.91188000000E+02 0.  0.
    9900012    2    3    3    0    0  0.86704223232E+01  0.24348525788E+02 -0.26225062000E+02  0.54367071057E+02  0.39999970089E+02 0.  0.
        -12    1    3    3    0    0 -0.86704223232E+01 -0.24348525788E+02  0.26225062000E+02  0.36820928943E+02  0.00000000000E+00 0.  1.
         11    1    4    4    0    0  0.34464135906E+01 -0.30406181819E+01 -0.18628606265E+01  0.49591708521E+01  0.51100000000E-03 0. -1.
        -11    1    4    4    0    0  0.10032252756E+02 -0.38903388542E+01 -0.28157691757E+01  0.11122472210E+02  0.51100000000E-03 0.  1.
         12    1    4    4    0    0 -0.48082440230E+01  0.31279482824E+02 -0.21546432198E+02  0.38285427995E+02  0.00000000000E+00 0. -1.
</event>
<event>
 8    1  0.1240174E-006  0.9118800E+02  0.7816164E-02  0.1184000E+00
        -11   -1    0    0    0    0  0.00000000000E+00  0.00000000000E+00  0.45593999997E+02  0.45594000000E+02  0.51100000000E-03 0.  1.
         11   -1    0    0    0    0 -0.00000000000E+00 -0.00000000000E+00 -0.45593999997E+02  0.45594000000E+02  0.51100000000E-03 0. -1.
         23    2    1    2    0    0  0.00000000000E+00  0.88817841970E-15  0.00000000000E+00  0.91188000000E+02  0.91188000000E+02 0.  0.
    9900012    2    3    3    0    0  0.34521866457E+02 -0.45878466141E+01 -0.11956981426E+02  0.54367122701E+02  0.40000087822E+02 0.  0.
        -12    1    3    3    0    0 -0.34521866457E+02  0.45878466141E+01  0.11956981426E+02  0.36820877299E+02  0.00000000000E+00 0.  1.
         11    1    4    4    0    0  0.89335552371E+01  0.10551076570E+02  0.47878007074E+01  0.14630675372E+02  0.51100000000E-03 0. -1.
        -11    1    4    4    0    0  0.60631279225E+01 -0.14759647644E+02 -0.10998299610E+02  0.19379662364E+02  0.51100000000E-03 0.  1.
         12    1    4    4    0    0  0.19525183297E+02 -0.37927553980E+00 -0.57464825233E+01  0.20356784965E+02  0.00000000000E+00 0. -1.
</event>
<event>
 8    1  0.1240174E-006  0.9118800E+02  0.7816164E-02  0.1184000E+00
        -11   -1    0    0    0    0  0.00000000000E+00  0.00000000000E+00  0.45593999997E+02  0.45594000000E+02  0.51100000000E-03 0. -1.
         11   -1    0    0    0    0 -0.00000000000E+00 -0.00000000000E+00 -0.45593999997E+02  0.45594000000E+02  0.51100000000E-03 0.  1.
         23    2    1    2    0    0  0.00000000000E+00 -0.28449465006E-15  0.00000000000E+00  0.91188000000E+02  0.91188000000E+02 0.  0.
    9900012    2    3    3    0    0  0.10199128457E+02  0.47268413632E-01 -0.35380059031E+02  0.54367176644E+02  0.40000210794E+02 0.  0.
         12    1    3    3    0    0 -0.10199128457E+02 -0.47268413632E-01  0.35380059031E+02  0.36820823356E+02  0.00000000000E+00 0. -1.
         11    1    4    4    0    0 -0.12224840220E+02 -0.69241573629E+01 -0.43629511824E+01  0.14711424706E+02  0.51100000000E-03 0. -1.
        -11    1    4    4    0    0  0.91556300433E+01 -0.98750419586E+00 -0.10675517573E+02  0.14098489342E+02  0.51100000000E-03 0.  1.
         12    1    4    4    0    0  0.13268338635E+02  0.79589299724E+01 -0.20341590276E+02  0.25557262595E+02  0.00000000000E+00 0. -1.
</event>
<event>
 8    1  0.1240174E-006  0.9118800E+02  0.7816164E-02  0.1184000E+00
        -11   -1    0    0    0    0  0.00000000000E+00  0.00000000000E+00  0.45593999997E+02  0.45594000000E+02  0.51100000000E-03 0. -1.
         11   -1    0    0    0    0 -0.00000000000E+00 -0.00000000000E+00 -0.45593999997E+02  0.45594000000E+02  0.51100000000E-03 0.  1.
         23    2    1    2    0    0  0.17763568394E-14  0.00000000000E+00  0.35527136788E-14  0.91188000000E+02  0.91188000000E+02 0.  0.
    9900012    2    3    3    0    0  0.14614052342E+02  0.26491410529E+02 -0.20986097010E+02  0.54367059961E+02  0.39999944793E+02 0.  0.
         12    1    3    3    0    0 -0.14614052342E+02 -0.26491410529E+02  0.20986097010E+02  0.36820940039E+02  0.00000000000E+00 0. -1.
         11    1    4    4    0    0  0.21645039056E+00  0.15224129195E+02  0.66902861246E+00  0.15240359577E+02  0.51100000000E-03 0. -1.
        -11    1    4    4    0    0  0.45981459020E+01  0.66702698227E+01 -0.26172512584E+02  0.27397734586E+02  0.51100000000E-03 0.  1.
        -12    1    4    4    0    0  0.97994560493E+01  0.45970115120E+01  0.45173869620E+01  0.11728965797E+02  0.00000000000E+00 0.  1.
</event>
<event>
 8    1  0.1240174E-006  0.9118800E+02  0.7816164E-02  0.1184000E+00
        -11   -1    0    0    0    0  0.00000000000E+00  0.00000000000E+00  0.45593999997E+02  0.45594000000E+02  0.51100000000E-03 0. -1.
         11   -1    0    0    0    0 -0.00000000000E+00 -0.00000000000E+00 -0.45593999997E+02  0.45594000000E+02  0.51100000000E-03 0.  1.
         23    2    1    2    0    0  0.00000000000E+00  0.44408920985E-15 -0.71054273576E-14  0.91188000000E+02  0.91188000000E+02 0.  0.
    9900012    2    3    3    0    0  0.22132821390E+02  0.30877153132E+01 -0.29264044834E+02  0.54367080829E+02  0.39999992367E+02 0.  0.
         12    1    3    3    0    0 -0.22132821390E+02 -0.30877153132E+01  0.29264044834E+02  0.36820919171E+02  0.00000000000E+00 0. -1.
         11    1    4    4    0    0  0.72501240459E+01 -0.84569187644E+00 -0.29441370133E+01  0.78706693772E+01  0.51100000000E-03 0. -1.
        -11    1    4    4    0    0  0.18479964042E+02  0.51254256126E+01  0.72112961585E+00  0.19191120001E+02  0.51100000000E-03 0.  1.
        -12    1    4    4    0    0 -0.35972666975E+01 -0.11920184229E+01 -0.27041037436E+02  0.27305291451E+02  0.00000000000E+00 0.  1.
</event>
<event>
 8    1  0.1240174E-006  0.9118800E+02  0.7816164E-02  0.1184000E+00
        -11   -1    0    0    0    0  0.00000000000E+00  0.00000000000E+00  0.45593999997E+02  0.45594000000E+02  0.51100000000E-03 0.  1.
         11   -1    0    0    0    0 -0.00000000000E+00 -0.00000000000E+00 -0.45593999997E+02  0.45594000000E+02  0.51100000000E-03 0. -1.
         23    2    1    2    0    0  0.88817841970E-15  0.13322676296E-14 -0.71054273576E-14  0.91188000000E+02  0.91188000000E+02 0.  0.
    9900012    2    3    3    0    0  0.14364586441E+01 -0.38769728867E+01  0.36588179404E+02  0.54366957045E+02  0.39999710175E+02 0.  0.
         12    1    3    3    0    0 -0.14364586441E+01  0.38769728867E+01 -0.36588179404E+02  0.36821042955E+02  0.00000000000E+00 0. -1.
         11    1    4    4    0    0 -0.88330655371E+01  0.36607404616E+01  0.16623139427E+02  0.19176882754E+02  0.51100000000E-03 0. -1.
        -11    1    4    4    0    0  0.59375593566E+01  0.95147311865E+01  0.59482207047E+01  0.12695119160E+02  0.51100000000E-03 0.  1.
        -12    1    4    4    0    0  0.43319648247E+01 -0.17052444535E+02  0.14016819272E+02  0.22494955131E+02  0.00000000000E+00 0.  1.
</event>
<event>
 8    1  0.1240174E-006  0.9118800E+02  0.7816164E-02  0.1184000E+00
        -11   -1    0    0    0    0  0.00000000000E+00  0.00000000000E+00  0.45593999997E+02  0.45594000000E+02  0.51100000000E-03 0. -1.
         11   -1    0    0    0    0 -0.00000000000E+00 -0.00000000000E+00 -0.45593999997E+02  0.45594000000E+02  0.51100000000E-03 0.  1.
         23    2    1    2    0    0  0.00000000000E+00  0.00000000000E+00  0.00000000000E+00  0.91188000000E+02  0.91188000000E+02 0.  0.
    9900012    2    3    3    0    0  0.32195710462E+02 -0.86539792514E+01  0.15630906668E+02  0.54367076976E+02  0.39999983583E+02 0.  0.
        -12    1    3    3    0    0 -0.32195710462E+02  0.86539792514E+01 -0.15630906668E+02  0.36820923024E+02  0.00000000000E+00 0.  1.
         11    1    4    4    0    0  0.26434185024E+02 -0.89080180223E+01 -0.77325603756E+01  0.28946699521E+02  0.51100000000E-03 0. -1.
        -11    1    4    4    0    0 -0.70515383322E+00 -0.22071175813E+01  0.11103376932E+02  0.11342556568E+02  0.51100000000E-03 0.  1.
         12    1    4    4    0    0  0.64666792719E+01  0.24611563522E+01  0.12260090112E+02  0.14077820888E+02  0.00000000000E+00 0. -1.
</event>
<event>
 8    1  0.1240174E-006  0.9118800E+02  0.7816164E-02  0.1184000E+00
        -11   -1    0    0    0    0  0.00000000000E+00  0.00000000000E+00  0.45593999997E+02  0.45594000000E+02  0.51100000000E-03 0. -1.
         11   -1    0    0    0    0 -0.00000000000E+00 -0.00000000000E+00 -0.45593999997E+02  0.45594000000E+02  0.51100000000E-03 0.  1.
         23    2    1    2    0    0 -0.27061686225E-15 -0.71054273576E-14  0.35527136788E-14  0.91188000000E+02  0.91188000000E+02 0.  0.
    9900012    2    3    3    0    0  0.39357760740E-01  0.32285629335E+02 -0.17703679502E+02  0.54367032081E+02  0.39999881234E+02 0.  0.
         12    1    3    3    0    0 -0.39357760740E-01 -0.32285629335E+02  0.17703679502E+02  0.36820967919E+02  0.00000000000E+00 0. -1.
         11    1    4    4    0    0  0.80996583032E+00  0.80147981938E+01 -0.13558638384E+01  0.81689290450E+01  0.51100000000E-03 0. -1.
        -11    1    4    4    0    0  0.50057879682E+01  0.31979304593E+02 -0.16966181140E+02  0.36545658267E+02  0.51100000000E-03 0.  1.
         12    1    4    4    0    0 -0.57763960378E+01 -0.77084734519E+01  0.61836547584E+00  0.96524447683E+01  0.00000000000E+00 0. -1.
</event>
<event>
 8    1  0.1240174E-006  0.9118800E+02  0.7816164E-02  0.1184000E+00
        -11   -1    0    0    0    0  0.00000000000E+00  0.00000000000E+00  0.45593999997E+02  0.45594000000E+02  0.51100000000E-03 0. -1.
         11   -1    0    0    0    0 -0.00000000000E+00 -0.00000000000E+00 -0.45593999997E+02  0.45594000000E+02  0.51100000000E-03 0.  1.
         23    2    1    2    0    0  0.00000000000E+00  0.00000000000E+00  0.00000000000E+00  0.91188000000E+02  0.91188000000E+02 0.  0.
    9900012    2    3    3    0    0  0.35899142004E+02  0.23868655521E+01 -0.78317413304E+01  0.54367059001E+02  0.39999942604E+02 0.  0.
        -12    1    3    3    0    0 -0.35899142004E+02 -0.23868655521E+01  0.78317413304E+01  0.36820940999E+02  0.00000000000E+00 0.  1.
         11    1    4    4    0    0  0.63440632002E+01 -0.11801515556E+02  0.51543236795E+01  0.14355833663E+02  0.51100000000E-03 0. -1.
        -11    1    4    4    0    0  0.42251370834E+01  0.10564417565E+02 -0.13790822783E+00  0.11378827743E+02  0.51100000000E-03 0.  1.
        -12    1    4    4    0    0  0.25329941721E+02  0.36239635430E+01 -0.12848156782E+02  0.28632397595E+02  0.00000000000E+00 0.  1.
</event>
<event>
 8    1  0.1240174E-006  0.9118800E+02  0.7816164E-02  0.1184000E+00
        -11   -1    0    0    0    0  0.00000000000E+00  0.00000000000E+00  0.45593999997E+02  0.45594000000E+02  0.51100000000E-03 0.  1.
         11   -1    0    0    0    0 -0.00000000000E+00 -0.00000000000E+00 -0.45593999997E+02  0.45594000000E+02  0.51100000000E-03 0. -1.
         23    2    1    2    0    0  0.00000000000E+00 -0.22204460493E-15 -0.35527136788E-14  0.91188000000E+02  0.91188000000E+02 0.  0.
    9900012    2    3    3    0    0  0.33928158991E+02  0.18997875048E+01  0.14179259253E+02  0.54367074454E+02  0.39999977832E+02 0.  0.
         12    1    3    3    0    0 -0.33928158991E+02 -0.18997875048E+01 -0.14179259253E+02  0.36820925546E+02  0.00000000000E+00 0. -1.
         11    1    4    4    0    0  0.57861159524E+01  0.17078622881E+01  0.19332610022E+01  0.63350950880E+01  0.51100000000E-03 0. -1.
        -11    1    4    4    0    0  0.31924687889E+02  0.10284675174E+02  0.15247509280E+02  0.36843544614E+02  0.51100000000E-03 0.  1.
         12    1    4    4    0    0 -0.37826448496E+01 -0.10092749957E+02 -0.30015110284E+01  0.11188434752E+02  0.00000000000E+00 0. -1.
</event>
<event>
 8    1  0.1240174E-006  0.9118800E+02  0.7816164E-02  0.1184000E+00
        -11   -1    0    0    0    0  0.00000000000E+00  0.00000000000E+00  0.45593999997E+02  0.45594000000E+02  0.51100000000E-03 0.  1.
         11   -1    0    0    0    0 -0.00000000000E+00 -0.00000000000E+00 -0.45593999997E+02  0.45594000000E+02  0.51100000000E-03 0. -1.
         23    2    1    2    0    0 -0.35527136788E-14  0.17763568394E-14  0.00000000000E+00  0.91188000000E+02  0.91188000000E+02 0.  0.
    9900012    2    3    3    0    0 -0.29165157688E+02 -0.15625517825E+02  0.16155993053E+02  0.54367090970E+02  0.40000015483E+02 0.  0.
         12    1    3    3    0    0  0.29165157688E+02  0.15625517825E+02 -0.16155993053E+02  0.36820909030E+02  0.00000000000E+00 0. -1.
         11    1    4    4    0    0 -0.59041233798E+01 -0.20282027475E+02 -0.44099459224E+01  0.21579317289E+02  0.51100000000E-03 0. -1.
        -11    1    4    4    0    0 -0.16206875561E+02  0.24786141175E+01  0.80697558732E+01  0.18273677887E+02  0.51100000000E-03 0.  1.
         12    1    4    4    0    0 -0.70541587472E+01  0.21778955319E+01  0.12496183102E+02  0.14514095793E+02  0.00000000000E+00 0. -1.
</event>
<event>
 8    1  0.1240174E-006  0.9118800E+02  0.7816164E-02  0.1184000E+00
        -11   -1    0    0    0    0  0.00000000000E+00  0.00000000000E+00  0.45593999997E+02  0.45594000000E+02  0.51100000000E-03 0.  1.
         11   -1    0    0    0    0 -0.00000000000E+00 -0.00000000000E+00 -0.45593999997E+02  0.45594000000E+02  0.51100000000E-03 0. -1.
         23    2    1    2    0    0  0.22204460493E-15  0.17763568394E-14  0.00000000000E+00  0.91188000000E+02  0.91188000000E+02 0.  0.
    9900012    2    3    3    0    0 -0.13985462346E+01  0.81983578621E+01  0.35869375185E+02  0.54367067375E+02  0.39999961694E+02 0.  0.
         12    1    3    3    0    0  0.13985462346E+01 -0.81983578621E+01 -0.35869375185E+02  0.36820932625E+02  0.00000000000E+00 0. -1.
         11    1    4    4    0    0 -0.15506265443E+01  0.11783734635E+02  0.96917232276E+01  0.15335916797E+02  0.51100000000E-03 0. -1.
        -11    1    4    4    0    0 -0.97632683925E+01  0.40548399685E+01  0.24134035213E+02  0.26347956141E+02  0.51100000000E-03 0.  1.
         12    1    4    4    0    0  0.99153487021E+01 -0.76402167409E+01  0.20436167451E+01  0.12683194437E+02  0.00000000000E+00 0. -1.
</event>
<event>
 8    1  0.1240174E-006  0.9118800E+02  0.7816164E-02  0.1184000E+00
        -11   -1    0    0    0    0  0.00000000000E+00  0.00000000000E+00  0.45593999997E+02  0.45594000000E+02  0.51100000000E-03 0.  1.
         11   -1    0    0    0    0 -0.00000000000E+00 -0.00000000000E+00 -0.45593999997E+02  0.45594000000E+02  0.51100000000E-03 0. -1.
         23    2    1    2    0    0 -0.17763568394E-14 -0.88817841970E-15 -0.71054273576E-14  0.91188000000E+02  0.91188000000E+02 0.  0.
    9900012    2    3    3    0    0 -0.10111597734E+02 -0.58604700758E+01 -0.34916848974E+02  0.54367138243E+02  0.40000123252E+02 0.  0.
        -12    1    3    3    0    0  0.10111597734E+02  0.58604700758E+01  0.34916848974E+02  0.36820861757E+02  0.00000000000E+00 0.  1.
         11    1    4    4    0    0 -0.14768325359E+02 -0.61622256069E+01 -0.66935657641E+01  0.17345900992E+02  0.51100000000E-03 0. -1.
        -11    1    4    4    0    0  0.38106239217E+01  0.10439303849E+02 -0.61139721951E+01  0.12683870694E+02  0.51100000000E-03 0.  1.
        -12    1    4    4    0    0  0.84610370314E+00 -0.10137548318E+02 -0.22109311015E+02  0.24337366557E+02  0.00000000000E+00 0.  1.
</event>
<event>
 8    1  0.1240174E-006  0.9118800E+02  0.7816164E-02  0.1184000E+00
        -11   -1    0    0    0    0  0.00000000000E+00  0.00000000000E+00  0.45593999997E+02  0.45594000000E+02  0.51100000000E-03 0. -1.
         11   -1    0    0    0    0 -0.00000000000E+00 -0.00000000000E+00 -0.45593999997E+02  0.45594000000E+02  0.51100000000E-03 0.  1.
         23    2    1    2    0    0  0.88817841970E-15 -0.88817841970E-15  0.00000000000E+00  0.91188000000E+02  0.91188000000E+02 0.  0.
    9900012    2    3    3    0    0 -0.78536851099E+01  0.44642938816E+01  0.35695526606E+02  0.54367069684E+02  0.39999966959E+02 0.  0.
        -12    1    3    3    0    0  0.78536851099E+01 -0.44642938816E+01 -0.35695526606E+02  0.36820930316E+02  0.00000000000E+00 0.  1.
         11    1    4    4    0    0 -0.90780626876E+01  0.15598110341E+02  0.29780659060E+02  0.34822405469E+02  0.51100000000E-03 0. -1.
        -11    1    4    4    0    0  0.29937199405E+01  0.12140593125E+01 -0.28429032309E+01  0.43033008421E+01  0.51100000000E-03 0.  1.
         12    1    4    4    0    0 -0.17693423627E+01 -0.12347875772E+02  0.87577707767E+01  0.15241363373E+02  0.00000000000E+00 0. -1.
</event>
<event>
 8    1  0.1240174E-006  0.9118800E+02  0.7816164E-02  0.1184000E+00
        -11   -1    0    0    0    0  0.00000000000E+00  0.00000000000E+00  0.45593999997E+02  0.45594000000E+02  0.51100000000E-03 0.  1.
         11   -1    0    0    0    0 -0.00000000000E+00 -0.00000000000E+00 -0.45593999997E+02  0.45594000000E+02  0.51100000000E-03 0. -1.
         23    2    1    2    0    0  0.35527136788E-14 -0.17763568394E-14  0.35527136788E-14  0.91188000000E+02  0.91188000000E+02 0.  0.
    9900012    2    3    3    0    0  0.17418386133E+02 -0.11511521535E+02  0.30329294698E+02  0.54367062744E+02  0.39999951138E+02 0.  0.
         12    1    3    3    0    0 -0.17418386133E+02  0.11511521535E+02 -0.30329294698E+02  0.36820937256E+02  0.00000000000E+00 0. -1.
         11    1    4    4    0    0  0.36492927347E+01  0.17032489309E+01 -0.53942422246E+01  0.67317340874E+01  0.51100000000E-03 0. -1.
        -11    1    4    4    0    0 -0.27873456038E+01  0.14998300761E+01 -0.21033052964E+01  0.38003525104E+01  0.51100000000E-03 0.  1.
        -12    1    4    4    0    0  0.16556439002E+02 -0.14714600542E+02  0.37826842219E+02  0.43834976147E+02  0.00000000000E+00 0.  1.
</event>
<event>
 8    1  0.1240174E-006  0.9118800E+02  0.7816164E-02  0.1184000E+00
        -11   -1    0    0    0    0  0.00000000000E+00  0.00000000000E+00  0.45593999997E+02  0.45594000000E+02  0.51100000000E-03 0.  1.
         11   -1    0    0    0    0 -0.00000000000E+00 -0.00000000000E+00 -0.45593999997E+02  0.45594000000E+02  0.51100000000E-03 0. -1.
         23    2    1    2    0    0  0.00000000000E+00  0.00000000000E+00  0.11102230246E-15  0.91188000000E+02  0.91188000000E+02 0.  0.
    9900012    2    3    3    0    0 -0.17410522104E+02  0.32440501089E+02  0.51700777576E+00  0.54367086270E+02  0.40000004771E+02 0.  0.
        -12    1    3    3    0    0  0.17410522104E+02 -0.32440501089E+02 -0.51700777576E+00  0.36820913730E+02  0.00000000000E+00 0.  1.
         11    1    4    4    0    0 -0.14835687919E+01  0.67260997820E+01 -0.86864365622E+01  0.11085827666E+02  0.51100000000E-03 0. -1.
        -11    1    4    4    0    0 -0.10107419375E+02  0.30396072794E+02  0.13390587754E+02  0.34718712654E+02  0.51100000000E-03 0.  1.
        -12    1    4    4    0    0 -0.58195339372E+01 -0.46816714869E+01 -0.41871434157E+01  0.85625459497E+01  0.00000000000E+00 0.  1.
</event>
<event>
 8    1  0.1240174E-006  0.9118800E+02  0.7816164E-02  0.1184000E+00
        -11   -1    0    0    0    0  0.00000000000E+00  0.00000000000E+00  0.45593999997E+02  0.45594000000E+02  0.51100000000E-03 0.  1.
         11   -1    0    0    0    0 -0.00000000000E+00 -0.00000000000E+00 -0.45593999997E+02  0.45594000000E+02  0.51100000000E-03 0. -1.
         23    2    1    2    0    0  0.44408920985E-15  0.13322676296E-14  0.71054273576E-14  0.91188000000E+02  0.91188000000E+02 0.  0.
    9900012    2    3    3    0    0 -0.31610947893E+01 -0.12335968540E+01 -0.36664230363E+02  0.54367081088E+02  0.39999992956E+02 0.  0.
        -12    1    3    3    0    0  0.31610947893E+01  0.12335968540E+01  0.36664230363E+02  0.36820918912E+02  0.00000000000E+00 0.  1.
         11    1    4    4    0    0 -0.56008292066E+00 -0.16300411317E+02 -0.22042449535E+02  0.27420552214E+02  0.51100000000E-03 0. -1.
        -11    1    4    4    0    0  0.11722735824E+01 -0.53637116244E+00 -0.10220054773E+02  0.10301040685E+02  0.51100000000E-03 0.  1.
        -12    1    4    4    0    0 -0.37732854510E+01  0.15603185625E+02 -0.44017260548E+01  0.16645488188E+02  0.00000000000E+00 0.  1.
</event>
<event>
 8    1  0.1240174E-006  0.9118800E+02  0.7816164E-02  0.1184000E+00
        -11   -1    0    0    0    0  0.00000000000E+00  0.00000000000E+00  0.45593999997E+02  0.45594000000E+02  0.51100000000E-03 0. -1.
         11   -1    0    0    0    0 -0.00000000000E+00 -0.00000000000E+00 -0.45593999997E+02  0.45594000000E+02  0.51100000000E-03 0.  1.
         23    2    1    2    0    0  0.35527136788E-14 -0.17763568394E-14  0.35527136788E-14  0.91188000000E+02  0.91188000000E+02 0.  0.
    9900012    2    3    3    0    0  0.20850551893E+02 -0.10252789972E+02  0.28564216563E+02  0.54367086319E+02  0.40000004881E+02 0.  0.
        -12    1    3    3    0    0 -0.20850551893E+02  0.10252789972E+02 -0.28564216563E+02  0.36820913681E+02  0.00000000000E+00 0.  1.
         11    1    4    4    0    0  0.10468849571E+02 -0.13806020322E+02  0.19556266894E+02  0.26127582812E+02  0.51100000000E-03 0. -1.
        -11    1    4    4    0    0  0.86507639512E+01  0.13799261213E+02  0.65986681085E+01  0.17572642033E+02  0.51100000000E-03 0.  1.
        -12    1    4    4    0    0  0.17309383702E+01 -0.10246030862E+02  0.24092815612E+01  0.10666861474E+02  0.00000000000E+00 0.  1.
</event>
<event>
 8    1  0.1240174E-006  0.9118800E+02  0.7816164E-02  0.1184000E+00
        -11   -1    0    0    0    0  0.00000000000E+00  0.00000000000E+00  0.45593999997E+02  0.45594000000E+02  0.51100000000E-03 0. -1.
         11   -1    0    0    0    0 -0.00000000000E+00 -0.00000000000E+00 -0.45593999997E+02  0.45594000000E+02  0.51100000000E-03 0.  1.
         23    2    1    2    0    0  0.44408920985E-15  0.00000000000E+00  0.00000000000E+00  0.91188000000E+02  0.91188000000E+02 0.  0.
    9900012    2    3    3    0    0 -0.33192781201E+01  0.11154451061E+02 -0.34933321501E+02  0.54367131775E+02  0.40000108508E+02 0.  0.
         12    1    3    3    0    0  0.33192781201E+01 -0.11154451061E+02  0.34933321501E+02  0.36820868225E+02  0.00000000000E+00 0. -1.
         11    1    4    4    0    0  0.59599733647E+01 -0.25458821454E+00  0.25143765432E+01  0.64736533216E+01  0.51100000000E-03 0. -1.
        -11    1    4    4    0    0 -0.17841215432E+01 -0.55212562165E+01  0.34127495333E+00  0.58123858048E+01  0.51100000000E-03 0.  1.
        -12    1    4    4    0    0 -0.74951299416E+01  0.16930295492E+02 -0.37788972998E+02  0.42081092649E+02  0.00000000000E+00 0.  1.
</event>
<event>
 8    1  0.1240174E-006  0.9118800E+02  0.7816164E-02  0.1184000E+00
        -11   -1    0    0    0    0  0.00000000000E+00  0.00000000000E+00  0.45593999997E+02  0.45594000000E+02  0.51100000000E-03 0. -1.
         11   -1    0    0    0    0 -0.00000000000E+00 -0.00000000000E+00 -0.45593999997E+02  0.45594000000E+02  0.51100000000E-03 0.  1.
         23    2    1    2    0    0  0.00000000000E+00 -0.71054273576E-14 -0.35527136788E-14  0.91188000000E+02  0.91188000000E+02 0.  0.
    9900012    2    3    3    0    0  0.12953898450E+02  0.31996493647E+02  0.12814070742E+02  0.54367088825E+02  0.40000010595E+02 0.  0.
        -12    1    3    3    0    0 -0.12953898450E+02 -0.31996493647E+02 -0.12814070742E+02  0.36820911175E+02  0.00000000000E+00 0.  1.
         11    1    4    4    0    0  0.35444807004E+01  0.84499618604E+01  0.18555219378E+02  0.20694476686E+02  0.51100000000E-03 0. -1.
        -11    1    4    4    0    0  0.15344296052E+02  0.10838480304E+02 -0.80379606907E+00  0.18803355153E+02  0.51100000000E-03 0.  1.
        -12    1    4    4    0    0 -0.59348783022E+01  0.12708051483E+02 -0.49373525676E+01  0.14869256987E+02  0.00000000000E+00 0.  1.
</event>
<event>
 8    1  0.1240174E-006  0.9118800E+02  0.7816164E-02  0.1184000E+00
        -11   -1    0    0    0    0  0.00000000000E+00  0.00000000000E+00  0.45593999997E+02  0.45594000000E+02  0.51100000000E-03 0.  1.
         11   -1    0    0    0    0 -0.00000000000E+00 -0.00000000000E+00 -0.45593999997E+02  0.45594000000E+02  0.51100000000E-03 0. -1.
         23    2    1    2    0    0  0.88817841970E-15  0.00000000000E+00  0.00000000000E+00  0.91188000000E+02  0.91188000000E+02 0.  0.
    9900012    2    3    3    0    0 -0.46860793398E+01  0.59424844708E+01  0.36034805944E+02  0.54367086097E+02  0.40000004375E+02 0.  0.
         12    1    3    3    0    0  0.46860793398E+01 -0.59424844708E+01 -0.36034805944E+02  0.36820913903E+02  0.00000000000E+00 0. -1.
         11    1    4    4    0    0 -0.84331217304E+00 -0.14484418506E+02  0.23686733414E+02  0.27777164992E+02  0.51100000000E-03 0. -1.
        -11    1    4    4    0    0  0.19898253614E+01  0.81399508084E+01  0.95480016211E+01  0.12703642759E+02  0.51100000000E-03 0.  1.
         12    1    4    4    0    0 -0.58325925282E+01  0.12286952169E+02  0.28000709083E+01  0.13886278346E+02  0.00000000000E+00 0. -1.
</event>
<event>
 8    1  0.1240174E-006  0.9118800E+02  0.7816164E-02  0.1184000E+00
        -11   -1    0    0    0    0  0.00000000000E+00  0.00000000000E+00  0.45593999997E+02  0.45594000000E+02  0.51100000000E-03 0. -1.
         11   -1    0    0    0    0 -0.00000000000E+00 -0.00000000000E+00 -0.45593999997E+02  0.45594000000E+02  0.51100000000E-03 0.  1.
         23    2    1    2    0    0  0.17763568394E-14  0.00000000000E+00  0.00000000000E+00  0.91188000000E+02  0.91188000000E+02 0.  0.
    9900012    2    3    3    0    0  0.64054075221E+01 -0.30259918141E+02 -0.19977142060E+02  0.54367107883E+02  0.40000054041E+02 0.  0.
         12    1    3    3    0    0 -0.64054075221E+01  0.30259918141E+02  0.19977142060E+02  0.36820892117E+02  0.00000000000E+00 0. -1.
         11    1    4    4    0    0 -0.82005393686E+01 -0.24615778838E+00  0.38267144266E+01  0.90527997413E+01  0.51100000000E-03 0. -1.
        -11    1    4    4    0    0  0.18156158115E+02 -0.19731966978E+02 -0.12360059112E+02  0.29525711843E+02  0.51100000000E-03 0.  1.
        -12    1    4    4    0    0 -0.35502112241E+01 -0.10281793375E+02 -0.11443797375E+02  0.15788596299E+02  0.00000000000E+00 0.  1.
</event>
<event>
 8    1  0.1240174E-006  0.9118800E+02  0.7816164E-02  0.1184000E+00
        -11   -1    0    0    0    0  0.00000000000E+00  0.00000000000E+00  0.45593999997E+02  0.45594000000E+02  0.51100000000E-03 0. -1.
         11   -1    0    0    0    0 -0.00000000000E+00 -0.00000000000E+00 -0.45593999997E+02  0.45594000000E+02  0.51100000000E-03 0.  1.
         23    2    1    2    0    0  0.00000000000E+00  0.35527136788E-14 -0.35527136788E-14  0.91188000000E+02  0.91188000000E+02 0.  0.
    9900012    2    3    3    0    0 -0.15966647732E+02  0.30994088934E+02 -0.11841077367E+02  0.54367102376E+02  0.40000041487E+02 0.  0.
        -12    1    3    3    0    0  0.15966647732E+02 -0.30994088934E+02  0.11841077367E+02  0.36820897624E+02  0.00000000000E+00 0.  1.
         11    1    4    4    0    0 -0.15704772873E+02  0.92747512719E+01 -0.24141639178E+00  0.18240591665E+02  0.51100000000E-03 0. -1.
        -11    1    4    4    0    0  0.24393600060E+01  0.24263445989E+00  0.71066511280E+01  0.75175687051E+01  0.51100000000E-03 0.  1.
        -12    1    4    4    0    0 -0.27012348650E+01  0.21476703202E+02 -0.18706312103E+02  0.28608942006E+02  0.00000000000E+00 0.  1.
</event>
<event>
 8    1  0.1240174E-006  0.9118800E+02  0.7816164E-02  0.1184000E+00
        -11   -1    0    0    0    0  0.00000000000E+00  0.00000000000E+00  0.45593999997E+02  0.45594000000E+02  0.51100000000E-03 0. -1.
         11   -1    0    0    0    0 -0.00000000000E+00 -0.00000000000E+00 -0.45593999997E+02  0.45594000000E+02  0.51100000000E-03 0.  1.
         23    2    1    2    0    0 -0.88817841970E-15  0.00000000000E+00  0.00000000000E+00  0.91188000000E+02  0.91188000000E+02 0.  0.
    9900012    2    3    3    0    0  0.60622023989E+01 -0.18103558287E+02  0.31484781413E+02  0.54367074140E+02  0.39999977117E+02 0.  0.
        -12    1    3    3    0    0 -0.60622023989E+01  0.18103558287E+02 -0.31484781413E+02  0.36820925860E+02  0.00000000000E+00 0.  1.
         11    1    4    4    0    0  0.13070878884E+02 -0.12724479458E+02  0.25244168146E+02  0.31145276976E+02  0.51100000000E-03 0. -1.
        -11    1    4    4    0    0 -0.12933715320E+02 -0.48404216240E+01  0.91832138033E+01  0.16584392949E+02  0.51100000000E-03 0.  1.
        -12    1    4    4    0    0  0.59250388353E+01 -0.53865720481E+00 -0.29426005370E+01  0.66374042143E+01  0.00000000000E+00 0.  1.
</event>
<event>
 8    1  0.1240174E-006  0.9118800E+02  0.7816164E-02  0.1184000E+00
        -11   -1    0    0    0    0  0.00000000000E+00  0.00000000000E+00  0.45593999997E+02  0.45594000000E+02  0.51100000000E-03 0. -1.
         11   -1    0    0    0    0 -0.00000000000E+00 -0.00000000000E+00 -0.45593999997E+02  0.45594000000E+02  0.51100000000E-03 0.  1.
         23    2    1    2    0    0 -0.71054273576E-14  0.17763568394E-14  0.17763568394E-14  0.91188000000E+02  0.91188000000E+02 0.  0.
    9900012    2    3    3    0    0  0.33425279746E+02  0.10457419577E+02 -0.11365455737E+02  0.54367074775E+02  0.39999978565E+02 0.  0.
        -12    1    3    3    0    0 -0.33425279746E+02 -0.10457419577E+02  0.11365455737E+02  0.36820925225E+02  0.00000000000E+00 0.  1.
         11    1    4    4    0    0  0.30529542389E+02  0.20608387458E+02 -0.17087652480E+02  0.40604759077E+02  0.51100000000E-03 0. -1.
        -11    1    4    4    0    0 -0.14118950464E+01 -0.62568730675E+01  0.44806703131E+01  0.78242133739E+01  0.51100000000E-03 0.  1.
         12    1    4    4    0    0  0.43076324031E+01 -0.38940948137E+01  0.12415264303E+01  0.59381023244E+01  0.00000000000E+00 0. -1.
</event>
<event>
 8    1  0.1240174E-006  0.9118800E+02  0.7816164E-02  0.1184000E+00
        -11   -1    0    0    0    0  0.00000000000E+00  0.00000000000E+00  0.45593999997E+02  0.45594000000E+02  0.51100000000E-03 0.  1.
         11   -1    0    0    0    0 -0.00000000000E+00 -0.00000000000E+00 -0.45593999997E+02  0.45594000000E+02  0.51100000000E-03 0. -1.
         23    2    1    2    0    0  0.00000000000E+00  0.00000000000E+00 -0.88817841970E-15  0.91188000000E+02  0.91188000000E+02 0.  0.
    9900012    2    3    3    0    0 -0.29882484381E+02 -0.20121983569E+02  0.76103911238E+01  0.54367147910E+02  0.40000145291E+02 0.  0.
        -12    1    3    3    0    0  0.29882484381E+02  0.20121983569E+02 -0.76103911238E+01  0.36820852090E+02  0.00000000000E+00 0.  1.
         11    1    4    4    0    0 -0.23547465275E+02 -0.14281566082E+02  0.49303888717E+01  0.27977758762E+02  0.51100000000E-03 0. -1.
        -11    1    4    4    0    0 -0.24697522199E+01 -0.81063650169E+01  0.12783362607E+02  0.15337118035E+02  0.51100000000E-03 0.  1.
         12    1    4    4    0    0 -0.38652668864E+01  0.22659475302E+01 -0.10103360355E+02  0.11052271114E+02  0.00000000000E+00 0. -1.
</event>
<event>
 8    1  0.1240174E-006  0.9118800E+02  0.7816164E-02  0.1184000E+00
        -11   -1    0    0    0    0  0.00000000000E+00  0.00000000000E+00  0.45593999997E+02  0.45594000000E+02  0.51100000000E-03 0.  1.
         11   -1    0    0    0    0 -0.00000000000E+00 -0.00000000000E+00 -0.45593999997E+02  0.45594000000E+02  0.51100000000E-03 0. -1.
         23    2    1    2    0    0  0.00000000000E+00  0.74940054162E-15  0.71054273576E-14  0.91188000000E+02  0.91188000000E+02 0.  0.
    9900012    2    3    3    0    0  0.61490514378E+01 -0.19679855372E+00  0.36303310198E+02  0.54367083463E+02  0.39999998372E+02 0.  0.
         12    1    3    3    0    0 -0.61490514378E+01  0.19679855372E+00 -0.36303310198E+02  0.36820916537E+02  0.00000000000E+00 0. -1.
         11    1    4    4    0    0 -0.11367542689E+02 -0.58777661022E+01  0.19039182355E+01  0.12938085873E+02  0.51100000000E-03 0. -1.
        -11    1    4    4    0    0  0.10903533471E+02  0.99517145376E+01  0.26130175881E+02  0.30011826939E+02  0.51100000000E-03 0.  1.
         12    1    4    4    0    0  0.66130606562E+01 -0.42707469891E+01  0.82692160818E+01  0.11417170652E+02  0.00000000000E+00 0. -1.
</event>
<event>
 8    1  0.1240174E-006  0.9118800E+02  0.7816164E-02  0.1184000E+00
        -11   -1    0    0    0    0  0.00000000000E+00  0.00000000000E+00  0.45593999997E+02  0.45594000000E+02  0.51100000000E-03 0.  1.
         11   -1    0    0    0    0 -0.00000000000E+00 -0.00000000000E+00 -0.45593999997E+02  0.45594000000E+02  0.51100000000E-03 0. -1.
         23    2    1    2    0    0  0.00000000000E+00 -0.25535129566E-14  0.00000000000E+00  0.91188000000E+02  0.91188000000E+02 0.  0.
    9900012    2    3    3    0    0 -0.34822797724E+02  0.35102174328E+00  0.11959662236E+02  0.54367028009E+02  0.39999871951E+02 0.  0.
        -12    1    3    3    0    0  0.34822797724E+02 -0.35102174328E+00 -0.11959662236E+02  0.36820971991E+02  0.00000000000E+00 0.  1.
         11    1    4    4    0    0 -0.21954987415E+02 -0.15648027015E+02 -0.46644019645E+01  0.27361265830E+02  0.51100000000E-03 0. -1.
        -11    1    4    4    0    0 -0.93671904788E+01  0.74209107131E+01  0.82935629755E+01  0.14546386506E+02  0.51100000000E-03 0.  1.
         12    1    4    4    0    0 -0.35006198300E+01  0.85781380453E+01  0.83305012249E+01  0.12459375674E+02  0.00000000000E+00 0. -1.
</event>
<event>
 8    1  0.1240174E-006  0.9118800E+02  0.7816164E-02  0.1184000E+00
        -11   -1    0    0    0    0  0.00000000000E+00  0.00000000000E+00  0.45593999997E+02  0.45594000000E+02  0.51100000000E-03 0.  1.
         11   -1    0    0    0    0 -0.00000000000E+00 -0.00000000000E+00 -0.45593999997E+02  0.45594000000E+02  0.51100000000E-03 0. -1.
         23    2    1    2    0    0  0.00000000000E+00  0.35527136788E-14 -0.17763568394E-14  0.91188000000E+02  0.91188000000E+02 0.  0.
    9900012    2    3    3    0    0  0.26808623526E+02 -0.23016875640E+02  0.10358525680E+02  0.54367110360E+02  0.40000059688E+02 0.  0.
        -12    1    3    3    0    0 -0.26808623526E+02  0.23016875640E+02 -0.10358525680E+02  0.36820889640E+02  0.00000000000E+00 0.  1.
         11    1    4    4    0    0 -0.45369956943E+01 -0.55026638731E+01  0.15346383723E+01  0.72951185614E+01  0.51100000000E-03 0. -1.
        -11    1    4    4    0    0  0.17923864572E+02 -0.24937390214E+01  0.17468305823E+02  0.25152044928E+02  0.51100000000E-03 0.  1.
         12    1    4    4    0    0  0.13421754649E+02 -0.15020472745E+02 -0.86444185151E+01  0.21919946871E+02  0.00000000000E+00 0. -1.
</event>
<event>
 8    1  0.1240174E-006  0.9118800E+02  0.7816164E-02  0.1184000E+00
        -11   -1    0    0    0    0  0.00000000000E+00  0.00000000000E+00  0.45593999997E+02  0.45594000000E+02  0.51100000000E-03 0. -1.
         11   -1    0    0    0    0 -0.00000000000E+00 -0.00000000000E+00 -0.45593999997E+02  0.45594000000E+02  0.51100000000E-03 0.  1.
         23    2    1    2    0    0 -0.35527136788E-14  0.00000000000E+00  0.00000000000E+00  0.91188000000E+02  0.91188000000E+02 0.  0.
    9900012    2    3    3    0    0 -0.23430039876E+02 -0.21236524106E+02 -0.18863249058E+02  0.54367097109E+02  0.40000029480E+02 0.  0.
         12    1    3    3    0    0  0.23430039876E+02  0.21236524106E+02  0.18863249058E+02  0.36820902891E+02  0.00000000000E+00 0. -1.
         11    1    4    4    0    0 -0.98851067254E+01 -0.18805892387E+02 -0.11275616843E+02  0.24052369091E+02  0.51100000000E-03 0. -1.
        -11    1    4    4    0    0 -0.20833093847E+02 -0.45113270911E+00 -0.20272197263E+01  0.20936354507E+02  0.51100000000E-03 0.  1.
         12    1    4    4    0    0  0.72881606968E+01 -0.19794990101E+01 -0.55604124888E+01  0.93783735113E+01  0.00000000000E+00 0. -1.
</event>
<event>
 8    1  0.1240174E-006  0.9118800E+02  0.7816164E-02  0.1184000E+00
        -11   -1    0    0    0    0  0.00000000000E+00  0.00000000000E+00  0.45593999997E+02  0.45594000000E+02  0.51100000000E-03 0. -1.
         11   -1    0    0    0    0 -0.00000000000E+00 -0.00000000000E+00 -0.45593999997E+02  0.45594000000E+02  0.51100000000E-03 0.  1.
         23    2    1    2    0    0  0.00000000000E+00  0.00000000000E+00  0.44408920985E-15  0.91188000000E+02  0.91188000000E+02 0.  0.
    9900012    2    3    3    0    0 -0.26439096822E+02  0.25567632739E+02  0.17482201183E+01  0.54367001124E+02  0.39999810662E+02 0.  0.
        -12    1    3    3    0    0  0.26439096822E+02 -0.25567632739E+02 -0.17482201183E+01  0.36820998876E+02  0.00000000000E+00 0.  1.
         11    1    4    4    0    0 -0.10604780945E+02  0.95064368855E+01 -0.10175901078E+01  0.14278277593E+02  0.51100000000E-03 0. -1.
        -11    1    4    4    0    0 -0.18995272676E+02  0.17190793420E+02 -0.95365804242E+01  0.27336607853E+02  0.51100000000E-03 0.  1.
        -12    1    4    4    0    0  0.31609567984E+01 -0.11295975671E+01  0.12302390650E+02  0.12752115678E+02  0.00000000000E+00 0.  1.
</event>
<event>
 8    1  0.1240174E-006  0.9118800E+02  0.7816164E-02  0.1184000E+00
        -11   -1    0    0    0    0  0.00000000000E+00  0.00000000000E+00  0.45593999997E+02  0.45594000000E+02  0.51100000000E-03 0. -1.
         11   -1    0    0    0    0 -0.00000000000E+00 -0.00000000000E+00 -0.45593999997E+02  0.45594000000E+02  0.51100000000E-03 0.  1.
         23    2    1    2    0    0  0.17763568394E-14  0.00000000000E+00  0.00000000000E+00  0.91188000000E+02  0.91188000000E+02 0.  0.
    9900012    2    3    3    0    0  0.10835468128E+02  0.22735497111E+02 -0.26860174001E+02  0.54367093631E+02  0.40000021551E+02 0.  0.
         12    1    3    3    0    0 -0.10835468128E+02 -0.22735497111E+02  0.26860174001E+02  0.36820906369E+02  0.00000000000E+00 0. -1.
         11    1    4    4    0    0  0.34507023737E+00 -0.53398350027E+01 -0.16917775238E+01  0.56120426563E+01  0.51100000000E-03 0. -1.
        -11    1    4    4    0    0  0.33198673177E+01  0.31705873199E+02 -0.25328364161E+02  0.40716212320E+02  0.51100000000E-03 0.  1.
        -12    1    4    4    0    0  0.71705305725E+01 -0.36305410848E+01  0.15996768378E+00  0.80388386549E+01  0.00000000000E+00 0.  1.
</event>
<event>
 8    1  0.1240174E-006  0.9118800E+02  0.7816164E-02  0.1184000E+00
        -11   -1    0    0    0    0  0.00000000000E+00  0.00000000000E+00  0.45593999997E+02  0.45594000000E+02  0.51100000000E-03 0. -1.
         11   -1    0    0    0    0 -0.00000000000E+00 -0.00000000000E+00 -0.45593999997E+02  0.45594000000E+02  0.51100000000E-03 0.  1.
         23    2    1    2    0    0  0.00000000000E+00  0.00000000000E+00 -0.17763568394E-14  0.91188000000E+02  0.91188000000E+02 0.  0.
    9900012    2    3    3    0    0  0.31127547341E+02 -0.17104726046E+02  0.97099634521E+01  0.54367092260E+02  0.40000018425E+02 0.  0.
        -12    1    3    3    0    0 -0.31127547341E+02  0.17104726046E+02 -0.97099634521E+01  0.36820907740E+02  0.00000000000E+00 0.  1.
         11    1    4    4    0    0  0.15069859250E+02 -0.15213767015E+02  0.64748645652E+01  0.22371482651E+02  0.51100000000E-03 0. -1.
        -11    1    4    4    0    0  0.19547230396E+01  0.71240245351E+01  0.11233339041E+02  0.13444722905E+02  0.51100000000E-03 0.  1.
         12    1    4    4    0    0  0.14102965051E+02 -0.90149835657E+01 -0.79982401537E+01  0.18550886703E+02  0.00000000000E+00 0. -1.
</event>
<event>
 8    1  0.1240174E-006  0.9118800E+02  0.7816164E-02  0.1184000E+00
        -11   -1    0    0    0    0  0.00000000000E+00  0.00000000000E+00  0.45593999997E+02  0.45594000000E+02  0.51100000000E-03 0.  1.
         11   -1    0    0    0    0 -0.00000000000E+00 -0.00000000000E+00 -0.45593999997E+02  0.45594000000E+02  0.51100000000E-03 0. -1.
         23    2    1    2    0    0  0.00000000000E+00 -0.35527136788E-14  0.00000000000E+00  0.91188000000E+02  0.91188000000E+02 0.  0.
    9900012    2    3    3    0    0 -0.12935369686E+02  0.27788837035E+02 -0.20401851696E+02  0.54367098256E+02  0.40000032093E+02 0.  0.
        -12    1    3    3    0    0  0.12935369686E+02 -0.27788837035E+02  0.20401851696E+02  0.36820901744E+02  0.00000000000E+00 0.  1.
         11    1    4    4    0    0 -0.69860411543E+01  0.16467945049E+02 -0.16891535527E+02  0.24603291607E+02  0.51100000000E-03 0. -1.
        -11    1    4    4    0    0 -0.15190798438E+02  0.60426651009E+00 -0.35541645051E+01  0.15612737774E+02  0.51100000000E-03 0.  1.
        -12    1    4    4    0    0  0.92414699068E+01  0.10716625476E+02  0.43848336929E-01  0.14151068875E+02  0.00000000000E+00 0.  1.
</event>
<event>
 8    1  0.1240174E-006  0.9118800E+02  0.7816164E-02  0.1184000E+00
        -11   -1    0    0    0    0  0.00000000000E+00  0.00000000000E+00  0.45593999997E+02  0.45594000000E+02  0.51100000000E-03 0.  1.
         11   -1    0    0    0    0 -0.00000000000E+00 -0.00000000000E+00 -0.45593999997E+02  0.45594000000E+02  0.51100000000E-03 0. -1.
         23    2    1    2    0    0  0.00000000000E+00  0.35527136788E-14  0.00000000000E+00  0.91188000000E+02  0.91188000000E+02 0.  0.
    9900012    2    3    3    0    0  0.38058756329E+01 -0.10794805008E+02  0.34996668753E+02  0.54367091154E+02  0.40000015903E+02 0.  0.
         12    1    3    3    0    0 -0.38058756329E+01  0.10794805008E+02 -0.34996668753E+02  0.36820908846E+02  0.00000000000E+00 0. -1.
         11    1    4    4    0    0  0.29374503222E+01  0.14116647877E+02  0.65646427778E+01  0.15843070938E+02  0.51100000000E-03 0. -1.
        -11    1    4    4    0    0  0.16841206312E+01 -0.19734554547E+02  0.17622958411E+02  0.26511461085E+02  0.51100000000E-03 0.  1.
         12    1    4    4    0    0 -0.81569532054E+00 -0.51768983376E+01  0.10809067564E+02  0.12012559130E+02  0.00000000000E+00 0. -1.
</event>
<event>
 8    1  0.1240174E-006  0.9118800E+02  0.7816164E-02  0.1184000E+00
        -11   -1    0    0    0    0  0.00000000000E+00  0.00000000000E+00  0.45593999997E+02  0.45594000000E+02  0.51100000000E-03 0.  1.
         11   -1    0    0    0    0 -0.00000000000E+00 -0.00000000000E+00 -0.45593999997E+02  0.45594000000E+02  0.51100000000E-03 0. -1.
         23    2    1    2    0    0  0.00000000000E+00  0.00000000000E+00  0.88817841970E-15  0.91188000000E+02  0.91188000000E+02 0.  0.
    9900012    2    3    3    0    0  0.35312421927E+02 -0.86974681802E+01 -0.57589214692E+01  0.54367105502E+02  0.40000048613E+02 0.  0.
         12    1    3    3    0    0 -0.35312421927E+02  0.86974681802E+01  0.57589214692E+01  0.36820894498E+02  0.00000000000E+00 0. -1.
         11    1    4    4    0    0  0.29371768749E+01  0.12462154955E+02  0.53090129039E+01  0.13860661326E+02  0.51100000000E-03 0. -1.
        -11    1    4    4    0    0  0.16793447057E+02 -0.10940997891E+02 -0.32751404070E+01  0.20308910455E+02  0.51100000000E-03 0.  1.
         12    1    4    4    0    0  0.15581797996E+02 -0.10218625244E+02 -0.77927939661E+01  0.20197533722E+02  0.00000000000E+00 0. -1.
</event>
<event>
 8    1  0.1240174E-006  0.9118800E+02  0.7816164E-02  0.1184000E+00
        -11   -1    0    0    0    0  0.00000000000E+00  0.00000000000E+00  0.45593999997E+02  0.45594000000E+02  0.51100000000E-03 0.  1.
         11   -1    0    0    0    0 -0.00000000000E+00 -0.00000000000E+00 -0.45593999997E+02  0.45594000000E+02  0.51100000000E-03 0. -1.
         23    2    1    2    0    0  0.00000000000E+00  0.35527136788E-14  0.35527136788E-14  0.91188000000E+02  0.91188000000E+02 0.  0.
    9900012    2    3    3    0    0  0.19795634985E+02 -0.22113594419E+02 -0.21792235967E+02  0.54367085141E+02  0.40000002196E+02 0.  0.
        -12    1    3    3    0    0 -0.19795634985E+02  0.22113594419E+02  0.21792235967E+02  0.36820914859E+02  0.00000000000E+00 0.  1.
         11    1    4    4    0    0  0.18149075341E+02  0.65327253194E+01 -0.66870536665E+01  0.20415242414E+02  0.51100000000E-03 0. -1.
        -11    1    4    4    0    0 -0.23800364569E+01 -0.24275624104E+02 -0.11197442012E+02  0.26839396548E+02  0.51100000000E-03 0.  1.
         12    1    4    4    0    0  0.40265961013E+01 -0.43706956341E+01 -0.39077402884E+01  0.71124461791E+01  0.00000000000E+00 0. -1.
</event>
<event>
 8    1  0.1240174E-006  0.9118800E+02  0.7816164E-02  0.1184000E+00
        -11   -1    0    0    0    0  0.00000000000E+00  0.00000000000E+00  0.45593999997E+02  0.45594000000E+02  0.51100000000E-03 0. -1.
         11   -1    0    0    0    0 -0.00000000000E+00 -0.00000000000E+00 -0.45593999997E+02  0.45594000000E+02  0.51100000000E-03 0.  1.
         23    2    1    2    0    0  0.00000000000E+00 -0.17763568394E-14  0.00000000000E+00  0.91188000000E+02  0.91188000000E+02 0.  0.
    9900012    2    3    3    0    0 -0.32463238641E+02  0.14217125738E+02  0.99894395502E+01  0.54367116933E+02  0.40000074671E+02 0.  0.
        -12    1    3    3    0    0  0.32463238641E+02 -0.14217125738E+02 -0.99894395502E+01  0.36820883067E+02  0.00000000000E+00 0.  1.
         11    1    4    4    0    0 -0.14475958119E+02  0.62235600405E+01  0.13320034605E+02  0.20632726072E+02  0.51100000000E-03 0. -1.
        -11    1    4    4    0    0 -0.16288346968E+02  0.22009592263E+01 -0.13924215038E+02  0.21541546675E+02  0.51100000000E-03 0.  1.
        -12    1    4    4    0    0 -0.16989335539E+01  0.57926064715E+01  0.10593619984E+02  0.12192844185E+02  0.00000000000E+00 0.  1.
</event>
<event>
 8    1  0.1240174E-006  0.9118800E+02  0.7816164E-02  0.1184000E+00
        -11   -1    0    0    0    0  0.00000000000E+00  0.00000000000E+00  0.45593999997E+02  0.45594000000E+02  0.51100000000E-03 0.  1.
         11   -1    0    0    0    0 -0.00000000000E+00 -0.00000000000E+00 -0.45593999997E+02  0.45594000000E+02  0.51100000000E-03 0. -1.
         23    2    1    2    0    0  0.00000000000E+00  0.17763568394E-14 -0.10658141036E-13  0.91188000000E+02  0.91188000000E+02 0.  0.
    9900012    2    3    3    0    0 -0.20464468714E+02 -0.14398247753E+02  0.27012532287E+02  0.54367069558E+02  0.39999966671E+02 0.  0.
         12    1    3    3    0    0  0.20464468714E+02  0.14398247753E+02 -0.27012532287E+02  0.36820930442E+02  0.00000000000E+00 0. -1.
         11    1    4    4    0    0 -0.13667054538E+02 -0.20790536479E+01  0.24621867373E+01  0.14041837757E+02  0.51100000000E-03 0. -1.
        -11    1    4    4    0    0  0.78384911837E+01 -0.65615165408E+01 -0.10537118088E+01  0.10276465939E+02  0.51100000000E-03 0.  1.
         12    1    4    4    0    0 -0.14635905360E+02 -0.57576775643E+01  0.25604057358E+02  0.30048765862E+02  0.00000000000E+00 0. -1.
</event>
<event>
 8    1  0.1240174E-006  0.9118800E+02  0.7816164E-02  0.1184000E+00
        -11   -1    0    0    0    0  0.00000000000E+00  0.00000000000E+00  0.45593999997E+02  0.45594000000E+02  0.51100000000E-03 0. -1.
         11   -1    0    0    0    0 -0.00000000000E+00 -0.00000000000E+00 -0.45593999997E+02  0.45594000000E+02  0.51100000000E-03 0.  1.
         23    2    1    2    0    0  0.00000000000E+00 -0.17763568394E-14  0.35527136788E-14  0.91188000000E+02  0.91188000000E+02 0.  0.
    9900012    2    3    3    0    0  0.17115973927E+02  0.14838562796E+02 -0.29028263970E+02  0.54367087214E+02  0.40000006921E+02 0.  0.
         12    1    3    3    0    0 -0.17115973927E+02 -0.14838562796E+02  0.29028263970E+02  0.36820912786E+02  0.00000000000E+00 0. -1.
         11    1    4    4    0    0  0.21654832126E+02  0.15689954614E+02 -0.30362063879E+02  0.40459379054E+02  0.51100000000E-03 0.  1.
        -11    1    4    4    0    0 -0.90474562390E+01  0.15382723625E+00  0.19234284748E+01  0.92509299302E+01  0.51100000000E-03 0. -1.
        -12    1    4    4    0    0  0.45085980399E+01 -0.10052190537E+01 -0.58962856505E+00  0.46567782293E+01  0.00000000000E+00 0.  1.
</event>
<event>
 8    1  0.1240174E-006  0.9118800E+02  0.7816164E-02  0.1184000E+00
        -11   -1    0    0    0    0  0.00000000000E+00  0.00000000000E+00  0.45593999997E+02  0.45594000000E+02  0.51100000000E-03 0.  1.
         11   -1    0    0    0    0 -0.00000000000E+00 -0.00000000000E+00 -0.45593999997E+02  0.45594000000E+02  0.51100000000E-03 0. -1.
         23    2    1    2    0    0  0.35527136788E-14 -0.66613381478E-15 -0.35527136788E-14  0.91188000000E+02  0.91188000000E+02 0.  0.
    9900012    2    3    3    0    0  0.30670432127E+02  0.18635473611E+01  0.20288687002E+02  0.54367095124E+02  0.40000024955E+02 0.  0.
         12    1    3    3    0    0 -0.30670432127E+02 -0.18635473611E+01 -0.20288687002E+02  0.36820904876E+02  0.00000000000E+00 0. -1.
         11    1    4    4    0    0  0.11178440842E+02  0.76672357376E+01  0.51226139786E+00  0.13564897918E+02  0.51100000000E-03 0. -1.
        -11    1    4    4    0    0  0.13907213946E+01  0.65494310019E+01  0.17539007851E+02  0.18773543861E+02  0.51100000000E-03 0.  1.
        -12    1    4    4    0    0  0.18101269890E+02 -0.12353119378E+02  0.22374177529E+01  0.22028653346E+02  0.00000000000E+00 0.  1.
</event>
<event>
 8    1  0.1240174E-006  0.9118800E+02  0.7816164E-02  0.1184000E+00
        -11   -1    0    0    0    0  0.00000000000E+00  0.00000000000E+00  0.45593999997E+02  0.45594000000E+02  0.51100000000E-03 0. -1.
         11   -1    0    0    0    0 -0.00000000000E+00 -0.00000000000E+00 -0.45593999997E+02  0.45594000000E+02  0.51100000000E-03 0.  1.
         23    2    1    2    0    0 -0.44408920985E-15  0.00000000000E+00  0.00000000000E+00  0.91188000000E+02  0.91188000000E+02 0.  0.
    9900012    2    3    3    0    0 -0.86426558348E+00 -0.36210902837E+02 -0.66184147400E+01  0.54367084029E+02  0.39999999662E+02 0.  0.
         12    1    3    3    0    0  0.86426558348E+00  0.36210902837E+02  0.66184147400E+01  0.36820915971E+02  0.00000000000E+00 0. -1.
         11    1    4    4    0    0 -0.99117170815E+01 -0.21819936401E+02 -0.70038147207E+01  0.24968083245E+02  0.51100000000E-03 0.  1.
        -11    1    4    4    0    0  0.36916667143E+01  0.33169179310E+01  0.79827113099E+01  0.93996823249E+01  0.51100000000E-03 0. -1.
         12    1    4    4    0    0  0.53557847837E+01 -0.17707884367E+02 -0.75973113291E+01  0.19999318459E+02  0.00000000000E+00 0. -1.
</event>
<event>
 8    1  0.1240174E-006  0.9118800E+02  0.7816164E-02  0.1184000E+00
        -11   -1    0    0    0    0  0.00000000000E+00  0.00000000000E+00  0.45593999997E+02  0.45594000000E+02  0.51100000000E-03 0.  1.
         11   -1    0    0    0    0 -0.00000000000E+00 -0.00000000000E+00 -0.45593999997E+02  0.45594000000E+02  0.51100000000E-03 0. -1.
         23    2    1    2    0    0  0.00000000000E+00 -0.35527136788E-14  0.00000000000E+00  0.91188000000E+02  0.91188000000E+02 0.  0.
    9900012    2    3    3    0    0  0.73920523943E+01  0.26067833251E+02 -0.24932031382E+02  0.54367074457E+02  0.39999977839E+02 0.  0.
        -12    1    3    3    0    0 -0.73920523943E+01 -0.26067833251E+02  0.24932031382E+02  0.36820925543E+02  0.00000000000E+00 0.  1.
         11    1    4    4    0    0  0.15709996747E+02  0.18996125726E+01 -0.70984474304E+01  0.17343600604E+02  0.51100000000E-03 0. -1.
        -11    1    4    4    0    0 -0.38326274029E-01  0.62401873975E+01 -0.16020368161E+02  0.17192835831E+02  0.51100000000E-03 0.  1.
        -12    1    4    4    0    0 -0.82796180786E+01  0.17928033281E+02 -0.18132157912E+01  0.19830638022E+02  0.00000000000E+00 0.  1.
</event>
<event>
 8    1  0.1240174E-006  0.9118800E+02  0.7816164E-02  0.1184000E+00
        -11   -1    0    0    0    0  0.00000000000E+00  0.00000000000E+00  0.45593999997E+02  0.45594000000E+02  0.51100000000E-03 0.  1.
         11   -1    0    0    0    0 -0.00000000000E+00 -0.00000000000E+00 -0.45593999997E+02  0.45594000000E+02  0.51100000000E-03 0. -1.
         23    2    1    2    0    0 -0.35527136788E-14  0.00000000000E+00  0.00000000000E+00  0.91188000000E+02  0.91188000000E+02 0.  0.
    9900012    2    3    3    0    0  0.18412982170E+02 -0.63325008884E+01 -0.31251249315E+02  0.54367094747E+02  0.40000024096E+02 0.  0.
        -12    1    3    3    0    0 -0.18412982170E+02  0.63325008884E+01  0.31251249315E+02  0.36820905253E+02  0.00000000000E+00 0.  1.
         11    1    4    4    0    0  0.16785066035E+02 -0.65507637739E+01 -0.25083752962E+02  0.30884391053E+02  0.51100000000E-03 0. -1.
        -11    1    4    4    0    0  0.63096436903E+01 -0.52155522856E+01  0.54464576170E+01  0.98324712040E+01  0.51100000000E-03 0.  1.
         12    1    4    4    0    0 -0.46817275556E+01  0.54338151711E+01 -0.11613953970E+02  0.13650232490E+02  0.00000000000E+00 0. -1.
</event>
<event>
 8    1  0.1240174E-006  0.9118800E+02  0.7816164E-02  0.1184000E+00
        -11   -1    0    0    0    0  0.00000000000E+00  0.00000000000E+00  0.45593999997E+02  0.45594000000E+02  0.51100000000E-03 0.  1.
         11   -1    0    0    0    0 -0.00000000000E+00 -0.00000000000E+00 -0.45593999997E+02  0.45594000000E+02  0.51100000000E-03 0. -1.
         23    2    1    2    0    0  0.00000000000E+00  0.88817841970E-15  0.00000000000E+00  0.91188000000E+02  0.91188000000E+02 0.  0.
    9900012    2    3    3    0    0  0.29516607816E+02 -0.28375480357E+01 -0.21828854766E+02  0.54367072306E+02  0.39999972937E+02 0.  0.
         12    1    3    3    0    0 -0.29516607816E+02  0.28375480357E+01  0.21828854766E+02  0.36820927694E+02  0.00000000000E+00 0. -1.
         11    1    4    4    0    0  0.91188595705E+01 -0.12509210497E+01 -0.10871155426E+02  0.14244311984E+02  0.51100000000E-03 0. -1.
        -11    1    4    4    0    0  0.10827763759E+02 -0.10165359738E+02 -0.19632232753E+02  0.24617058511E+02  0.51100000000E-03 0.  1.
        -12    1    4    4    0    0  0.95699844870E+01  0.85787327518E+01  0.86745334134E+01  0.15505701811E+02  0.00000000000E+00 0.  1.
</event>
<event>
 8    1  0.1240174E-006  0.9118800E+02  0.7816164E-02  0.1184000E+00
        -11   -1    0    0    0    0  0.00000000000E+00  0.00000000000E+00  0.45593999997E+02  0.45594000000E+02  0.51100000000E-03 0.  1.
         11   -1    0    0    0    0 -0.00000000000E+00 -0.00000000000E+00 -0.45593999997E+02  0.45594000000E+02  0.51100000000E-03 0. -1.
         23    2    1    2    0    0  0.00000000000E+00 -0.17763568394E-14 -0.35527136788E-14  0.91188000000E+02  0.91188000000E+02 0.  0.
    9900012    2    3    3    0    0  0.19264160271E+02  0.14063627266E+02 -0.28051461290E+02  0.54367109688E+02  0.40000058156E+02 0.  0.
        -12    1    3    3    0    0 -0.19264160271E+02 -0.14063627266E+02  0.28051461290E+02  0.36820890312E+02  0.00000000000E+00 0.  1.
         11    1    4    4    0    0 -0.44176145573E+00  0.39791128240E+01 -0.12200949585E+02  0.12841014878E+02  0.51100000000E-03 0. -1.
        -11    1    4    4    0    0  0.14141160097E+02 -0.91071769461E+01 -0.14236464420E+01  0.16880161441E+02  0.51100000000E-03 0.  1.
        -12    1    4    4    0    0  0.55647616294E+01  0.19191691389E+02 -0.14426865263E+02  0.24645933370E+02  0.00000000000E+00 0.  1.
</event>
<event>
 8    1  0.1240174E-006  0.9118800E+02  0.7816164E-02  0.1184000E+00
        -11   -1    0    0    0    0  0.00000000000E+00  0.00000000000E+00  0.45593999997E+02  0.45594000000E+02  0.51100000000E-03 0. -1.
         11   -1    0    0    0    0 -0.00000000000E+00 -0.00000000000E+00 -0.45593999997E+02  0.45594000000E+02  0.51100000000E-03 0.  1.
         23    2    1    2    0    0  0.35527136788E-14 -0.17763568394E-14  0.00000000000E+00  0.91188000000E+02  0.91188000000E+02 0.  0.
    9900012    2    3    3    0    0 -0.23752690387E+02  0.10922882611E+02 -0.25928342676E+02  0.54367100783E+02  0.40000037856E+02 0.  0.
         12    1    3    3    0    0  0.23752690387E+02 -0.10922882611E+02  0.25928342676E+02  0.36820899217E+02  0.00000000000E+00 0. -1.
         11    1    4    4    0    0 -0.22755873267E+02  0.29998740659E+01 -0.25057242078E+02  0.33980794478E+02  0.51100000000E-03 0. -1.
        -11    1    4    4    0    0  0.76616988793E+00  0.13751874401E+02 -0.26845328386E+01  0.14032383356E+02  0.51100000000E-03 0.  1.
         12    1    4    4    0    0 -0.17629870087E+01 -0.58288658555E+01  0.18134322403E+01  0.63539229492E+01  0.00000000000E+00 0. -1.
</event>
<event>
 8    1  0.1240174E-006  0.9118800E+02  0.7816164E-02  0.1184000E+00
        -11   -1    0    0    0    0  0.00000000000E+00  0.00000000000E+00  0.45593999997E+02  0.45594000000E+02  0.51100000000E-03 0.  1.
         11   -1    0    0    0    0 -0.00000000000E+00 -0.00000000000E+00 -0.45593999997E+02  0.45594000000E+02  0.51100000000E-03 0. -1.
         23    2    1    2    0    0 -0.44408920985E-15 -0.44408920985E-15 -0.71054273576E-14  0.91188000000E+02  0.91188000000E+02 0.  0.
    9900012    2    3    3    0    0  0.30501878842E+01  0.27174994444E+01  0.36593601369E+02  0.54367080531E+02  0.39999991687E+02 0.  0.
         12    1    3    3    0    0 -0.30501878842E+01 -0.27174994444E+01 -0.36593601369E+02  0.36820919469E+02  0.00000000000E+00 0. -1.
         11    1    4    4    0    0  0.45526512359E+01  0.44283325192E+01 -0.37627543176E+01  0.73820784669E+01  0.51100000000E-03 0. -1.
        -11    1    4    4    0    0 -0.10601722976E+02  0.20458029268E+01  0.88011497888E+01  0.13929898691E+02  0.51100000000E-03 0.  1.
         12    1    4    4    0    0  0.90992596238E+01 -0.37566360016E+01  0.31555205898E+02  0.33055103373E+02  0.00000000000E+00 0. -1.
</event>
<event>
 8    1  0.1240174E-006  0.9118800E+02  0.7816164E-02  0.1184000E+00
        -11   -1    0    0    0    0  0.00000000000E+00  0.00000000000E+00  0.45593999997E+02  0.45594000000E+02  0.51100000000E-03 0.  1.
         11   -1    0    0    0    0 -0.00000000000E+00 -0.00000000000E+00 -0.45593999997E+02  0.45594000000E+02  0.51100000000E-03 0. -1.
         23    2    1    2    0    0  0.88817841970E-15  0.00000000000E+00 -0.35527136788E-14  0.91188000000E+02  0.91188000000E+02 0.  0.
    9900012    2    3    3    0    0 -0.78779334830E+01 -0.23728397622E+02  0.27031119774E+02  0.54367080322E+02  0.39999991211E+02 0.  0.
        -12    1    3    3    0    0  0.78779334830E+01  0.23728397622E+02 -0.27031119774E+02  0.36820919678E+02  0.00000000000E+00 0.  1.
         11    1    4    4    0    0  0.26727070237E+01 -0.37015993957E+01  0.17972925974E+02  0.18543766317E+02  0.51100000000E-03 0. -1.
        -11    1    4    4    0    0 -0.14214541086E+02 -0.13208327114E+02  0.16210522662E+02  0.25284266425E+02  0.51100000000E-03 0.  1.
         12    1    4    4    0    0  0.36639005790E+01 -0.68184711123E+01 -0.71523288607E+01  0.10539047580E+02  0.00000000000E+00 0. -1.
</event>
<event>
 8    1  0.1240174E-006  0.9118800E+02  0.7816164E-02  0.1184000E+00
        -11   -1    0    0    0    0  0.00000000000E+00  0.00000000000E+00  0.45593999997E+02  0.45594000000E+02  0.51100000000E-03 0. -1.
         11   -1    0    0    0    0 -0.00000000000E+00 -0.00000000000E+00 -0.45593999997E+02  0.45594000000E+02  0.51100000000E-03 0.  1.
         23    2    1    2    0    0  0.00000000000E+00  0.00000000000E+00  0.35527136788E-14  0.91188000000E+02  0.91188000000E+02 0.  0.
    9900012    2    3    3    0    0 -0.19026371188E+02  0.18304384920E+02  0.25665677461E+02  0.54367077858E+02  0.39999985592E+02 0.  0.
        -12    1    3    3    0    0  0.19026371188E+02 -0.18304384920E+02 -0.25665677461E+02  0.36820922142E+02  0.00000000000E+00 0.  1.
         11    1    4    4    0    0 -0.22010959200E+02 -0.82182367158E-01  0.82322404226E+00  0.22026501695E+02  0.51100000000E-03 0. -1.
        -11    1    4    4    0    0 -0.10020842068E+01  0.64266079637E+01  0.30946638616E+01  0.72029443531E+01  0.51100000000E-03 0.  1.
        -12    1    4    4    0    0  0.39866722184E+01  0.11959959323E+02  0.21747789557E+02  0.25137631810E+02  0.00000000000E+00 0.  1.
</event>
<event>
 8    1  0.1240174E-006  0.9118800E+02  0.7816164E-02  0.1184000E+00
        -11   -1    0    0    0    0  0.00000000000E+00  0.00000000000E+00  0.45593999997E+02  0.45594000000E+02  0.51100000000E-03 0. -1.
         11   -1    0    0    0    0 -0.00000000000E+00 -0.00000000000E+00 -0.45593999997E+02  0.45594000000E+02  0.51100000000E-03 0.  1.
         23    2    1    2    0    0 -0.35527136788E-14 -0.35527136788E-14 -0.17763568394E-14  0.91188000000E+02  0.91188000000E+02 0.  0.
    9900012    2    3    3    0    0  0.26530657893E+02  0.23004094095E+02  0.11077828806E+02  0.54367048839E+02  0.39999919437E+02 0.  0.
        -12    1    3    3    0    0 -0.26530657893E+02 -0.23004094095E+02 -0.11077828806E+02  0.36820951161E+02  0.00000000000E+00 0.  1.
         11    1    4    4    0    0  0.11501650811E+02  0.39729143417E+01  0.10398981363E+02  0.16006587188E+02  0.51100000000E-03 0. -1.
        -11    1    4    4    0    0 -0.26453195563E+01  0.16677943493E+02  0.84825562228E+01  0.18897229296E+02  0.51100000000E-03 0.  1.
        -12    1    4    4    0    0  0.17674326638E+02  0.23532362604E+01 -0.78037087796E+01  0.19463232355E+02  0.00000000000E+00 0.  1.
</event>
<event>
 8    1  0.1240174E-006  0.9118800E+02  0.7816164E-02  0.1184000E+00
        -11   -1    0    0    0    0  0.00000000000E+00  0.00000000000E+00  0.45593999997E+02  0.45594000000E+02  0.51100000000E-03 0.  1.
         11   -1    0    0    0    0 -0.00000000000E+00 -0.00000000000E+00 -0.45593999997E+02  0.45594000000E+02  0.51100000000E-03 0. -1.
         23    2    1    2    0    0  0.17763568394E-14 -0.71054273576E-14  0.88817841970E-15  0.91188000000E+02  0.91188000000E+02 0.  0.
    9900012    2    3    3    0    0 -0.53863737417E+00  0.36665014904E+02 -0.33417780108E+01  0.54367069425E+02  0.39999966369E+02 0.  0.
        -12    1    3    3    0    0  0.53863737417E+00 -0.36665014904E+02  0.33417780108E+01  0.36820930575E+02  0.00000000000E+00 0.  1.
         11    1    4    4    0    0 -0.11634017199E+02 -0.14482066829E+01  0.58873446400E+01  0.13119012385E+02  0.51100000000E-03 0. -1.
        -11    1    4    4    0    0  0.81223493020E+01  0.33075728259E+02 -0.96041556801E+01  0.35386666481E+02  0.51100000000E-03 0.  1.
        -12    1    4    4    0    0  0.29730305228E+01  0.50374933280E+01  0.37503302933E+00  0.58613905596E+01  0.00000000000E+00 0.  1.
</event>
<event>
 8    1  0.1240174E-006  0.9118800E+02  0.7816164E-02  0.1184000E+00
        -11   -1    0    0    0    0  0.00000000000E+00  0.00000000000E+00  0.45593999997E+02  0.45594000000E+02  0.51100000000E-03 0.  1.
         11   -1    0    0    0    0 -0.00000000000E+00 -0.00000000000E+00 -0.45593999997E+02  0.45594000000E+02  0.51100000000E-03 0. -1.
         23    2    1    2    0    0 -0.35527136788E-14  0.00000000000E+00 -0.35527136788E-14  0.91188000000E+02  0.91188000000E+02 0.  0.
    9900012    2    3    3    0    0  0.22212133202E+02  0.81931051232E+01  0.28200654936E+02  0.54367044394E+02  0.39999909304E+02 0.  0.
        -12    1    3    3    0    0 -0.22212133202E+02 -0.81931051232E+01 -0.28200654936E+02  0.36820955606E+02  0.00000000000E+00 0.  1.
         11    1    4    4    0    0 -0.21847447002E+01  0.26237383633E+01 -0.58587695318E+01  0.67810244869E+01  0.51100000000E-03 0. -1.
        -11    1    4    4    0    0  0.70689620648E+01 -0.82900906531E+01  0.91531521667E+01  0.14229406964E+02  0.51100000000E-03 0.  1.
        -12    1    4    4    0    0  0.17327915838E+02  0.13859457413E+02  0.24906272301E+02  0.33356612942E+02  0.00000000000E+00 0.  1.
</event>
<event>
 8    1  0.1240174E-006  0.9118800E+02  0.7816164E-02  0.1184000E+00
        -11   -1    0    0    0    0  0.00000000000E+00  0.00000000000E+00  0.45593999997E+02  0.45594000000E+02  0.51100000000E-03 0.  1.
         11   -1    0    0    0    0 -0.00000000000E+00 -0.00000000000E+00 -0.45593999997E+02  0.45594000000E+02  0.51100000000E-03 0. -1.
         23    2    1    2    0    0  0.35527136788E-14 -0.88817841970E-15 -0.71054273576E-14  0.91188000000E+02  0.91188000000E+02 0.  0.
    9900012    2    3    3    0    0 -0.26441750934E+02  0.52556818680E+01  0.25079701580E+02  0.54367084534E+02  0.40000000813E+02 0.  0.
         12    1    3    3    0    0  0.26441750934E+02 -0.52556818680E+01 -0.25079701580E+02  0.36820915466E+02  0.00000000000E+00 0. -1.
         11    1    4    4    0    0 -0.61530324477E+01 -0.81134063235E+01  0.20466286311E+02  0.22859484817E+02  0.51100000000E-03 0.  1.
        -11    1    4    4    0    0  0.31350975529E+01  0.18609130511E+00  0.33605940289E+01  0.45996803289E+01  0.51100000000E-03 0. -1.
        -12    1    4    4    0    0 -0.23423816039E+02  0.13182996886E+02  0.12528212405E+01  0.26907919389E+02  0.00000000000E+00 0.  1.
</event>
<event>
 8    1  0.1240174E-006  0.9118800E+02  0.7816164E-02  0.1184000E+00
        -11   -1    0    0    0    0  0.00000000000E+00  0.00000000000E+00  0.45593999997E+02  0.45594000000E+02  0.51100000000E-03 0.  1.
         11   -1    0    0    0    0 -0.00000000000E+00 -0.00000000000E+00 -0.45593999997E+02  0.45594000000E+02  0.51100000000E-03 0. -1.
         23    2    1    2    0    0  0.00000000000E+00  0.00000000000E+00  0.35527136788E-14  0.91188000000E+02  0.91188000000E+02 0.  0.
    9900012    2    3    3    0    0  0.24238131744E+02  0.18249903710E+02  0.20862264158E+02  0.54367080923E+02  0.39999992581E+02 0.  0.
         12    1    3    3    0    0 -0.24238131744E+02 -0.18249903710E+02 -0.20862264158E+02  0.36820919077E+02  0.00000000000E+00 0. -1.
         11    1    4    4    0    0  0.97016427044E+00  0.15167574165E+02 -0.60078353435E+01  0.16342907041E+02  0.51100000000E-03 0. -1.
        -11    1    4    4    0    0  0.43099083441E+01  0.50474439821E+01  0.25147479188E+01  0.70976022742E+01  0.51100000000E-03 0.  1.
         12    1    4    4    0    0  0.18958059129E+02 -0.19651144373E+01  0.24355351583E+02  0.30926571608E+02  0.00000000000E+00 0. -1.
</event>
<event>
 8    1  0.1240174E-006  0.9118800E+02  0.7816164E-02  0.1184000E+00
        -11   -1    0    0    0    0  0.00000000000E+00  0.00000000000E+00  0.45593999997E+02  0.45594000000E+02  0.51100000000E-03 0.  1.
         11   -1    0    0    0    0 -0.00000000000E+00 -0.00000000000E+00 -0.45593999997E+02  0.45594000000E+02  0.51100000000E-03 0. -1.
         23    2    1    2    0    0  0.00000000000E+00  0.88817841970E-15 -0.35527136788E-14  0.91188000000E+02  0.91188000000E+02 0.  0.
    9900012    2    3    3    0    0 -0.22244853241E+02  0.48491892406E+01  0.28938417713E+02  0.54367079972E+02  0.39999990412E+02 0.  0.
         12    1    3    3    0    0  0.22244853241E+02 -0.48491892406E+01 -0.28938417713E+02  0.36820920028E+02  0.00000000000E+00 0. -1.
         11    1    4    4    0    0 -0.22192217193E+02  0.96465668661E+01  0.19987708272E+01  0.24280565095E+02  0.51100000000E-03 0. -1.
        -11    1    4    4    0    0  0.11015831827E+01  0.19121476444E+00 -0.11087319249E+01  0.15745905299E+01  0.51100000000E-03 0.  1.
        -12    1    4    4    0    0 -0.11542192305E+01 -0.49885923899E+01  0.28048378811E+02  0.28511924347E+02  0.00000000000E+00 0.  1.
</event>
<event>
 8    1  0.1240174E-006  0.9118800E+02  0.7816164E-02  0.1184000E+00
        -11   -1    0    0    0    0  0.00000000000E+00  0.00000000000E+00  0.45593999997E+02  0.45594000000E+02  0.51100000000E-03 0. -1.
         11   -1    0    0    0    0 -0.00000000000E+00 -0.00000000000E+00 -0.45593999997E+02  0.45594000000E+02  0.51100000000E-03 0.  1.
         23    2    1    2    0    0  0.00000000000E+00  0.00000000000E+00  0.00000000000E+00  0.91188000000E+02  0.91188000000E+02 0.  0.
    9900012    2    3    3    0    0 -0.18296503712E+02  0.17207183010E+02 -0.26924528027E+02  0.54367090117E+02  0.40000013539E+02 0.  0.
         12    1    3    3    0    0  0.18296503712E+02 -0.17207183010E+02  0.26924528027E+02  0.36820909883E+02  0.00000000000E+00 0. -1.
         11    1    4    4    0    0  0.96838138146E+01  0.90967000554E+01  0.32394895214E+00  0.13290265049E+02  0.51100000000E-03 0. -1.
        -11    1    4    4    0    0 -0.21332043884E+02  0.84775830598E+01 -0.15915411238E+02  0.27932522727E+02  0.51100000000E-03 0.  1.
         12    1    4    4    0    0 -0.66482736426E+01 -0.36710010566E+00 -0.11333065741E+02  0.13144302340E+02  0.00000000000E+00 0. -1.
</event>
<event>
 8    1  0.1240174E-006  0.9118800E+02  0.7816164E-02  0.1184000E+00
        -11   -1    0    0    0    0  0.00000000000E+00  0.00000000000E+00  0.45593999997E+02  0.45594000000E+02  0.51100000000E-03 0.  1.
         11   -1    0    0    0    0 -0.00000000000E+00 -0.00000000000E+00 -0.45593999997E+02  0.45594000000E+02  0.51100000000E-03 0. -1.
         23    2    1    2    0    0 -0.35527136788E-14  0.17763568394E-14 -0.35527136788E-14  0.91188000000E+02  0.91188000000E+02 0.  0.
    9900012    2    3    3    0    0  0.19569352203E+02  0.11534773346E+02 -0.28978766839E+02  0.54367089238E+02  0.40000011537E+02 0.  0.
        -12    1    3    3    0    0 -0.19569352203E+02 -0.11534773346E+02  0.28978766839E+02  0.36820910762E+02  0.00000000000E+00 0.  1.
         11    1    4    4    0    0  0.13414421678E+01  0.51692217904E+01 -0.32966613758E+02  0.33396376210E+02  0.51100000000E-03 0. -1.
        -11    1    4    4    0    0  0.21761870191E+01  0.59762045008E+00  0.31742856438E+01  0.38947438625E+01  0.51100000000E-03 0.  1.
        -12    1    4    4    0    0  0.16051723016E+02  0.57679311054E+01  0.81356127470E+00  0.17075969166E+02  0.00000000000E+00 0.  1.
</event>
<event>
 8    1  0.1240174E-006  0.9118800E+02  0.7816164E-02  0.1184000E+00
        -11   -1    0    0    0    0  0.00000000000E+00  0.00000000000E+00  0.45593999997E+02  0.45594000000E+02  0.51100000000E-03 0. -1.
         11   -1    0    0    0    0 -0.00000000000E+00 -0.00000000000E+00 -0.45593999997E+02  0.45594000000E+02  0.51100000000E-03 0.  1.
         23    2    1    2    0    0 -0.71054273576E-14  0.00000000000E+00  0.88817841970E-15  0.91188000000E+02  0.91188000000E+02 0.  0.
    9900012    2    3    3    0    0  0.35545708635E+02 -0.73632982188E+01 -0.61695667844E+01  0.54367094018E+02  0.40000022433E+02 0.  0.
        -12    1    3    3    0    0 -0.35545708635E+02  0.73632982188E+01  0.61695667844E+01  0.36820905982E+02  0.00000000000E+00 0.  1.
         11    1    4    4    0    0  0.23050493360E+02 -0.11026656084E+02  0.93242433365E+00  0.25569157279E+02  0.51100000000E-03 0. -1.
        -11    1    4    4    0    0  0.32269987986E+01 -0.36066176715E+01 -0.14229580597E+02  0.15030042465E+02  0.51100000000E-03 0.  1.
        -12    1    4    4    0    0  0.92682164763E+01  0.72699755368E+01  0.71275894790E+01  0.13767894274E+02  0.00000000000E+00 0.  1.
</event>
<event>
 8    1  0.1240174E-006  0.9118800E+02  0.7816164E-02  0.1184000E+00
        -11   -1    0    0    0    0  0.00000000000E+00  0.00000000000E+00  0.45593999997E+02  0.45594000000E+02  0.51100000000E-03 0. -1.
         11   -1    0    0    0    0 -0.00000000000E+00 -0.00000000000E+00 -0.45593999997E+02  0.45594000000E+02  0.51100000000E-03 0.  1.
         23    2    1    2    0    0 -0.35527136788E-14  0.00000000000E+00 -0.35527136788E-14  0.91188000000E+02  0.91188000000E+02 0.  0.
    9900012    2    3    3    0    0  0.25668163764E+02 -0.10063894400E+02  0.24405813741E+02  0.54367077335E+02  0.39999984402E+02 0.  0.
        -12    1    3    3    0    0 -0.25668163764E+02  0.10063894400E+02 -0.24405813741E+02  0.36820922665E+02  0.00000000000E+00 0.  1.
         11    1    4    4    0    0  0.33322488575E+01 -0.15990747876E+02  0.12271254661E+02  0.20430163761E+02  0.51100000000E-03 0. -1.
        -11    1    4    4    0    0  0.47581833797E+01 -0.52958109137E+01 -0.34412708764E+01  0.79074817619E+01  0.51100000000E-03 0.  1.
         12    1    4    4    0    0  0.17577731527E+02  0.11222664390E+02  0.15575829956E+02  0.26029431812E+02  0.00000000000E+00 0. -1.
</event>
<event>
 8    1  0.1240174E-006  0.9118800E+02  0.7816164E-02  0.1184000E+00
        -11   -1    0    0    0    0  0.00000000000E+00  0.00000000000E+00  0.45593999997E+02  0.45594000000E+02  0.51100000000E-03 0.  1.
         11   -1    0    0    0    0 -0.00000000000E+00 -0.00000000000E+00 -0.45593999997E+02  0.45594000000E+02  0.51100000000E-03 0. -1.
         23    2    1    2    0    0  0.00000000000E+00  0.00000000000E+00  0.00000000000E+00  0.91188000000E+02  0.91188000000E+02 0.  0.
    9900012    2    3    3    0    0 -0.44695784825E+01 -0.77462038924E+01  0.35718318516E+02  0.54367094468E+02  0.40000023459E+02 0.  0.
         12    1    3    3    0    0  0.44695784825E+01  0.77462038924E+01 -0.35718318516E+02  0.36820905532E+02  0.00000000000E+00 0. -1.
         11    1    4    4    0    0 -0.28179686006E+01  0.82509026712E+01 -0.21926177068E+01  0.89903233865E+01  0.51100000000E-03 0. -1.
        -11    1    4    4    0    0  0.51843783543E+01 -0.84601812933E+01  0.32230612229E+02  0.33723357060E+02  0.51100000000E-03 0.  1.
        -12    1    4    4    0    0 -0.68359882363E+01 -0.75369252703E+01  0.56803239935E+01  0.11653414022E+02  0.00000000000E+00 0.  1.
</event>
<event>
 8    1  0.1240174E-006  0.9118800E+02  0.7816164E-02  0.1184000E+00
        -11   -1    0    0    0    0  0.00000000000E+00  0.00000000000E+00  0.45593999997E+02  0.45594000000E+02  0.51100000000E-03 0. -1.
         11   -1    0    0    0    0 -0.00000000000E+00 -0.00000000000E+00 -0.45593999997E+02  0.45594000000E+02  0.51100000000E-03 0.  1.
         23    2    1    2    0    0 -0.35527136788E-14  0.22204460493E-15  0.00000000000E+00  0.91188000000E+02  0.91188000000E+02 0.  0.
    9900012    2    3    3    0    0  0.31461030815E+02 -0.16346161453E+01 -0.19060781725E+02  0.54367057184E+02  0.39999938462E+02 0.  0.
        -12    1    3    3    0    0 -0.31461030815E+02  0.16346161453E+01  0.19060781725E+02  0.36820942816E+02  0.00000000000E+00 0.  1.
         11    1    4    4    0    0  0.12874267595E+02  0.87208036473E+01 -0.97529668315E+00  0.15580448846E+02  0.51100000000E-03 0. -1.
        -11    1    4    4    0    0  0.12009899489E+01 -0.74746612670E+01  0.54906168080E+01  0.93519950335E+01  0.51100000000E-03 0.  1.
         12    1    4    4    0    0  0.17385773271E+02 -0.28807585256E+01 -0.23576101850E+02  0.29434613304E+02  0.00000000000E+00 0. -1.
</event>
<event>
 8    1  0.1240174E-006  0.9118800E+02  0.7816164E-02  0.1184000E+00
        -11   -1    0    0    0    0  0.00000000000E+00  0.00000000000E+00  0.45593999997E+02  0.45594000000E+02  0.51100000000E-03 0.  1.
         11   -1    0    0    0    0 -0.00000000000E+00 -0.00000000000E+00 -0.45593999997E+02  0.45594000000E+02  0.51100000000E-03 0. -1.
         23    2    1    2    0    0  0.00000000000E+00  0.00000000000E+00  0.00000000000E+00  0.91188000000E+02  0.91188000000E+02 0.  0.
    9900012    2    3    3    0    0  0.67211696779E+01  0.27192688416E+02 -0.23899019293E+02  0.54367088166E+02  0.40000009093E+02 0.  0.
        -12    1    3    3    0    0 -0.67211696779E+01 -0.27192688416E+02  0.23899019293E+02  0.36820911834E+02  0.00000000000E+00 0.  1.
         11    1    4    4    0    0  0.73400232970E+01  0.21388277767E+02 -0.27378590151E+02  0.35509457427E+02  0.51100000000E-03 0. -1.
        -11    1    4    4    0    0 -0.53266206966E+01 -0.45054095256E+01  0.27546666616E+01  0.75006527527E+01  0.51100000000E-03 0.  1.
         12    1    4    4    0    0  0.47077670775E+01  0.10309820174E+02  0.72490419734E+00  0.11356977986E+02  0.00000000000E+00 0. -1.
</event>
<event>
 8    1  0.1240174E-006  0.9118800E+02  0.7816164E-02  0.1184000E+00
        -11   -1    0    0    0    0  0.00000000000E+00  0.00000000000E+00  0.45593999997E+02  0.45594000000E+02  0.51100000000E-03 0. -1.
         11   -1    0    0    0    0 -0.00000000000E+00 -0.00000000000E+00 -0.45593999997E+02  0.45594000000E+02  0.51100000000E-03 0.  1.
         23    2    1    2    0    0  0.00000000000E+00  0.00000000000E+00  0.00000000000E+00  0.91188000000E+02  0.91188000000E+02 0.  0.
    9900012    2    3    3    0    0  0.16757999837E+02  0.18158160534E+02 -0.27298909948E+02  0.54367084247E+02  0.40000000159E+02 0.  0.
         12    1    3    3    0    0 -0.16757999837E+02 -0.18158160534E+02  0.27298909948E+02  0.36820915753E+02  0.00000000000E+00 0. -1.
         11    1    4    4    0    0 -0.54657649416E+01 -0.16126512468E+01 -0.91333828918E+01  0.10765403557E+02  0.51100000000E-03 0. -1.
        -11    1    4    4    0    0  0.11193289923E+02  0.20972901579E+02 -0.21460881047E+02  0.32026891131E+02  0.51100000000E-03 0.  1.
        -12    1    4    4    0    0  0.11030474856E+02 -0.12020897982E+01  0.32953539904E+01  0.11574789559E+02  0.00000000000E+00 0.  1.
</event>
<event>
 8    1  0.1240174E-006  0.9118800E+02  0.7816164E-02  0.1184000E+00
        -11   -1    0    0    0    0  0.00000000000E+00  0.00000000000E+00  0.45593999997E+02  0.45594000000E+02  0.51100000000E-03 0.  1.
         11   -1    0    0    0    0 -0.00000000000E+00 -0.00000000000E+00 -0.45593999997E+02  0.45594000000E+02  0.51100000000E-03 0. -1.
         23    2    1    2    0    0  0.49960036108E-14  0.00000000000E+00  0.00000000000E+00  0.91188000000E+02  0.91188000000E+02 0.  0.
    9900012    2    3    3    0    0 -0.29251327884E+00 -0.20537147041E+02  0.30560062700E+02  0.54367117273E+02  0.40000075447E+02 0.  0.
         12    1    3    3    0    0  0.29251327884E+00  0.20537147041E+02 -0.30560062700E+02  0.36820882727E+02  0.00000000000E+00 0. -1.
         11    1    4    4    0    0 -0.34973059631E+01  0.16672466489E+01 -0.23805775231E-01  0.38744583317E+01  0.51100000000E-03 0. -1.
        -11    1    4    4    0    0  0.16598191873E+02 -0.11481211753E+02  0.70698338081E+01  0.21384591348E+02  0.51100000000E-03 0.  1.
        -12    1    4    4    0    0 -0.13393399189E+02 -0.10723181937E+02  0.23514034667E+02  0.29108067593E+02  0.00000000000E+00 0.  1.
</event>
<event>
 8    1  0.1240174E-006  0.9118800E+02  0.7816164E-02  0.1184000E+00
        -11   -1    0    0    0    0  0.00000000000E+00  0.00000000000E+00  0.45593999997E+02  0.45594000000E+02  0.51100000000E-03 0. -1.
         11   -1    0    0    0    0 -0.00000000000E+00 -0.00000000000E+00 -0.45593999997E+02  0.45594000000E+02  0.51100000000E-03 0.  1.
         23    2    1    2    0    0  0.00000000000E+00  0.35527136788E-14  0.35527136788E-14  0.91188000000E+02  0.91188000000E+02 0.  0.
    9900012    2    3    3    0    0 -0.27022921014E+02 -0.19755587752E+02 -0.15338146679E+02  0.54367078622E+02  0.39999987334E+02 0.  0.
         12    1    3    3    0    0  0.27022921014E+02  0.19755587752E+02  0.15338146679E+02  0.36820921378E+02  0.00000000000E+00 0. -1.
         11    1    4    4    0    0  0.89821391851E+00 -0.34441272676E+01 -0.17032297069E+02  0.17400228291E+02  0.51100000000E-03 0. -1.
        -11    1    4    4    0    0 -0.18890581048E+02 -0.19621484246E+02  0.22706063228E+01  0.27331526662E+02  0.51100000000E-03 0.  1.
         12    1    4    4    0    0 -0.90305538845E+01  0.33100237610E+01 -0.57645593370E+00  0.96353236688E+01  0.00000000000E+00 0. -1.
</event>
<event>
 8    1  0.1240174E-006  0.9118800E+02  0.7816164E-02  0.1184000E+00
        -11   -1    0    0    0    0  0.00000000000E+00  0.00000000000E+00  0.45593999997E+02  0.45594000000E+02  0.51100000000E-03 0.  1.
         11   -1    0    0    0    0 -0.00000000000E+00 -0.00000000000E+00 -0.45593999997E+02  0.45594000000E+02  0.51100000000E-03 0. -1.
         23    2    1    2    0    0 -0.35527136788E-14 -0.35527136788E-14 -0.17763568394E-14  0.91188000000E+02  0.91188000000E+02 0.  0.
    9900012    2    3    3    0    0 -0.16362473522E+02  0.31185659875E+02  0.10747120645E+02  0.54367129237E+02  0.40000102722E+02 0.  0.
         12    1    3    3    0    0  0.16362473522E+02 -0.31185659875E+02 -0.10747120645E+02  0.36820870763E+02  0.00000000000E+00 0. -1.
         11    1    4    4    0    0 -0.72036884584E+01  0.74037372382E+01  0.64059273920E+01  0.12155013719E+02  0.51100000000E-03 0. -1.
        -11    1    4    4    0    0 -0.20597733490E+02  0.22260564281E+02  0.45676126141E+01  0.30670220610E+02  0.51100000000E-03 0.  1.
         12    1    4    4    0    0  0.11438948426E+02  0.15213583561E+01 -0.22641936097E+00  0.11541894908E+02  0.00000000000E+00 0. -1.
</event>
<event>
 8    1  0.1240174E-006  0.9118800E+02  0.7816164E-02  0.1184000E+00
        -11   -1    0    0    0    0  0.00000000000E+00  0.00000000000E+00  0.45593999997E+02  0.45594000000E+02  0.51100000000E-03 0.  1.
         11   -1    0    0    0    0 -0.00000000000E+00 -0.00000000000E+00 -0.45593999997E+02  0.45594000000E+02  0.51100000000E-03 0. -1.
         23    2    1    2    0    0  0.71054273576E-14  0.00000000000E+00 -0.88817841970E-15  0.91188000000E+02  0.91188000000E+02 0.  0.
    9900012    2    3    3    0    0 -0.35796617224E+02 -0.79482462780E+01 -0.33484481871E+01  0.54367020534E+02  0.39999854911E+02 0.  0.
         12    1    3    3    0    0  0.35796617224E+02  0.79482462780E+01  0.33484481871E+01  0.36820979466E+02  0.00000000000E+00 0. -1.
         11    1    4    4    0    0 -0.64695946719E+01 -0.10620528122E+02 -0.17328562297E+02  0.21329096191E+02  0.51100000000E-03 0. -1.
        -11    1    4    4    0    0 -0.12368136728E+02  0.70445286149E+00  0.30232595608E+01  0.12751751197E+02  0.51100000000E-03 0.  1.
         12    1    4    4    0    0 -0.16958885824E+02  0.19678289822E+01  0.10956854549E+02  0.20286173145E+02  0.00000000000E+00 0. -1.
</event>
<event>
 8    1  0.1240174E-006  0.9118800E+02  0.7816164E-02  0.1184000E+00
        -11   -1    0    0    0    0  0.00000000000E+00  0.00000000000E+00  0.45593999997E+02  0.45594000000E+02  0.51100000000E-03 0. -1.
         11   -1    0    0    0    0 -0.00000000000E+00 -0.00000000000E+00 -0.45593999997E+02  0.45594000000E+02  0.51100000000E-03 0.  1.
         23    2    1    2    0    0  0.00000000000E+00 -0.17763568394E-14  0.00000000000E+00  0.91188000000E+02  0.91188000000E+02 0.  0.
    9900012    2    3    3    0    0  0.22000058591E+02 -0.14347699909E+02  0.25805447853E+02  0.54367079186E+02  0.39999988621E+02 0.  0.
        -12    1    3    3    0    0 -0.22000058591E+02  0.14347699909E+02 -0.25805447853E+02  0.36820920814E+02  0.00000000000E+00 0.  1.
         11    1    4    4    0    0  0.14428724241E+02 -0.18830206924E+02  0.19383390814E+02  0.30634630987E+02  0.51100000000E-03 0. -1.
        -11    1    4    4    0    0  0.11959823923E+02  0.24588991937E+01  0.11464140431E+02  0.16748435437E+02  0.51100000000E-03 0.  1.
         12    1    4    4    0    0 -0.43884895727E+01  0.20236078208E+01 -0.50420833915E+01  0.69840127627E+01  0.00000000000E+00 0. -1.
</event>
<event>
 8    1  0.1240174E-006  0.9118800E+02  0.7816164E-02  0.1184000E+00
        -11   -1    0    0    0    0  0.00000000000E+00  0.00000000000E+00  0.45593999997E+02  0.45594000000E+02  0.51100000000E-03 0.  1.
         11   -1    0    0    0    0 -0.00000000000E+00 -0.00000000000E+00 -0.45593999997E+02  0.45594000000E+02  0.51100000000E-03 0. -1.
         23    2    1    2    0    0  0.00000000000E+00  0.00000000000E+00  0.00000000000E+00  0.91188000000E+02  0.91188000000E+02 0.  0.
    9900012    2    3    3    0    0  0.16707282348E+02 -0.32746278131E+02  0.20799926273E+01  0.54367103973E+02  0.40000045128E+02 0.  0.
         12    1    3    3    0    0 -0.16707282348E+02  0.32746278131E+02 -0.20799926273E+01  0.36820896027E+02  0.00000000000E+00 0. -1.
         11    1    4    4    0    0  0.90694935270E+01 -0.52300246883E+01 -0.22966055681E+01  0.10718361277E+02  0.51100000000E-03 0. -1.
        -11    1    4    4    0    0  0.10641472950E+01 -0.34055116583E+02  0.23147034706E+01  0.34150274192E+02  0.51100000000E-03 0.  1.
        -12    1    4    4    0    0  0.65736415256E+01  0.65388631399E+01  0.20618947248E+01  0.94984685042E+01  0.00000000000E+00 0.  1.
</event>
<event>
 8    1  0.1240174E-006  0.9118800E+02  0.7816164E-02  0.1184000E+00
        -11   -1    0    0    0    0  0.00000000000E+00  0.00000000000E+00  0.45593999997E+02  0.45594000000E+02  0.51100000000E-03 0.  1.
         11   -1    0    0    0    0 -0.00000000000E+00 -0.00000000000E+00 -0.45593999997E+02  0.45594000000E+02  0.51100000000E-03 0. -1.
         23    2    1    2    0    0 -0.35527136788E-14  0.00000000000E+00  0.00000000000E+00  0.91188000000E+02  0.91188000000E+02 0.  0.
    9900012    2    3    3    0    0 -0.31277585545E+02 -0.17108575096E+02  0.92080040478E+01  0.54367108677E+02  0.40000055850E+02 0.  0.
         12    1    3    3    0    0  0.31277585545E+02  0.17108575096E+02 -0.92080040478E+01  0.36820891323E+02  0.00000000000E+00 0. -1.
         11    1    4    4    0    0  0.62780330821E+00 -0.53679773719E+01  0.30185008163E+00  0.54129873260E+01  0.51100000000E-03 0. -1.
        -11    1    4    4    0    0 -0.11411656882E+01 -0.10042029189E+02  0.14464615433E+02  0.17645671120E+02  0.51100000000E-03 0.  1.
         12    1    4    4    0    0 -0.30764223165E+02 -0.16985685344E+01 -0.55584614670E+01  0.31308450231E+02  0.00000000000E+00 0. -1.
</event>
<event>
 8    1  0.1240174E-006  0.9118800E+02  0.7816164E-02  0.1184000E+00
        -11   -1    0    0    0    0  0.00000000000E+00  0.00000000000E+00  0.45593999997E+02  0.45594000000E+02  0.51100000000E-03 0.  1.
         11   -1    0    0    0    0 -0.00000000000E+00 -0.00000000000E+00 -0.45593999997E+02  0.45594000000E+02  0.51100000000E-03 0. -1.
         23    2    1    2    0    0  0.17763568394E-14 -0.22204460493E-15  0.00000000000E+00  0.91188000000E+02  0.91188000000E+02 0.  0.
    9900012    2    3    3    0    0  0.58676555613E+01 -0.13348734363E+01  0.36325869331E+02  0.54367081333E+02  0.39999993514E+02 0.  0.
         12    1    3    3    0    0 -0.58676555613E+01  0.13348734363E+01 -0.36325869331E+02  0.36820918667E+02  0.00000000000E+00 0. -1.
         11    1    4    4    0    0 -0.15018369503E+02 -0.40262754719E+01  0.18823778093E+02  0.24415096532E+02  0.51100000000E-03 0. -1.
        -11    1    4    4    0    0  0.14730114045E+02 -0.35477191714E+01  0.84346900569E+01  0.17340892933E+02  0.51100000000E-03 0.  1.
         12    1    4    4    0    0  0.61559110195E+01  0.62391212070E+01  0.90674011807E+01  0.12611091867E+02  0.00000000000E+00 0. -1.
</event>
<event>
 8    1  0.1240174E-006  0.9118800E+02  0.7816164E-02  0.1184000E+00
        -11   -1    0    0    0    0  0.00000000000E+00  0.00000000000E+00  0.45593999997E+02  0.45594000000E+02  0.51100000000E-03 0. -1.
         11   -1    0    0    0    0 -0.00000000000E+00 -0.00000000000E+00 -0.45593999997E+02  0.45594000000E+02  0.51100000000E-03 0.  1.
         23    2    1    2    0    0  0.00000000000E+00  0.00000000000E+00  0.88817841970E-15  0.91188000000E+02  0.91188000000E+02 0.  0.
    9900012    2    3    3    0    0  0.20193114728E+02 -0.30585970088E+02  0.35378713294E+01  0.54367082274E+02  0.39999995659E+02 0.  0.
        -12    1    3    3    0    0 -0.20193114728E+02  0.30585970088E+02 -0.35378713294E+01  0.36820917726E+02  0.00000000000E+00 0.  1.
         11    1    4    4    0    0  0.82155467553E+01 -0.30751008639E+02 -0.73200281555E+01  0.32660412632E+02  0.51100000000E-03 0. -1.
        -11    1    4    4    0    0  0.28351318825E+01  0.68334796939E+01  0.33142153219E+01  0.81066911239E+01  0.51100000000E-03 0.  1.
         12    1    4    4    0    0  0.91424360904E+01 -0.66684411431E+01  0.75436841631E+01  0.13599978518E+02  0.00000000000E+00 0. -1.
</event>
<event>
 8    1  0.1240174E-006  0.9118800E+02  0.7816164E-02  0.1184000E+00
        -11   -1    0    0    0    0  0.00000000000E+00  0.00000000000E+00  0.45593999997E+02  0.45594000000E+02  0.51100000000E-03 0. -1.
         11   -1    0    0    0    0 -0.00000000000E+00 -0.00000000000E+00 -0.45593999997E+02  0.45594000000E+02  0.51100000000E-03 0.  1.
         23    2    1    2    0    0  0.00000000000E+00 -0.17763568394E-14  0.88817841970E-15  0.91188000000E+02  0.91188000000E+02 0.  0.
    9900012    2    3    3    0    0  0.33348270891E+02  0.14467608138E+02 -0.58618743646E+01  0.54367076224E+02  0.39999981867E+02 0.  0.
         12    1    3    3    0    0 -0.33348270891E+02 -0.14467608138E+02  0.58618743646E+01  0.36820923776E+02  0.00000000000E+00 0. -1.
         11    1    4    4    0    0 -0.92788692568E+00  0.40761643899E+01 -0.96804840525E+01  0.10544565521E+02  0.51100000000E-03 0. -1.
        -11    1    4    4    0    0  0.10816820579E+02  0.40301516109E+01 -0.10506536596E+02  0.15608748859E+02  0.51100000000E-03 0.  1.
         12    1    4    4    0    0  0.23459337238E+02  0.63612921375E+01  0.14325146284E+02  0.28213761843E+02  0.00000000000E+00 0. -1.
</event>
<event>
 8    1  0.1240174E-006  0.9118800E+02  0.7816164E-02  0.1184000E+00
        -11   -1    0    0    0    0  0.00000000000E+00  0.00000000000E+00  0.45593999997E+02  0.45594000000E+02  0.51100000000E-03 0.  1.
         11   -1    0    0    0    0 -0.00000000000E+00 -0.00000000000E+00 -0.45593999997E+02  0.45594000000E+02  0.51100000000E-03 0. -1.
         23    2    1    2    0    0  0.35527136788E-14  0.17763568394E-14  0.00000000000E+00  0.91188000000E+02  0.91188000000E+02 0.  0.
    9900012    2    3    3    0    0  0.10938590381E+02 -0.12088357346E+02  0.33015104782E+02  0.54367105298E+02  0.40000048149E+02 0.  0.
         12    1    3    3    0    0 -0.10938590381E+02  0.12088357346E+02 -0.33015104782E+02  0.36820894702E+02  0.00000000000E+00 0. -1.
         11    1    4    4    0    0  0.63331847078E+00 -0.69882809143E+01  0.33476863090E+01  0.77745846388E+01  0.51100000000E-03 0.  1.
        -11    1    4    4    0    0  0.22332107525E+02 -0.52178950170E+01  0.14104607629E+02  0.26923770381E+02  0.51100000000E-03 0. -1.
         12    1    4    4    0    0 -0.12026835615E+02  0.11781858517E+00  0.15562810844E+02  0.19668750278E+02  0.00000000000E+00 0. -1.
</event>
<event>
 8    1  0.1240174E-006  0.9118800E+02  0.7816164E-02  0.1184000E+00
        -11   -1    0    0    0    0  0.00000000000E+00  0.00000000000E+00  0.45593999997E+02  0.45594000000E+02  0.51100000000E-03 0.  1.
         11   -1    0    0    0    0 -0.00000000000E+00 -0.00000000000E+00 -0.45593999997E+02  0.45594000000E+02  0.51100000000E-03 0. -1.
         23    2    1    2    0    0  0.00000000000E+00  0.35527136788E-14 -0.35527136788E-14  0.91188000000E+02  0.91188000000E+02 0.  0.
    9900012    2    3    3    0    0 -0.48019622350E+01  0.18394687510E+02 -0.31533417321E+02  0.54367085049E+02  0.40000001986E+02 0.  0.
        -12    1    3    3    0    0  0.48019622350E+01 -0.18394687510E+02  0.31533417321E+02  0.36820914951E+02  0.00000000000E+00 0.  1.
         11    1    4    4    0    0  0.81194812684E+00  0.17262355924E+01 -0.12918487278E+02  0.13058578134E+02  0.51100000000E-03 0. -1.
        -11    1    4    4    0    0 -0.53857181348E+01  0.25666624785E+02 -0.18861875052E+02  0.32304054210E+02  0.51100000000E-03 0.  1.
        -12    1    4    4    0    0 -0.22819222700E+00 -0.89981728683E+01  0.24694500812E+00  0.90044527039E+01  0.00000000000E+00 0.  1.
</event>
<event>
 8    1  0.1240174E-006  0.9118800E+02  0.7816164E-02  0.1184000E+00
        -11   -1    0    0    0    0  0.00000000000E+00  0.00000000000E+00  0.45593999997E+02  0.45594000000E+02  0.51100000000E-03 0.  1.
         11   -1    0    0    0    0 -0.00000000000E+00 -0.00000000000E+00 -0.45593999997E+02  0.45594000000E+02  0.51100000000E-03 0. -1.
         23    2    1    2    0    0  0.00000000000E+00  0.00000000000E+00  0.00000000000E+00  0.91188000000E+02  0.91188000000E+02 0.  0.
    9900012    2    3    3    0    0 -0.30291125976E+02 -0.14164507038E+02  0.15414016977E+02  0.54367116091E+02  0.40000072752E+02 0.  0.
         12    1    3    3    0    0  0.30291125976E+02  0.14164507038E+02 -0.15414016977E+02  0.36820883909E+02  0.00000000000E+00 0. -1.
         11    1    4    4    0    0 -0.43689385714E+01  0.13654662634E+01  0.10809004758E+02  0.11738258239E+02  0.51100000000E-03 0. -1.
        -11    1    4    4    0    0 -0.13365351336E+02 -0.12482219470E+02  0.16820861191E+02  0.24847128420E+02  0.51100000000E-03 0.  1.
         12    1    4    4    0    0 -0.12556836068E+02 -0.30477538311E+01 -0.12215848973E+02  0.17781729431E+02  0.00000000000E+00 0. -1.
</event>
<event>
 8    1  0.1240174E-006  0.9118800E+02  0.7816164E-02  0.1184000E+00
        -11   -1    0    0    0    0  0.00000000000E+00  0.00000000000E+00  0.45593999997E+02  0.45594000000E+02  0.51100000000E-03 0.  1.
         11   -1    0    0    0    0 -0.00000000000E+00 -0.00000000000E+00 -0.45593999997E+02  0.45594000000E+02  0.51100000000E-03 0. -1.
         23    2    1    2    0    0  0.00000000000E+00 -0.17763568394E-14  0.00000000000E+00  0.91188000000E+02  0.91188000000E+02 0.  0.
    9900012    2    3    3    0    0 -0.34283010176E+02 -0.12744924965E+02 -0.42452884287E+01  0.54367076968E+02  0.39999983563E+02 0.  0.
         12    1    3    3    0    0  0.34283010176E+02  0.12744924965E+02  0.42452884287E+01  0.36820923032E+02  0.00000000000E+00 0. -1.
         11    1    4    4    0    0 -0.59921786470E+01  0.19164404962E+00 -0.91833357729E+01  0.10967068367E+02  0.51100000000E-03 0. -1.
        -11    1    4    4    0    0 -0.12996661844E+02 -0.17120065436E+02  0.13497752362E+02  0.25381079147E+02  0.51100000000E-03 0.  1.
        -12    1    4    4    0    0 -0.15294169685E+02  0.41834964215E+01 -0.85597050175E+01  0.18018929454E+02  0.00000000000E+00 0.  1.
</event>
<event>
 8    1  0.1240174E-006  0.9118800E+02  0.7816164E-02  0.1184000E+00
        -11   -1    0    0    0    0  0.00000000000E+00  0.00000000000E+00  0.45593999997E+02  0.45594000000E+02  0.51100000000E-03 0.  1.
         11   -1    0    0    0    0 -0.00000000000E+00 -0.00000000000E+00 -0.45593999997E+02  0.45594000000E+02  0.51100000000E-03 0. -1.
         23    2    1    2    0    0  0.00000000000E+00 -0.71054273576E-14  0.00000000000E+00  0.91188000000E+02  0.91188000000E+02 0.  0.
    9900012    2    3    3    0    0  0.71087121098E+01  0.32975722979E+02 -0.14759636599E+02  0.54367096068E+02  0.40000027105E+02 0.  0.
         12    1    3    3    0    0 -0.71087121098E+01 -0.32975722979E+02  0.14759636599E+02  0.36820903932E+02  0.00000000000E+00 0. -1.
         11    1    4    4    0    0 -0.42653275255E+01 -0.62313031855E+01  0.20492259505E+01  0.78244159876E+01  0.51100000000E-03 0. -1.
        -11    1    4    4    0    0  0.13689758733E+02  0.23364252659E+02 -0.13220600135E+02  0.30134400022E+02  0.51100000000E-03 0.  1.
         12    1    4    4    0    0 -0.23157190982E+01  0.15842773506E+02 -0.35882624141E+01  0.16408280058E+02  0.00000000000E+00 0. -1.
</event>
<event>
 8    1  0.1240174E-006  0.9118800E+02  0.7816164E-02  0.1184000E+00
        -11   -1    0    0    0    0  0.00000000000E+00  0.00000000000E+00  0.45593999997E+02  0.45594000000E+02  0.51100000000E-03 0.  1.
         11   -1    0    0    0    0 -0.00000000000E+00 -0.00000000000E+00 -0.45593999997E+02  0.45594000000E+02  0.51100000000E-03 0. -1.
         23    2    1    2    0    0  0.00000000000E+00  0.88817841970E-15  0.17763568394E-14  0.91188000000E+02  0.91188000000E+02 0.  0.
    9900012    2    3    3    0    0  0.35925749203E+02  0.30128622898E+01  0.74861607052E+01  0.54367090219E+02  0.40000013772E+02 0.  0.
        -12    1    3    3    0    0 -0.35925749203E+02 -0.30128622898E+01 -0.74861607052E+01  0.36820909781E+02  0.00000000000E+00 0.  1.
         11    1    4    4    0    0  0.83795946380E+01  0.17891952061E+01 -0.53675042842E+01  0.10110832225E+02  0.51100000000E-03 0. -1.
        -11    1    4    4    0    0  0.80226423351E+01 -0.69745002118E+01 -0.89251518010E+01  0.13880373849E+02  0.51100000000E-03 0.  1.
        -12    1    4    4    0    0  0.19523512230E+02  0.81981672955E+01  0.21778816790E+02  0.30375884145E+02  0.00000000000E+00 0.  1.
</event>
<event>
 8    1  0.1240174E-006  0.9118800E+02  0.7816164E-02  0.1184000E+00
        -11   -1    0    0    0    0  0.00000000000E+00  0.00000000000E+00  0.45593999997E+02  0.45594000000E+02  0.51100000000E-03 0. -1.
         11   -1    0    0    0    0 -0.00000000000E+00 -0.00000000000E+00 -0.45593999997E+02  0.45594000000E+02  0.51100000000E-03 0.  1.
         23    2    1    2    0    0  0.00000000000E+00  0.35527136788E-14  0.35527136788E-14  0.91188000000E+02  0.91188000000E+02 0.  0.
    9900012    2    3    3    0    0 -0.63766367976E+01 -0.29493496649E+02 -0.21101003051E+02  0.54367079707E+02  0.39999989809E+02 0.  0.
         12    1    3    3    0    0  0.63766367976E+01  0.29493496649E+02  0.21101003051E+02  0.36820920293E+02  0.00000000000E+00 0. -1.
         11    1    4    4    0    0  0.41321247978E+01  0.90875214912E+00  0.75821606931E+01  0.86827096491E+01  0.51100000000E-03 0. -1.
        -11    1    4    4    0    0 -0.60016669264E+01 -0.19968665085E+02 -0.84916558707E+01  0.22513902613E+02  0.51100000000E-03 0.  1.
         12    1    4    4    0    0 -0.45070946691E+01 -0.10433583713E+02 -0.20191507873E+02  0.23170467446E+02  0.00000000000E+00 0. -1.
</event>
<event>
 8    1  0.1240174E-006  0.9118800E+02  0.7816164E-02  0.1184000E+00
        -11   -1    0    0    0    0  0.00000000000E+00  0.00000000000E+00  0.45593999997E+02  0.45594000000E+02  0.51100000000E-03 0.  1.
         11   -1    0    0    0    0 -0.00000000000E+00 -0.00000000000E+00 -0.45593999997E+02  0.45594000000E+02  0.51100000000E-03 0. -1.
         23    2    1    2    0    0  0.00000000000E+00  0.17763568394E-14 -0.35527136788E-14  0.91188000000E+02  0.91188000000E+02 0.  0.
    9900012    2    3    3    0    0 -0.29135902962E+02 -0.12480279128E+02  0.18738233928E+02  0.54367087202E+02  0.40000006895E+02 0.  0.
         12    1    3    3    0    0  0.29135902962E+02  0.12480279128E+02 -0.18738233928E+02  0.36820912798E+02  0.00000000000E+00 0. -1.
         11    1    4    4    0    0 -0.19410118067E+02  0.21292377315E+01  0.18709379449E+02  0.27043062259E+02  0.51100000000E-03 0. -1.
        -11    1    4    4    0    0 -0.25637369437E+01 -0.13687455186E+02  0.84045836610E+01  0.16265183779E+02  0.51100000000E-03 0.  1.
         12    1    4    4    0    0 -0.71620479510E+01 -0.92206167312E+00 -0.83757291818E+01  0.11058841165E+02  0.00000000000E+00 0. -1.
</event>
<event>
 8    1  0.1240174E-006  0.9118800E+02  0.7816164E-02  0.1184000E+00
        -11   -1    0    0    0    0  0.00000000000E+00  0.00000000000E+00  0.45593999997E+02  0.45594000000E+02  0.51100000000E-03 0.  1.
         11   -1    0    0    0    0 -0.00000000000E+00 -0.00000000000E+00 -0.45593999997E+02  0.45594000000E+02  0.51100000000E-03 0. -1.
         23    2    1    2    0    0  0.71054273576E-14  0.26645352591E-14 -0.17763568394E-14  0.91188000000E+02  0.91188000000E+02 0.  0.
    9900012    2    3    3    0    0  0.35756563254E+02 -0.50722286349E+01 -0.71777806291E+01  0.54367084017E+02  0.39999999634E+02 0.  0.
        -12    1    3    3    0    0 -0.35756563254E+02  0.50722286349E+01  0.71777806291E+01  0.36820915983E+02  0.00000000000E+00 0.  1.
         11    1    4    4    0    0  0.30559789710E+02  0.40275118482E+01  0.27315461590E+01  0.30944837105E+02  0.51100000000E-03 0. -1.
        -11    1    4    4    0    0  0.72960484178E+01  0.22489469661E+01  0.80146790785E+00  0.76767464488E+01  0.51100000000E-03 0.  1.
         12    1    4    4    0    0 -0.20992748734E+01 -0.11348687449E+02 -0.10710794696E+02  0.15745500463E+02  0.00000000000E+00 0. -1.
</event>
<event>
 8    1  0.1240174E-006  0.9118800E+02  0.7816164E-02  0.1184000E+00
        -11   -1    0    0    0    0  0.00000000000E+00  0.00000000000E+00  0.45593999997E+02  0.45594000000E+02  0.51100000000E-03 0.  1.
         11   -1    0    0    0    0 -0.00000000000E+00 -0.00000000000E+00 -0.45593999997E+02  0.45594000000E+02  0.51100000000E-03 0. -1.
         23    2    1    2    0    0  0.00000000000E+00  0.00000000000E+00 -0.66613381478E-15  0.91188000000E+02  0.91188000000E+02 0.  0.
    9900012    2    3    3    0    0  0.30166682880E+02  0.21063066368E+02  0.14489615712E+01  0.54367068311E+02  0.39999963829E+02 0.  0.
        -12    1    3    3    0    0 -0.30166682880E+02 -0.21063066368E+02 -0.14489615712E+01  0.36820931689E+02  0.00000000000E+00 0.  1.
         11    1    4    4    0    0 -0.50575571019E+01  0.91462447629E+01  0.66437579073E+01  0.12384352890E+02  0.51100000000E-03 0. -1.
        -11    1    4    4    0    0  0.27720442440E+01 -0.18919417762E+01  0.43041561019E+01  0.54579696761E+01  0.51100000000E-03 0.  1.
        -12    1    4    4    0    0  0.32452195738E+02  0.13808763381E+02 -0.94989524380E+01  0.36524745745E+02  0.00000000000E+00 0.  1.
</event>
<event>
 8    1  0.1240174E-006  0.9118800E+02  0.7816164E-02  0.1184000E+00
        -11   -1    0    0    0    0  0.00000000000E+00  0.00000000000E+00  0.45593999997E+02  0.45594000000E+02  0.51100000000E-03 0.  1.
         11   -1    0    0    0    0 -0.00000000000E+00 -0.00000000000E+00 -0.45593999997E+02  0.45594000000E+02  0.51100000000E-03 0. -1.
         23    2    1    2    0    0 -0.35527136788E-14  0.10658141036E-13 -0.17763568394E-14  0.91188000000E+02  0.91188000000E+02 0.  0.
    9900012    2    3    3    0    0 -0.22706349319E+02  0.26043832239E+02 -0.12724789994E+02  0.54367085053E+02  0.40000001996E+02 0.  0.
        -12    1    3    3    0    0  0.22706349319E+02 -0.26043832239E+02  0.12724789994E+02  0.36820914947E+02  0.00000000000E+00 0.  1.
         11    1    4    4    0    0 -0.17707019813E+01  0.58730494411E+01  0.10393091113E+01  0.62215961725E+01  0.51100000000E-03 0. -1.
        -11    1    4    4    0    0  0.13369130312E+01  0.13996753939E+02  0.81868662661E+01  0.16270256199E+02  0.51100000000E-03 0.  1.
         12    1    4    4    0    0 -0.22272560369E+02  0.61740288594E+01 -0.21950965372E+02  0.31875232682E+02  0.00000000000E+00 0. -1.
</event>
<event>
 8    1  0.1240174E-006  0.9118800E+02  0.7816164E-02  0.1184000E+00
        -11   -1    0    0    0    0  0.00000000000E+00  0.00000000000E+00  0.45593999997E+02  0.45594000000E+02  0.51100000000E-03 0. -1.
         11   -1    0    0    0    0 -0.00000000000E+00 -0.00000000000E+00 -0.45593999997E+02  0.45594000000E+02  0.51100000000E-03 0.  1.
         23    2    1    2    0    0  0.17763568394E-14  0.00000000000E+00  0.00000000000E+00  0.91188000000E+02  0.91188000000E+02 0.  0.
    9900012    2    3    3    0    0 -0.29875999041E+01  0.31119503307E+01 -0.36567328978E+02  0.54367088325E+02  0.40000009454E+02 0.  0.
         12    1    3    3    0    0  0.29875999041E+01 -0.31119503307E+01  0.36567328978E+02  0.36820911675E+02  0.00000000000E+00 0. -1.
         11    1    4    4    0    0  0.11519400496E+02 -0.64762320001E+01 -0.46028379767E+01  0.13993723107E+02  0.51100000000E-03 0. -1.
        -11    1    4    4    0    0  0.36708478197E+01  0.41270726037E+01 -0.92389380886E+01  0.10764099092E+02  0.51100000000E-03 0.  1.
         12    1    4    4    0    0 -0.18177848219E+02  0.54611097272E+01 -0.22725552912E+02  0.29609266126E+02  0.00000000000E+00 0. -1.
</event>
<event>
 8    1  0.1240174E-006  0.9118800E+02  0.7816164E-02  0.1184000E+00
        -11   -1    0    0    0    0  0.00000000000E+00  0.00000000000E+00  0.45593999997E+02  0.45594000000E+02  0.51100000000E-03 0.  1.
         11   -1    0    0    0    0 -0.00000000000E+00 -0.00000000000E+00 -0.45593999997E+02  0.45594000000E+02  0.51100000000E-03 0. -1.
         23    2    1    2    0    0  0.00000000000E+00 -0.35527136788E-14 -0.35527136788E-14  0.91188000000E+02  0.91188000000E+02 0.  0.
    9900012    2    3    3    0    0  0.97853576102E+01 -0.21551554892E+02 -0.28205620022E+02  0.54367085527E+02  0.40000003077E+02 0.  0.
         12    1    3    3    0    0 -0.97853576102E+01  0.21551554892E+02  0.28205620022E+02  0.36820914473E+02  0.00000000000E+00 0. -1.
         11    1    4    4    0    0  0.18098048562E+02 -0.94629039802E+01  0.20456430330E+01  0.20524876837E+02  0.51100000000E-03 0. -1.
        -11    1    4    4    0    0 -0.61969160334E+01 -0.10503321896E+02 -0.21705074599E+02  0.24896421486E+02  0.51100000000E-03 0.  1.
         12    1    4    4    0    0 -0.21157749187E+01 -0.15853290157E+01 -0.85461884551E+01  0.89457872043E+01  0.00000000000E+00 0. -1.
</event>
<event>
 8    1  0.1240174E-006  0.9118800E+02  0.7816164E-02  0.1184000E+00
        -11   -1    0    0    0    0  0.00000000000E+00  0.00000000000E+00  0.45593999997E+02  0.45594000000E+02  0.51100000000E-03 0. -1.
         11   -1    0    0    0    0 -0.00000000000E+00 -0.00000000000E+00 -0.45593999997E+02  0.45594000000E+02  0.51100000000E-03 0.  1.
         23    2    1    2    0    0  0.00000000000E+00  0.00000000000E+00 -0.35527136788E-14  0.91188000000E+02  0.91188000000E+02 0.  0.
    9900012    2    3    3    0    0 -0.73305966803E+01  0.23784415479E+02  0.27135632467E+02  0.54367100816E+02  0.40000037930E+02 0.  0.
        -12    1    3    3    0    0  0.73305966803E+01 -0.23784415479E+02 -0.27135632467E+02  0.36820899184E+02  0.00000000000E+00 0.  1.
         11    1    4    4    0    0  0.44976606330E+01  0.73515433872E+01  0.65793059913E+01  0.10842573907E+02  0.51100000000E-03 0. -1.
        -11    1    4    4    0    0  0.16393826204E+01  0.10804840726E+02 -0.65478653059E+01  0.12739964632E+02  0.51100000000E-03 0.  1.
         12    1    4    4    0    0 -0.13467639934E+02  0.56280313652E+01  0.27104191782E+02  0.30784562277E+02  0.00000000000E+00 0. -1.
</event>
<event>
 8    1  0.1240174E-006  0.9118800E+02  0.7816164E-02  0.1184000E+00
        -11   -1    0    0    0    0  0.00000000000E+00  0.00000000000E+00  0.45593999997E+02  0.45594000000E+02  0.51100000000E-03 0. -1.
         11   -1    0    0    0    0 -0.00000000000E+00 -0.00000000000E+00 -0.45593999997E+02  0.45594000000E+02  0.51100000000E-03 0.  1.
         23    2    1    2    0    0  0.00000000000E+00  0.00000000000E+00  0.00000000000E+00  0.91188000000E+02  0.91188000000E+02 0.  0.
    9900012    2    3    3    0    0 -0.26206918774E+02 -0.14475754476E+02 -0.21434327225E+02  0.54367076018E+02  0.39999981399E+02 0.  0.
        -12    1    3    3    0    0  0.26206918774E+02  0.14475754476E+02  0.21434327225E+02  0.36820923982E+02  0.00000000000E+00 0.  1.
         11    1    4    4    0    0 -0.12882159150E+02  0.15992305586E+01 -0.87692854315E+01  0.15665501268E+02  0.51100000000E-03 0. -1.
        -11    1    4    4    0    0 -0.10160710829E+02  0.63583662436E+01  0.13494159539E+01  0.12061914837E+02  0.51100000000E-03 0.  1.
        -12    1    4    4    0    0 -0.31640487945E+01 -0.22433351278E+02 -0.14014457748E+02  0.26639659913E+02  0.00000000000E+00 0.  1.
</event>
<event>
 8    1  0.1240174E-006  0.9118800E+02  0.7816164E-02  0.1184000E+00
        -11   -1    0    0    0    0  0.00000000000E+00  0.00000000000E+00  0.45593999997E+02  0.45594000000E+02  0.51100000000E-03 0. -1.
         11   -1    0    0    0    0 -0.00000000000E+00 -0.00000000000E+00 -0.45593999997E+02  0.45594000000E+02  0.51100000000E-03 0.  1.
         23    2    1    2    0    0  0.22204460493E-15  0.00000000000E+00  0.00000000000E+00  0.91188000000E+02  0.91188000000E+02 0.  0.
    9900012    2    3    3    0    0 -0.16410832476E+01 -0.32108212963E+02  0.17948556305E+02  0.54367066180E+02  0.39999958971E+02 0.  0.
        -12    1    3    3    0    0  0.16410832476E+01  0.32108212963E+02 -0.17948556305E+02  0.36820933820E+02  0.00000000000E+00 0.  1.
         11    1    4    4    0    0 -0.20759992309E+01 -0.23507054602E+01  0.13126983456E+02  0.13496417446E+02  0.51100000000E-03 0. -1.
        -11    1    4    4    0    0  0.11083119989E+02 -0.27475382914E+02  0.45760829657E+01  0.29977871014E+02  0.51100000000E-03 0.  1.
        -12    1    4    4    0    0 -0.10648204005E+02 -0.22821245891E+01  0.24548988335E+00  0.10892777720E+02  0.00000000000E+00 0.  1.
</event>
<event>
 8    1  0.1240174E-006  0.9118800E+02  0.7816164E-02  0.1184000E+00
        -11   -1    0    0    0    0  0.00000000000E+00  0.00000000000E+00  0.45593999997E+02  0.45594000000E+02  0.51100000000E-03 0.  1.
         11   -1    0    0    0    0 -0.00000000000E+00 -0.00000000000E+00 -0.45593999997E+02  0.45594000000E+02  0.51100000000E-03 0. -1.
         23    2    1    2    0    0  0.00000000000E+00  0.00000000000E+00  0.35527136788E-14  0.91188000000E+02  0.91188000000E+02 0.  0.
    9900012    2    3    3    0    0  0.14080505314E+02 -0.20645029432E+02  0.27042621152E+02  0.54367065344E+02  0.39999957065E+02 0.  0.
         12    1    3    3    0    0 -0.14080505314E+02  0.20645029432E+02 -0.27042621152E+02  0.36820934656E+02  0.00000000000E+00 0. -1.
         11    1    4    4    0    0  0.70949310834E+00 -0.19764044283E+01 -0.73475321379E+01  0.76417134017E+01  0.51100000000E-03 0. -1.
        -11    1    4    4    0    0  0.17043315099E+02 -0.61336821074E+01  0.23806136912E+02  0.29913689186E+02  0.51100000000E-03 0.  1.
         12    1    4    4    0    0 -0.36723028933E+01 -0.12534942896E+02  0.10584016378E+02  0.16811662757E+02  0.00000000000E+00 0. -1.
</event>
<event>
 8    1  0.1240174E-006  0.9118800E+02  0.7816164E-02  0.1184000E+00
        -11   -1    0    0    0    0  0.00000000000E+00  0.00000000000E+00  0.45593999997E+02  0.45594000000E+02  0.51100000000E-03 0.  1.
         11   -1    0    0    0    0 -0.00000000000E+00 -0.00000000000E+00 -0.45593999997E+02  0.45594000000E+02  0.51100000000E-03 0. -1.
         23    2    1    2    0    0  0.00000000000E+00  0.66613381478E-15  0.00000000000E+00  0.91188000000E+02  0.91188000000E+02 0.  0.
    9900012    2    3    3    0    0  0.89104848138E+01 -0.12333076481E+01 -0.35705218616E+02  0.54367076278E+02  0.39999981991E+02 0.  0.
        -12    1    3    3    0    0 -0.89104848138E+01  0.12333076481E+01  0.35705218616E+02  0.36820923722E+02  0.00000000000E+00 0.  1.
         11    1    4    4    0    0  0.26626913410E+01  0.69955629774E+01 -0.17766353284E+02  0.19278774230E+02  0.51100000000E-03 0. -1.
        -11    1    4    4    0    0  0.18220789030E+01  0.97476202965E+01 -0.95083698200E+00  0.99619357658E+01  0.51100000000E-03 0.  1.
         12    1    4    4    0    0  0.44257145698E+01 -0.17976490922E+02 -0.16988028349E+02  0.25126366282E+02  0.00000000000E+00 0. -1.
</event>
<event>
 8    1  0.1240174E-006  0.9118800E+02  0.7816164E-02  0.1184000E+00
        -11   -1    0    0    0    0  0.00000000000E+00  0.00000000000E+00  0.45593999997E+02  0.45594000000E+02  0.51100000000E-03 0. -1.
         11   -1    0    0    0    0 -0.00000000000E+00 -0.00000000000E+00 -0.45593999997E+02  0.45594000000E+02  0.51100000000E-03 0.  1.
         23    2    1    2    0    0 -0.17763568394E-14 -0.71054273576E-14 -0.44408920985E-15  0.91188000000E+02  0.91188000000E+02 0.  0.
    9900012    2    3    3    0    0 -0.14628288284E+02 -0.33760879111E+02  0.14122680700E+01  0.54367105421E+02  0.40000048428E+02 0.  0.
         12    1    3    3    0    0  0.14628288284E+02  0.33760879111E+02 -0.14122680700E+01  0.36820894579E+02  0.00000000000E+00 0. -1.
         11    1    4    4    0    0 -0.22847766035E+01 -0.15347272427E+02  0.16383533624E+02  0.22564998324E+02  0.51100000000E-03 0. -1.
        -11    1    4    4    0    0 -0.14594057429E+02 -0.98116457574E+01 -0.14677138813E+02  0.22905748377E+02  0.51100000000E-03 0.  1.
         12    1    4    4    0    0  0.22505457483E+01 -0.86019609269E+01 -0.29412674131E+00  0.88963587210E+01  0.00000000000E+00 0. -1.
</event>
<event>
 8    1  0.1240174E-006  0.9118800E+02  0.7816164E-02  0.1184000E+00
        -11   -1    0    0    0    0  0.00000000000E+00  0.00000000000E+00  0.45593999997E+02  0.45594000000E+02  0.51100000000E-03 0.  1.
         11   -1    0    0    0    0 -0.00000000000E+00 -0.00000000000E+00 -0.45593999997E+02  0.45594000000E+02  0.51100000000E-03 0. -1.
         23    2    1    2    0    0  0.00000000000E+00  0.00000000000E+00  0.00000000000E+00  0.91188000000E+02  0.91188000000E+02 0.  0.
    9900012    2    3    3    0    0  0.15553332170E+02 -0.26226038640E+02 -0.20641435935E+02  0.54367080378E+02  0.39999991338E+02 0.  0.
        -12    1    3    3    0    0 -0.15553332170E+02  0.26226038640E+02  0.20641435935E+02  0.36820919622E+02  0.00000000000E+00 0.  1.
         11    1    4    4    0    0  0.13181129630E+02 -0.15496976311E+01  0.48822687271E+01  0.14141438727E+02  0.51100000000E-03 0. -1.
        -11    1    4    4    0    0  0.24441435569E+01 -0.56544674420E+01 -0.19225171055E+02  0.20187967756E+02  0.51100000000E-03 0.  1.
         12    1    4    4    0    0 -0.71941017598E-01 -0.19021873567E+02 -0.62985336073E+01  0.20037673895E+02  0.00000000000E+00 0. -1.
</event>
<event>
 8    1  0.1240174E-006  0.9118800E+02  0.7816164E-02  0.1184000E+00
        -11   -1    0    0    0    0  0.00000000000E+00  0.00000000000E+00  0.45593999997E+02  0.45594000000E+02  0.51100000000E-03 0.  1.
         11   -1    0    0    0    0 -0.00000000000E+00 -0.00000000000E+00 -0.45593999997E+02  0.45594000000E+02  0.51100000000E-03 0. -1.
         23    2    1    2    0    0  0.00000000000E+00  0.00000000000E+00  0.00000000000E+00  0.91188000000E+02  0.91188000000E+02 0.  0.
    9900012    2    3    3    0    0 -0.80557530919E+01  0.97466155986E+01 -0.34581466450E+02  0.54367224678E+02  0.40000320296E+02 0.  0.
        -12    1    3    3    0    0  0.80557530919E+01 -0.97466155986E+01  0.34581466450E+02  0.36820775322E+02  0.00000000000E+00 0.  1.
         11    1    4    4    0    0 -0.25100928788E+00  0.17916128761E+02 -0.83804770624E+01  0.19780876409E+02  0.51100000000E-03 0.  1.
        -11    1    4    4    0    0 -0.99679936495E+01  0.36045356601E+01 -0.11899246627E+02  0.15935672100E+02  0.51100000000E-03 0. -1.
        -12    1    4    4    0    0  0.21632498455E+01 -0.11774048823E+02 -0.14301742761E+02  0.18650676169E+02  0.00000000000E+00 0.  1.
</event>
<event>
 8    1  0.1240174E-006  0.9118800E+02  0.7816164E-02  0.1184000E+00
        -11   -1    0    0    0    0  0.00000000000E+00  0.00000000000E+00  0.45593999997E+02  0.45594000000E+02  0.51100000000E-03 0.  1.
         11   -1    0    0    0    0 -0.00000000000E+00 -0.00000000000E+00 -0.45593999997E+02  0.45594000000E+02  0.51100000000E-03 0. -1.
         23    2    1    2    0    0  0.00000000000E+00  0.88817841970E-15  0.00000000000E+00  0.91188000000E+02  0.91188000000E+02 0.  0.
    9900012    2    3    3    0    0  0.10819406656E+02  0.39439693684E+01 -0.34973816329E+02  0.54367051025E+02  0.39999924422E+02 0.  0.
        -12    1    3    3    0    0 -0.10819406656E+02 -0.39439693684E+01  0.34973816329E+02  0.36820948975E+02  0.00000000000E+00 0.  1.
         11    1    4    4    0    0  0.14198031266E+02  0.74509200505E+01 -0.33439331659E+02  0.37084891849E+02  0.51100000000E-03 0. -1.
        -11    1    4    4    0    0  0.17761682521E+00  0.50274023069E+01  0.40697281607E+01  0.64706266509E+01  0.51100000000E-03 0.  1.
         12    1    4    4    0    0 -0.35562414344E+01 -0.85343529890E+01 -0.56042128315E+01  0.10811532525E+02  0.00000000000E+00 0. -1.
</event>
<event>
 8    1  0.1240174E-006  0.9118800E+02  0.7816164E-02  0.1184000E+00
        -11   -1    0    0    0    0  0.00000000000E+00  0.00000000000E+00  0.45593999997E+02  0.45594000000E+02  0.51100000000E-03 0.  1.
         11   -1    0    0    0    0 -0.00000000000E+00 -0.00000000000E+00 -0.45593999997E+02  0.45594000000E+02  0.51100000000E-03 0. -1.
         23    2    1    2    0    0  0.00000000000E+00  0.00000000000E+00 -0.36082248300E-15  0.91188000000E+02  0.91188000000E+02 0.  0.
    9900012    2    3    3    0    0 -0.35868866420E+02 -0.83161081540E+01 -0.21561696096E+00  0.54367085783E+02  0.40000003660E+02 0.  0.
        -12    1    3    3    0    0  0.35868866420E+02  0.83161081540E+01  0.21561696096E+00  0.36820914217E+02  0.00000000000E+00 0.  1.
         11    1    4    4    0    0 -0.15104876181E+02 -0.26327679843E+01 -0.88639304763E+01  0.17710392865E+02  0.51100000000E-03 0. -1.
        -11    1    4    4    0    0 -0.11212078934E+02 -0.87325213906E+01  0.18008004422E+02  0.22940267378E+02  0.51100000000E-03 0.  1.
        -12    1    4    4    0    0 -0.95519113055E+01  0.30491812209E+01 -0.93596909071E+01  0.13716425540E+02  0.00000000000E+00 0.  1.
</event>
<event>
 8    1  0.1240174E-006  0.9118800E+02  0.7816164E-02  0.1184000E+00
        -11   -1    0    0    0    0  0.00000000000E+00  0.00000000000E+00  0.45593999997E+02  0.45594000000E+02  0.51100000000E-03 0.  1.
         11   -1    0    0    0    0 -0.00000000000E+00 -0.00000000000E+00 -0.45593999997E+02  0.45594000000E+02  0.51100000000E-03 0. -1.
         23    2    1    2    0    0 -0.17763568394E-14  0.00000000000E+00 -0.17763568394E-14  0.91188000000E+02  0.91188000000E+02 0.  0.
    9900012    2    3    3    0    0 -0.15017169053E+02  0.31440538861E+02  0.11906200480E+02  0.54367075784E+02  0.39999980865E+02 0.  0.
         12    1    3    3    0    0  0.15017169053E+02 -0.31440538861E+02 -0.11906200480E+02  0.36820924216E+02  0.00000000000E+00 0. -1.
         11    1    4    4    0    0  0.30282364347E+01  0.11500260613E+02 -0.12360556962E+02  0.17152538550E+02  0.51100000000E-03 0. -1.
        -11    1    4    4    0    0 -0.75016706255E+01  0.28037410870E+01  0.56340983168E+01  0.97917868829E+01  0.51100000000E-03 0.  1.
         12    1    4    4    0    0 -0.10543734862E+02  0.17136537162E+02  0.18632659125E+02  0.27422750351E+02  0.00000000000E+00 0. -1.
</event>
<event>
 8    1  0.1240174E-006  0.9118800E+02  0.7816164E-02  0.1184000E+00
        -11   -1    0    0    0    0  0.00000000000E+00  0.00000000000E+00  0.45593999997E+02  0.45594000000E+02  0.51100000000E-03 0.  1.
         11   -1    0    0    0    0 -0.00000000000E+00 -0.00000000000E+00 -0.45593999997E+02  0.45594000000E+02  0.51100000000E-03 0. -1.
         23    2    1    2    0    0  0.10658141036E-13  0.35527136788E-14 -0.35527136788E-14  0.91188000000E+02  0.91188000000E+02 0.  0.
    9900012    2    3    3    0    0 -0.23548743048E+02 -0.16797014764E+02  0.22783752934E+02  0.54367049417E+02  0.39999920755E+02 0.  0.
         12    1    3    3    0    0  0.23548743048E+02  0.16797014764E+02 -0.22783752934E+02  0.36820950583E+02  0.00000000000E+00 0. -1.
         11    1    4    4    0    0 -0.91417814414E+01 -0.21745521791E+02  0.31307918200E+01  0.23795834584E+02  0.51100000000E-03 0. -1.
        -11    1    4    4    0    0 -0.57469286430E+01  0.30032597267E+01  0.20645702561E+02  0.21640050655E+02  0.51100000000E-03 0.  1.
        -12    1    4    4    0    0 -0.86600329633E+01  0.19452473004E+01 -0.99274144734E+00  0.89311641775E+01  0.00000000000E+00 0.  1.
</event>
<event>
 8    1  0.1240174E-006  0.9118800E+02  0.7816164E-02  0.1184000E+00
        -11   -1    0    0    0    0  0.00000000000E+00  0.00000000000E+00  0.45593999997E+02  0.45594000000E+02  0.51100000000E-03 0. -1.
         11   -1    0    0    0    0 -0.00000000000E+00 -0.00000000000E+00 -0.45593999997E+02  0.45594000000E+02  0.51100000000E-03 0.  1.
         23    2    1    2    0    0  0.17763568394E-14  0.00000000000E+00 -0.88817841970E-15  0.91188000000E+02  0.91188000000E+02 0.  0.
    9900012    2    3    3    0    0  0.15920470773E+02  0.32663620087E+02  0.59504251396E+01  0.54367068098E+02  0.39999963343E+02 0.  0.
         12    1    3    3    0    0 -0.15920470773E+02 -0.32663620087E+02 -0.59504251396E+01  0.36820931902E+02  0.00000000000E+00 0. -1.
         11    1    4    4    0    0  0.60924452836E+01  0.19753328231E+02  0.14967208366E+02  0.25521151860E+02  0.51100000000E-03 0. -1.
        -11    1    4    4    0    0 -0.33750126903E+01  0.13379446432E+02 -0.70294379050E+01  0.15485906335E+02  0.51100000000E-03 0.  1.
         12    1    4    4    0    0  0.13203038179E+02 -0.46915457683E+00 -0.19873453210E+01  0.13360009903E+02  0.00000000000E+00 0. -1.
</event>
<event>
 8    1  0.1240174E-006  0.9118800E+02  0.7816164E-02  0.1184000E+00
        -11   -1    0    0    0    0  0.00000000000E+00  0.00000000000E+00  0.45593999997E+02  0.45594000000E+02  0.51100000000E-03 0.  1.
         11   -1    0    0    0    0 -0.00000000000E+00 -0.00000000000E+00 -0.45593999997E+02  0.45594000000E+02  0.51100000000E-03 0. -1.
         23    2    1    2    0    0  0.00000000000E+00  0.88817841970E-15  0.00000000000E+00  0.91188000000E+02  0.91188000000E+02 0.  0.
    9900012    2    3    3    0    0  0.30592048682E+02  0.70360565198E+01  0.19245780042E+02  0.54367087690E+02  0.40000008007E+02 0.  0.
         12    1    3    3    0    0 -0.30592048682E+02 -0.70360565198E+01 -0.19245780042E+02  0.36820912310E+02  0.00000000000E+00 0. -1.
         11    1    4    4    0    0  0.95538160503E+01  0.62615120009E+01 -0.10798992530E+02  0.15719420269E+02  0.51100000000E-03 0. -1.
        -11    1    4    4    0    0  0.71470700358E+01  0.42530451537E+01  0.18393761077E+02  0.20186615615E+02  0.51100000000E-03 0.  1.
        -12    1    4    4    0    0  0.13891162596E+02 -0.34785006348E+01  0.11651011495E+02  0.18461051806E+02  0.00000000000E+00 0.  1.
</event>
<event>
 8    1  0.1240174E-006  0.9118800E+02  0.7816164E-02  0.1184000E+00
        -11   -1    0    0    0    0  0.00000000000E+00  0.00000000000E+00  0.45593999997E+02  0.45594000000E+02  0.51100000000E-03 0. -1.
         11   -1    0    0    0    0 -0.00000000000E+00 -0.00000000000E+00 -0.45593999997E+02  0.45594000000E+02  0.51100000000E-03 0.  1.
         23    2    1    2    0    0 -0.35527136788E-14 -0.13322676296E-14  0.00000000000E+00  0.91188000000E+02  0.91188000000E+02 0.  0.
    9900012    2    3    3    0    0 -0.10802740482E+02  0.27651627278E+01 -0.35091791585E+02  0.54367093391E+02  0.40000021005E+02 0.  0.
         12    1    3    3    0    0  0.10802740482E+02 -0.27651627278E+01  0.35091791585E+02  0.36820906609E+02  0.00000000000E+00 0. -1.
         11    1    4    4    0    0 -0.33302901583E+01  0.11110532930E+02 -0.16811831470E+02  0.20424799930E+02  0.51100000000E-03 0. -1.
        -11    1    4    4    0    0 -0.16279431865E+02 -0.54198767868E+01 -0.17688943058E+02  0.24643329179E+02  0.51100000000E-03 0.  1.
        -12    1    4    4    0    0  0.88069815407E+01 -0.29254934152E+01 -0.59101705634E+00  0.92989642832E+01  0.00000000000E+00 0.  1.
</event>
<event>
 8    1  0.1240174E-006  0.9118800E+02  0.7816164E-02  0.1184000E+00
        -11   -1    0    0    0    0  0.00000000000E+00  0.00000000000E+00  0.45593999997E+02  0.45594000000E+02  0.51100000000E-03 0.  1.
         11   -1    0    0    0    0 -0.00000000000E+00 -0.00000000000E+00 -0.45593999997E+02  0.45594000000E+02  0.51100000000E-03 0. -1.
         23    2    1    2    0    0  0.00000000000E+00  0.17763568394E-14 -0.17763568394E-14  0.91188000000E+02  0.91188000000E+02 0.  0.
    9900012    2    3    3    0    0  0.34192801950E+02  0.92622525172E+01 -0.10042065442E+02  0.54367080603E+02  0.39999991851E+02 0.  0.
        -12    1    3    3    0    0 -0.34192801950E+02 -0.92622525172E+01  0.10042065442E+02  0.36820919397E+02  0.00000000000E+00 0.  1.
         11    1    4    4    0    0  0.10047397845E+02 -0.65277083072E+01 -0.32056128309E+01  0.12403109815E+02  0.51100000000E-03 0.  1.
        -11    1    4    4    0    0  0.28123010989E+02  0.20460399599E+02 -0.80798160000E+01  0.35704553291E+02  0.51100000000E-03 0. -1.
        -12    1    4    4    0    0 -0.39776068848E+01 -0.46704387749E+01  0.12433633892E+01  0.62594174967E+01  0.00000000000E+00 0.  1.
</event>
<event>
 8    1  0.1240174E-006  0.9118800E+02  0.7816164E-02  0.1184000E+00
        -11   -1    0    0    0    0  0.00000000000E+00  0.00000000000E+00  0.45593999997E+02  0.45594000000E+02  0.51100000000E-03 0.  1.
         11   -1    0    0    0    0 -0.00000000000E+00 -0.00000000000E+00 -0.45593999997E+02  0.45594000000E+02  0.51100000000E-03 0. -1.
         23    2    1    2    0    0 -0.35527136788E-14  0.00000000000E+00 -0.35527136788E-14  0.91188000000E+02  0.91188000000E+02 0.  0.
    9900012    2    3    3    0    0 -0.23124953594E+02 -0.45405302047E+01 -0.28291347345E+02  0.54367078938E+02  0.39999988055E+02 0.  0.
        -12    1    3    3    0    0  0.23124953594E+02  0.45405302047E+01  0.28291347345E+02  0.36820921062E+02  0.00000000000E+00 0.  1.
         11    1    4    4    0    0 -0.99515099451E+01  0.10288163105E+02 -0.29551217047E+02  0.32835244471E+02  0.51100000000E-03 0. -1.
        -11    1    4    4    0    0 -0.87375171373E+01 -0.14233277884E+02  0.25005057303E+01  0.16887360190E+02  0.51100000000E-03 0.  1.
         12    1    4    4    0    0 -0.44359265121E+01 -0.59541542645E+00 -0.12406360282E+01  0.46444742765E+01  0.00000000000E+00 0. -1.
</event>
<event>
 8    1  0.1240174E-006  0.9118800E+02  0.7816164E-02  0.1184000E+00
        -11   -1    0    0    0    0  0.00000000000E+00  0.00000000000E+00  0.45593999997E+02  0.45594000000E+02  0.51100000000E-03 0.  1.
         11   -1    0    0    0    0 -0.00000000000E+00 -0.00000000000E+00 -0.45593999997E+02  0.45594000000E+02  0.51100000000E-03 0. -1.
         23    2    1    2    0    0  0.00000000000E+00 -0.35527136788E-14  0.00000000000E+00  0.91188000000E+02  0.91188000000E+02 0.  0.
    9900012    2    3    3    0    0  0.22150255162E+02  0.21666372988E+02  0.19892580303E+02  0.54367078321E+02  0.39999986647E+02 0.  0.
         12    1    3    3    0    0 -0.22150255162E+02 -0.21666372988E+02 -0.19892580303E+02  0.36820921679E+02  0.00000000000E+00 0. -1.
         11    1    4    4    0    0  0.16711680581E+02 -0.34033419391E+01  0.83126907296E+01  0.18972712817E+02  0.51100000000E-03 0.  1.
        -11    1    4    4    0    0  0.37925197036E+01 -0.32132265085E+01  0.29415282478E+01  0.57758652158E+01  0.51100000000E-03 0. -1.
         12    1    4    4    0    0  0.16460548773E+01  0.28282941436E+02  0.86383613261E+01  0.29618500288E+02  0.00000000000E+00 0. -1.
</event>
<event>
 8    1  0.1240174E-006  0.9118800E+02  0.7816164E-02  0.1184000E+00
        -11   -1    0    0    0    0  0.00000000000E+00  0.00000000000E+00  0.45593999997E+02  0.45594000000E+02  0.51100000000E-03 0.  1.
         11   -1    0    0    0    0 -0.00000000000E+00 -0.00000000000E+00 -0.45593999997E+02  0.45594000000E+02  0.51100000000E-03 0. -1.
         23    2    1    2    0    0  0.00000000000E+00  0.88817841970E-15  0.00000000000E+00  0.91188000000E+02  0.91188000000E+02 0.  0.
    9900012    2    3    3    0    0 -0.53557978531E+01 -0.43138930414E+01 -0.36172995233E+02  0.54367084368E+02  0.40000000434E+02 0.  0.
        -12    1    3    3    0    0  0.53557978531E+01  0.43138930414E+01  0.36172995233E+02  0.36820915632E+02  0.00000000000E+00 0.  1.
         11    1    4    4    0    0 -0.12291057861E+02 -0.69345228549E+00 -0.17595814866E+02  0.21474721895E+02  0.51100000000E-03 0. -1.
        -11    1    4    4    0    0 -0.48141568271E+01  0.87870926056E+01 -0.60479969953E+01  0.11703305957E+02  0.51100000000E-03 0.  1.
         12    1    4    4    0    0  0.11749416835E+02 -0.12407533362E+02 -0.12529183372E+02  0.21189056516E+02  0.00000000000E+00 0. -1.
</event>
<event>
 8    1  0.1240174E-006  0.9118800E+02  0.7816164E-02  0.1184000E+00
        -11   -1    0    0    0    0  0.00000000000E+00  0.00000000000E+00  0.45593999997E+02  0.45594000000E+02  0.51100000000E-03 0.  1.
         11   -1    0    0    0    0 -0.00000000000E+00 -0.00000000000E+00 -0.45593999997E+02  0.45594000000E+02  0.51100000000E-03 0. -1.
         23    2    1    2    0    0 -0.17763568394E-14 -0.35527136788E-14  0.00000000000E+00  0.91188000000E+02  0.91188000000E+02 0.  0.
    9900012    2    3    3    0    0  0.13560686647E+02  0.17539885466E+02  0.29398099387E+02  0.54366972691E+02  0.39999745843E+02 0.  0.
         12    1    3    3    0    0 -0.13560686647E+02 -0.17539885466E+02 -0.29398099387E+02  0.36821027309E+02  0.00000000000E+00 0. -1.
         11    1    4    4    0    0  0.50020058728E+01 -0.35067802425E+00 -0.49985745870E+01  0.70801685002E+01  0.51100000000E-03 0. -1.
        -11    1    4    4    0    0  0.12872121625E+02  0.13187985059E+02  0.36229866818E+02  0.40647481041E+02  0.51100000000E-03 0.  1.
        -12    1    4    4    0    0 -0.43134408512E+01  0.47025784314E+01 -0.18331928444E+01  0.66393231497E+01  0.00000000000E+00 0.  1.
</event>
<event>
 8    1  0.1240174E-006  0.9118800E+02  0.7816164E-02  0.1184000E+00
        -11   -1    0    0    0    0  0.00000000000E+00  0.00000000000E+00  0.45593999997E+02  0.45594000000E+02  0.51100000000E-03 0. -1.
         11   -1    0    0    0    0 -0.00000000000E+00 -0.00000000000E+00 -0.45593999997E+02  0.45594000000E+02  0.51100000000E-03 0.  1.
         23    2    1    2    0    0  0.00000000000E+00  0.00000000000E+00  0.00000000000E+00  0.91188000000E+02  0.91188000000E+02 0.  0.
    9900012    2    3    3    0    0 -0.17171654817E+02 -0.30420843389E+02 -0.11639871300E+02  0.54367081414E+02  0.39999993699E+02 0.  0.
         12    1    3    3    0    0  0.17171654817E+02  0.30420843389E+02  0.11639871300E+02  0.36820918586E+02  0.00000000000E+00 0. -1.
         11    1    4    4    0    0  0.56263925174E+01 -0.63175557678E+01  0.71440964708E+01  0.11072755677E+02  0.51100000000E-03 0. -1.
        -11    1    4    4    0    0 -0.63209041572E+01 -0.13328792176E+02  0.17408168520E+01  0.14853988481E+02  0.51100000000E-03 0.  1.
        -12    1    4    4    0    0 -0.16477143177E+02 -0.10774495446E+02 -0.20524784623E+02  0.28440337255E+02  0.00000000000E+00 0.  1.
</event>
<event>
 8    1  0.1240174E-006  0.9118800E+02  0.7816164E-02  0.1184000E+00
        -11   -1    0    0    0    0  0.00000000000E+00  0.00000000000E+00  0.45593999997E+02  0.45594000000E+02  0.51100000000E-03 0. -1.
         11   -1    0    0    0    0 -0.00000000000E+00 -0.00000000000E+00 -0.45593999997E+02  0.45594000000E+02  0.51100000000E-03 0.  1.
         23    2    1    2    0    0  0.00000000000E+00  0.00000000000E+00 -0.17763568394E-14  0.91188000000E+02  0.91188000000E+02 0.  0.
    9900012    2    3    3    0    0 -0.27747901301E+02 -0.22445829989E+02 -0.90566430691E+01  0.54367026436E+02  0.39999868367E+02 0.  0.
         12    1    3    3    0    0  0.27747901301E+02  0.22445829989E+02  0.90566430691E+01  0.36820973564E+02  0.00000000000E+00 0. -1.
         11    1    4    4    0    0 -0.18129835743E+02 -0.26362995950E+02  0.28910259560E+01  0.32125636660E+02  0.51100000000E-03 0. -1.
        -11    1    4    4    0    0 -0.15271681833E+01 -0.55876026089E+01 -0.15510486286E+01  0.59966071811E+01  0.51100000000E-03 0.  1.
         12    1    4    4    0    0 -0.80908973746E+01  0.95047685693E+01 -0.10396620397E+02  0.16244782595E+02  0.00000000000E+00 0. -1.
</event>
<event>
 8    1  0.1240174E-006  0.9118800E+02  0.7816164E-02  0.1184000E+00
        -11   -1    0    0    0    0  0.00000000000E+00  0.00000000000E+00  0.45593999997E+02  0.45594000000E+02  0.51100000000E-03 0. -1.
         11   -1    0    0    0    0 -0.00000000000E+00 -0.00000000000E+00 -0.45593999997E+02  0.45594000000E+02  0.51100000000E-03 0.  1.
         23    2    1    2    0    0  0.00000000000E+00 -0.35527136788E-14  0.71054273576E-14  0.91188000000E+02  0.91188000000E+02 0.  0.
    9900012    2    3    3    0    0  0.29407803642E+01 -0.17460275320E+02  0.32284214117E+02  0.54367083600E+02  0.39999998682E+02 0.  0.
        -12    1    3    3    0    0 -0.29407803642E+01  0.17460275320E+02 -0.32284214117E+02  0.36820916400E+02  0.00000000000E+00 0.  1.
         11    1    4    4    0    0  0.11503521802E+01 -0.15872109474E+01 -0.10847805193E+01  0.22403789336E+01  0.51100000000E-03 0. -1.
        -11    1    4    4    0    0  0.15278845571E+02 -0.18191646757E+01  0.24463400093E+01  0.15580021239E+02  0.51100000000E-03 0.  1.
         12    1    4    4    0    0 -0.13488417387E+02 -0.14053899697E+02  0.30922654627E+02  0.36546683427E+02  0.00000000000E+00 0. -1.
</event>
<event>
 8    1  0.1240174E-006  0.9118800E+02  0.7816164E-02  0.1184000E+00
        -11   -1    0    0    0    0  0.00000000000E+00  0.00000000000E+00  0.45593999997E+02  0.45594000000E+02  0.51100000000E-03 0.  1.
         11   -1    0    0    0    0 -0.00000000000E+00 -0.00000000000E+00 -0.45593999997E+02  0.45594000000E+02  0.51100000000E-03 0. -1.
         23    2    1    2    0    0  0.00000000000E+00  0.00000000000E+00  0.00000000000E+00  0.91188000000E+02  0.91188000000E+02 0.  0.
    9900012    2    3    3    0    0  0.25133517954E+02 -0.11380480064E+02 -0.24383821074E+02  0.54367085001E+02  0.40000001876E+02 0.  0.
        -12    1    3    3    0    0 -0.25133517954E+02  0.11380480064E+02  0.24383821074E+02  0.36820914999E+02  0.00000000000E+00 0.  1.
         11    1    4    4    0    0  0.15899928977E+02 -0.33113811470E+01 -0.20468176714E+02  0.26128896740E+02  0.51100000000E-03 0. -1.
        -11    1    4    4    0    0  0.94674728023E+01  0.35120340087E+01  0.70278552172E+01  0.12302770962E+02  0.51100000000E-03 0.  1.
        -12    1    4    4    0    0 -0.23388382540E+00 -0.11581132926E+02 -0.10943499577E+02  0.15935417299E+02  0.00000000000E+00 0.  1.
</event>
<event>
 8    1  0.1240174E-006  0.9118800E+02  0.7816164E-02  0.1184000E+00
        -11   -1    0    0    0    0  0.00000000000E+00  0.00000000000E+00  0.45593999997E+02  0.45594000000E+02  0.51100000000E-03 0.  1.
         11   -1    0    0    0    0 -0.00000000000E+00 -0.00000000000E+00 -0.45593999997E+02  0.45594000000E+02  0.51100000000E-03 0. -1.
         23    2    1    2    0    0  0.00000000000E+00  0.66613381478E-15  0.00000000000E+00  0.91188000000E+02  0.91188000000E+02 0.  0.
    9900012    2    3    3    0    0  0.36049205976E+02  0.16924033791E+01  0.73054603283E+01  0.54367092470E+02  0.40000018904E+02 0.  0.
         12    1    3    3    0    0 -0.36049205976E+02 -0.16924033791E+01 -0.73054603283E+01  0.36820907530E+02  0.00000000000E+00 0. -1.
         11    1    4    4    0    0  0.87161130782E+01  0.59231860613E+01  0.17598274557E+02  0.20512289681E+02  0.51100000000E-03 0. -1.
        -11    1    4    4    0    0  0.30393556505E+01  0.52919252528E+01 -0.27455267400E+01  0.66917914636E+01  0.51100000000E-03 0.  1.
        -12    1    4    4    0    0  0.24293737248E+02 -0.95227079351E+01 -0.75472874883E+01  0.27163011326E+02  0.00000000000E+00 0.  1.
</event>
<event>
 8    1  0.1240174E-006  0.9118800E+02  0.7816164E-02  0.1184000E+00
        -11   -1    0    0    0    0  0.00000000000E+00  0.00000000000E+00  0.45593999997E+02  0.45594000000E+02  0.51100000000E-03 0.  1.
         11   -1    0    0    0    0 -0.00000000000E+00 -0.00000000000E+00 -0.45593999997E+02  0.45594000000E+02  0.51100000000E-03 0. -1.
         23    2    1    2    0    0 -0.71054273576E-14  0.00000000000E+00 -0.88817841970E-15  0.91188000000E+02  0.91188000000E+02 0.  0.
    9900012    2    3    3    0    0 -0.36743357563E+02  0.21269446354E+01  0.10889959158E+01  0.54367025942E+02  0.39999867239E+02 0.  0.
        -12    1    3    3    0    0  0.36743357563E+02 -0.21269446354E+01 -0.10889959158E+01  0.36820974058E+02  0.00000000000E+00 0.  1.
         11    1    4    4    0    0 -0.80314818755E+01  0.32140440841E+01  0.16158630333E+01  0.88003292037E+01  0.51100000000E-03 0.  1.
        -11    1    4    4    0    0 -0.18403899678E+01 -0.21195915830E+01 -0.14840212350E+02  0.15103364081E+02  0.51100000000E-03 0. -1.
         12    1    4    4    0    0 -0.26871485720E+02  0.10324921343E+01  0.14313345233E+02  0.30463332657E+02  0.00000000000E+00 0. -1.
</event>
<event>
 8    1  0.1240174E-006  0.9118800E+02  0.7816164E-02  0.1184000E+00
        -11   -1    0    0    0    0  0.00000000000E+00  0.00000000000E+00  0.45593999997E+02  0.45594000000E+02  0.51100000000E-03 0.  1.
         11   -1    0    0    0    0 -0.00000000000E+00 -0.00000000000E+00 -0.45593999997E+02  0.45594000000E+02  0.51100000000E-03 0. -1.
         23    2    1    2    0    0  0.44408920985E-15  0.00000000000E+00  0.10658141036E-13  0.91188000000E+02  0.91188000000E+02 0.  0.
    9900012    2    3    3    0    0  0.26878826652E+01  0.26341641766E+02  0.25586560125E+02  0.54367097469E+02  0.40000030300E+02 0.  0.
         12    1    3    3    0    0 -0.26878826652E+01 -0.26341641766E+02 -0.25586560125E+02  0.36820902531E+02  0.00000000000E+00 0. -1.
         11    1    4    4    0    0  0.48095677136E+01  0.24911878187E+02  0.51750603217E+01  0.25894301806E+02  0.51100000000E-03 0. -1.
        -11    1    4    4    0    0  0.75792293366E+01  0.51588503171E+01  0.71658189976E+01  0.11636469228E+02  0.51100000000E-03 0.  1.
         12    1    4    4    0    0 -0.97009143850E+01 -0.37290867385E+01  0.13245680806E+02  0.16836326435E+02  0.00000000000E+00 0. -1.
</event>
<event>
 8    1  0.1240174E-006  0.9118800E+02  0.7816164E-02  0.1184000E+00
        -11   -1    0    0    0    0  0.00000000000E+00  0.00000000000E+00  0.45593999997E+02  0.45594000000E+02  0.51100000000E-03 0. -1.
         11   -1    0    0    0    0 -0.00000000000E+00 -0.00000000000E+00 -0.45593999997E+02  0.45594000000E+02  0.51100000000E-03 0.  1.
         23    2    1    2    0    0  0.00000000000E+00  0.00000000000E+00  0.00000000000E+00  0.91188000000E+02  0.91188000000E+02 0.  0.
    9900012    2    3    3    0    0 -0.86180829358E+01 -0.11618477886E+02  0.33860287786E+02  0.54367089217E+02  0.40000011489E+02 0.  0.
        -12    1    3    3    0    0  0.86180829358E+01  0.11618477886E+02 -0.33860287786E+02  0.36820910783E+02  0.00000000000E+00 0.  1.
         11    1    4    4    0    0 -0.14159703131E+01 -0.20231382541E+01  0.38324750473E+02  0.38404225801E+02  0.51100000000E-03 0. -1.
        -11    1    4    4    0    0 -0.83582050676E+01 -0.34345813436E+01 -0.22222175345E+01  0.93056000338E+01  0.51100000000E-03 0.  1.
         12    1    4    4    0    0  0.11560924449E+01 -0.61607582881E+01 -0.22422451518E+01  0.66572633826E+01  0.00000000000E+00 0. -1.
</event>
<event>
 8    1  0.1240174E-006  0.9118800E+02  0.7816164E-02  0.1184000E+00
        -11   -1    0    0    0    0  0.00000000000E+00  0.00000000000E+00  0.45593999997E+02  0.45594000000E+02  0.51100000000E-03 0.  1.
         11   -1    0    0    0    0 -0.00000000000E+00 -0.00000000000E+00 -0.45593999997E+02  0.45594000000E+02  0.51100000000E-03 0. -1.
         23    2    1    2    0    0 -0.17763568394E-14  0.17763568394E-14  0.35527136788E-14  0.91188000000E+02  0.91188000000E+02 0.  0.
    9900012    2    3    3    0    0 -0.10894337353E+02  0.15964479808E+02  0.31340521355E+02  0.54367089084E+02  0.40000011186E+02 0.  0.
         12    1    3    3    0    0  0.10894337353E+02 -0.15964479808E+02 -0.31340521355E+02  0.36820910916E+02  0.00000000000E+00 0. -1.
         11    1    4    4    0    0 -0.40767609249E+01  0.17353068795E+01 -0.56332907568E+01  0.71669543473E+01  0.51100000000E-03 0. -1.
        -11    1    4    4    0    0 -0.21648304502E+00 -0.21582395336E+01  0.26649553087E+02  0.26737680206E+02  0.51100000000E-03 0.  1.
         12    1    4    4    0    0 -0.66010933829E+01  0.16387412462E+02  0.10324259024E+02  0.20462454531E+02  0.00000000000E+00 0. -1.
</event>
<event>
 8    1  0.1240174E-006  0.9118800E+02  0.7816164E-02  0.1184000E+00
        -11   -1    0    0    0    0  0.00000000000E+00  0.00000000000E+00  0.45593999997E+02  0.45594000000E+02  0.51100000000E-03 0.  1.
         11   -1    0    0    0    0 -0.00000000000E+00 -0.00000000000E+00 -0.45593999997E+02  0.45594000000E+02  0.51100000000E-03 0. -1.
         23    2    1    2    0    0  0.71054273576E-14  0.00000000000E+00  0.00000000000E+00  0.91188000000E+02  0.91188000000E+02 0.  0.
    9900012    2    3    3    0    0  0.18326442543E+02  0.20862737910E+02 -0.24179896904E+02  0.54367085513E+02  0.40000003043E+02 0.  0.
        -12    1    3    3    0    0 -0.18326442543E+02 -0.20862737910E+02  0.24179896904E+02  0.36820914487E+02  0.00000000000E+00 0.  1.
         11    1    4    4    0    0 -0.36237315484E+01  0.81737573515E+00 -0.65247601910E+00  0.37716387213E+01  0.51100000000E-03 0.  1.
        -11    1    4    4    0    0  0.93782146040E+01 -0.45588983129E+00  0.70156534967E+01  0.11720842075E+02  0.51100000000E-03 0. -1.
         12    1    4    4    0    0  0.12571959487E+02  0.20501252007E+02 -0.30543074382E+02  0.38874604717E+02  0.00000000000E+00 0. -1.
</event>
<event>
 8    1  0.1240174E-006  0.9118800E+02  0.7816164E-02  0.1184000E+00
        -11   -1    0    0    0    0  0.00000000000E+00  0.00000000000E+00  0.45593999997E+02  0.45594000000E+02  0.51100000000E-03 0.  1.
         11   -1    0    0    0    0 -0.00000000000E+00 -0.00000000000E+00 -0.45593999997E+02  0.45594000000E+02  0.51100000000E-03 0. -1.
         23    2    1    2    0    0 -0.35527136788E-14 -0.35527136788E-14 -0.71054273576E-14  0.91188000000E+02  0.91188000000E+02 0.  0.
    9900012    2    3    3    0    0 -0.13433184272E+02 -0.21789108289E+02 -0.26468171153E+02  0.54367085238E+02  0.40000002417E+02 0.  0.
        -12    1    3    3    0    0  0.13433184272E+02  0.21789108289E+02  0.26468171153E+02  0.36820914762E+02  0.00000000000E+00 0.  1.
         11    1    4    4    0    0  0.10428611964E+02 -0.25248581070E+01 -0.48497989697E+01  0.11775033175E+02  0.51100000000E-03 0. -1.
        -11    1    4    4    0    0 -0.38064991705E+01  0.27855838885E+01  0.14134456168E+01  0.49240981212E+01  0.51100000000E-03 0.  1.
        -12    1    4    4    0    0 -0.20055297066E+02 -0.22049834070E+02 -0.23031817801E+02  0.37667953942E+02  0.00000000000E+00 0.  1.
</event>
<event>
 8    1  0.1240174E-006  0.9118800E+02  0.7816164E-02  0.1184000E+00
        -11   -1    0    0    0    0  0.00000000000E+00  0.00000000000E+00  0.45593999997E+02  0.45594000000E+02  0.51100000000E-03 0.  1.
         11   -1    0    0    0    0 -0.00000000000E+00 -0.00000000000E+00 -0.45593999997E+02  0.45594000000E+02  0.51100000000E-03 0. -1.
         23    2    1    2    0    0 -0.17763568394E-14  0.00000000000E+00  0.00000000000E+00  0.91188000000E+02  0.91188000000E+02 0.  0.
    9900012    2    3    3    0    0 -0.14070890093E+02 -0.19695326792E+02 -0.27746785228E+02  0.54367082902E+02  0.39999997091E+02 0.  0.
        -12    1    3    3    0    0  0.14070890093E+02  0.19695326792E+02  0.27746785228E+02  0.36820917098E+02  0.00000000000E+00 0.  1.
         11    1    4    4    0    0 -0.98797416469E+01 -0.24470819486E+02 -0.17734641305E+02  0.31795405388E+02  0.51100000000E-03 0. -1.
        -11    1    4    4    0    0  0.34063279349E+01 -0.43990860778E+01 -0.90467477697E+01  0.10620672003E+02  0.51100000000E-03 0.  1.
        -12    1    4    4    0    0 -0.75974763811E+01  0.91745787710E+01 -0.96539615333E+00  0.11951005511E+02  0.00000000000E+00 0.  1.
</event>
<event>
 8    1  0.1240174E-006  0.9118800E+02  0.7816164E-02  0.1184000E+00
        -11   -1    0    0    0    0  0.00000000000E+00  0.00000000000E+00  0.45593999997E+02  0.45594000000E+02  0.51100000000E-03 0. -1.
         11   -1    0    0    0    0 -0.00000000000E+00 -0.00000000000E+00 -0.45593999997E+02  0.45594000000E+02  0.51100000000E-03 0.  1.
         23    2    1    2    0    0 -0.88817841970E-15  0.00000000000E+00  0.00000000000E+00  0.91188000000E+02  0.91188000000E+02 0.  0.
    9900012    2    3    3    0    0 -0.71508607429E+01  0.25833563658E+02 -0.25244270804E+02  0.54367068058E+02  0.39999963253E+02 0.  0.
         12    1    3    3    0    0  0.71508607429E+01 -0.25833563658E+02  0.25244270804E+02  0.36820931942E+02  0.00000000000E+00 0. -1.
         11    1    4    4    0    0  0.54933584513E+01  0.16821955524E+02 -0.99674696490E-01  0.17696471684E+02  0.51100000000E-03 0. -1.
        -11    1    4    4    0    0 -0.85785333875E+01 -0.11400860168E+01  0.62519145083E+00  0.86765140361E+01  0.51100000000E-03 0.  1.
        -12    1    4    4    0    0 -0.40656858067E+01  0.10151694151E+02 -0.25769787558E+02  0.27994082339E+02  0.00000000000E+00 0.  1.
</event>
<event>
 8    1  0.1240174E-006  0.9118800E+02  0.7816164E-02  0.1184000E+00
        -11   -1    0    0    0    0  0.00000000000E+00  0.00000000000E+00  0.45593999997E+02  0.45594000000E+02  0.51100000000E-03 0. -1.
         11   -1    0    0    0    0 -0.00000000000E+00 -0.00000000000E+00 -0.45593999997E+02  0.45594000000E+02  0.51100000000E-03 0.  1.
         23    2    1    2    0    0 -0.35527136788E-14  0.35527136788E-14 -0.35527136788E-14  0.91188000000E+02  0.91188000000E+02 0.  0.
    9900012    2    3    3    0    0  0.22839738578E+02  0.22749109473E+02 -0.17793416377E+02  0.54367064291E+02  0.39999954664E+02 0.  0.
         12    1    3    3    0    0 -0.22839738578E+02 -0.22749109473E+02  0.17793416377E+02  0.36820935709E+02  0.00000000000E+00 0. -1.
         11    1    4    4    0    0 -0.37400664002E+01  0.33771789905E+01  0.60723004596E+01  0.78908977781E+01  0.51100000000E-03 0. -1.
        -11    1    4    4    0    0  0.13600016971E+01 -0.39222871193E+01 -0.72051571496E+01  0.83155415142E+01  0.51100000000E-03 0.  1.
        -12    1    4    4    0    0  0.25219803281E+02  0.23294217601E+02 -0.16660559687E+02  0.38160624999E+02  0.00000000000E+00 0.  1.
</event>
<event>
 8    1  0.1240174E-006  0.9118800E+02  0.7816164E-02  0.1184000E+00
        -11   -1    0    0    0    0  0.00000000000E+00  0.00000000000E+00  0.45593999997E+02  0.45594000000E+02  0.51100000000E-03 0.  1.
         11   -1    0    0    0    0 -0.00000000000E+00 -0.00000000000E+00 -0.45593999997E+02  0.45594000000E+02  0.51100000000E-03 0. -1.
         23    2    1    2    0    0  0.71054273576E-14  0.00000000000E+00  0.88817841970E-15  0.91188000000E+02  0.91188000000E+02 0.  0.
    9900012    2    3    3    0    0  0.33370367489E+02  0.15486401370E+02  0.15384515833E+01  0.54367124304E+02  0.40000091476E+02 0.  0.
         12    1    3    3    0    0 -0.33370367489E+02 -0.15486401370E+02 -0.15384515833E+01  0.36820875696E+02  0.00000000000E+00 0. -1.
         11    1    4    4    0    0 -0.67910499654E+01  0.63632042169E+01 -0.55167390248E+01  0.10818647664E+02  0.51100000000E-03 0. -1.
        -11    1    4    4    0    0  0.25211020296E+02  0.11673553547E+02  0.38626128010E+01  0.28049726820E+02  0.51100000000E-03 0.  1.
         12    1    4    4    0    0  0.14950397159E+02 -0.25503563938E+01  0.31925778072E+01  0.15498749820E+02  0.00000000000E+00 0. -1.
</event>
<event>
 8    1  0.1240174E-006  0.9118800E+02  0.7816164E-02  0.1184000E+00
        -11   -1    0    0    0    0  0.00000000000E+00  0.00000000000E+00  0.45593999997E+02  0.45594000000E+02  0.51100000000E-03 0.  1.
         11   -1    0    0    0    0 -0.00000000000E+00 -0.00000000000E+00 -0.45593999997E+02  0.45594000000E+02  0.51100000000E-03 0. -1.
         23    2    1    2    0    0  0.17763568394E-14  0.00000000000E+00 -0.17763568394E-14  0.91188000000E+02  0.91188000000E+02 0.  0.
    9900012    2    3    3    0    0 -0.88360085288E+01  0.32479521434E+02  0.14926019953E+02  0.54367076180E+02  0.39999981767E+02 0.  0.
         12    1    3    3    0    0  0.88360085288E+01 -0.32479521434E+02 -0.14926019953E+02  0.36820923820E+02  0.00000000000E+00 0. -1.
         11    1    4    4    0    0  0.88983496916E+01  0.10446157519E+02  0.84226096450E+01  0.16101030639E+02  0.51100000000E-03 0. -1.
        -11    1    4    4    0    0  0.30083484922E+01 -0.22922860006E+01  0.49902355337E+01  0.62615642376E+01  0.51100000000E-03 0.  1.
        -12    1    4    4    0    0 -0.20742706713E+02  0.24325649916E+02  0.15131747747E+01  0.32004481303E+02  0.00000000000E+00 0.  1.
</event>
<event>
 8    1  0.1240174E-006  0.9118800E+02  0.7816164E-02  0.1184000E+00
        -11   -1    0    0    0    0  0.00000000000E+00  0.00000000000E+00  0.45593999997E+02  0.45594000000E+02  0.51100000000E-03 0.  1.
         11   -1    0    0    0    0 -0.00000000000E+00 -0.00000000000E+00 -0.45593999997E+02  0.45594000000E+02  0.51100000000E-03 0. -1.
         23    2    1    2    0    0  0.00000000000E+00 -0.17763568394E-14  0.00000000000E+00  0.91188000000E+02  0.91188000000E+02 0.  0.
    9900012    2    3    3    0    0 -0.23821239443E+02  0.91541002465E+01  0.26542979154E+02  0.54367099111E+02  0.40000034043E+02 0.  0.
         12    1    3    3    0    0  0.23821239443E+02 -0.91541002465E+01 -0.26542979154E+02  0.36820900889E+02  0.00000000000E+00 0. -1.
         11    1    4    4    0    0  0.28325925543E+01  0.36381071028E+01 -0.63956091640E+01  0.78843655870E+01  0.51100000000E-03 0. -1.
        -11    1    4    4    0    0 -0.22833611371E+02 -0.14121869085E+01  0.30650584683E+02  0.38246913886E+02  0.51100000000E-03 0.  1.
         12    1    4    4    0    0 -0.38202206268E+01  0.69281800522E+01  0.22880036343E+01  0.82358196376E+01  0.00000000000E+00 0. -1.
</event>
<event>
 8    1  0.1240174E-006  0.9118800E+02  0.7816164E-02  0.1184000E+00
        -11   -1    0    0    0    0  0.00000000000E+00  0.00000000000E+00  0.45593999997E+02  0.45594000000E+02  0.51100000000E-03 0. -1.
         11   -1    0    0    0    0 -0.00000000000E+00 -0.00000000000E+00 -0.45593999997E+02  0.45594000000E+02  0.51100000000E-03 0.  1.
         23    2    1    2    0    0  0.00000000000E+00  0.17763568394E-14 -0.35527136788E-14  0.91188000000E+02  0.91188000000E+02 0.  0.
    9900012    2    3    3    0    0 -0.16422801245E+02 -0.13134925426E+02 -0.30224918707E+02  0.54367076905E+02  0.39999983421E+02 0.  0.
         12    1    3    3    0    0  0.16422801245E+02  0.13134925426E+02  0.30224918707E+02  0.36820923095E+02  0.00000000000E+00 0. -1.
         11    1    4    4    0    0 -0.12805967734E+01 -0.36487316187E+01  0.65784271724E+01  0.76307846808E+01  0.51100000000E-03 0. -1.
        -11    1    4    4    0    0 -0.90555382447E+01  0.52299733746E+01 -0.59911592763E+01  0.12051945243E+02  0.51100000000E-03 0.  1.
         12    1    4    4    0    0 -0.60866662271E+01 -0.14716167182E+02 -0.30812186603E+02  0.34684346982E+02  0.00000000000E+00 0. -1.
</event>
<event>
 8    1  0.1240174E-006  0.9118800E+02  0.7816164E-02  0.1184000E+00
        -11   -1    0    0    0    0  0.00000000000E+00  0.00000000000E+00  0.45593999997E+02  0.45594000000E+02  0.51100000000E-03 0. -1.
         11   -1    0    0    0    0 -0.00000000000E+00 -0.00000000000E+00 -0.45593999997E+02  0.45594000000E+02  0.51100000000E-03 0.  1.
         23    2    1    2    0    0  0.00000000000E+00  0.00000000000E+00  0.00000000000E+00  0.91188000000E+02  0.91188000000E+02 0.  0.
    9900012    2    3    3    0    0  0.26369764018E+02  0.22408363570E+02 -0.12581056576E+02  0.54367052201E+02  0.39999927102E+02 0.  0.
        -12    1    3    3    0    0 -0.26369764018E+02 -0.22408363570E+02  0.12581056576E+02  0.36820947799E+02  0.00000000000E+00 0.  1.
         11    1    4    4    0    0  0.19082505982E+02 -0.13051186385E+01  0.38718742338E-01  0.19127123898E+02  0.51100000000E-03 0. -1.
        -11    1    4    4    0    0  0.38624838352E+01  0.11360577362E+02  0.53734141972E+01  0.13147436243E+02  0.51100000000E-03 0.  1.
        -12    1    4    4    0    0  0.34247742016E+01  0.12352904846E+02 -0.17993189516E+02  0.22092492060E+02  0.00000000000E+00 0.  1.
</event>
<event>
 8    1  0.1240174E-006  0.9118800E+02  0.7816164E-02  0.1184000E+00
        -11   -1    0    0    0    0  0.00000000000E+00  0.00000000000E+00  0.45593999997E+02  0.45594000000E+02  0.51100000000E-03 0. -1.
         11   -1    0    0    0    0 -0.00000000000E+00 -0.00000000000E+00 -0.45593999997E+02  0.45594000000E+02  0.51100000000E-03 0.  1.
         23    2    1    2    0    0 -0.17763568394E-14 -0.88817841970E-15  0.00000000000E+00  0.91188000000E+02  0.91188000000E+02 0.  0.
    9900012    2    3    3    0    0  0.13948139468E+02  0.42012624001E+01 -0.33816853439E+02  0.54367071482E+02  0.39999971058E+02 0.  0.
         12    1    3    3    0    0 -0.13948139468E+02 -0.42012624001E+01  0.33816853439E+02  0.36820928518E+02  0.00000000000E+00 0. -1.
         11    1    4    4    0    0  0.68744312400E+01 -0.24704232325E+00 -0.18166337185E+02  0.19425103392E+02  0.51100000000E-03 0.  1.
        -11    1    4    4    0    0  0.10307595140E+02 -0.10799973817E+02 -0.11403485803E+02  0.18786309929E+02  0.51100000000E-03 0. -1.
         12    1    4    4    0    0 -0.32338869111E+01  0.15248278540E+02 -0.42470304504E+01  0.16155658162E+02  0.00000000000E+00 0. -1.
</event>
<event>
 8    1  0.1240174E-006  0.9118800E+02  0.7816164E-02  0.1184000E+00
        -11   -1    0    0    0    0  0.00000000000E+00  0.00000000000E+00  0.45593999997E+02  0.45594000000E+02  0.51100000000E-03 0. -1.
         11   -1    0    0    0    0 -0.00000000000E+00 -0.00000000000E+00 -0.45593999997E+02  0.45594000000E+02  0.51100000000E-03 0.  1.
         23    2    1    2    0    0  0.35527136788E-14  0.35527136788E-14 -0.35527136788E-14  0.91188000000E+02  0.91188000000E+02 0.  0.
    9900012    2    3    3    0    0 -0.17680378846E+02 -0.21506353577E+02  0.24096889666E+02  0.54367093820E+02  0.40000021981E+02 0.  0.
        -12    1    3    3    0    0  0.17680378846E+02  0.21506353577E+02 -0.24096889666E+02  0.36820906180E+02  0.00000000000E+00 0.  1.
         11    1    4    4    0    0  0.85603392785E+01 -0.21246912493E+01  0.57848362330E+01  0.10547893248E+02  0.51100000000E-03 0. -1.
        -11    1    4    4    0    0 -0.15348782700E+02 -0.12618910221E+01 -0.65792532596E+00  0.15414615316E+02  0.51100000000E-03 0.  1.
         12    1    4    4    0    0 -0.10891935424E+02 -0.18119771306E+02  0.18969978759E+02  0.28404585256E+02  0.00000000000E+00 0. -1.
</event>
<event>
 8    1  0.1240174E-006  0.9118800E+02  0.7816164E-02  0.1184000E+00
        -11   -1    0    0    0    0  0.00000000000E+00  0.00000000000E+00  0.45593999997E+02  0.45594000000E+02  0.51100000000E-03 0. -1.
         11   -1    0    0    0    0 -0.00000000000E+00 -0.00000000000E+00 -0.45593999997E+02  0.45594000000E+02  0.51100000000E-03 0.  1.
         23    2    1    2    0    0  0.00000000000E+00  0.00000000000E+00 -0.17763568394E-14  0.91188000000E+02  0.91188000000E+02 0.  0.
    9900012    2    3    3    0    0 -0.13833517262E+02 -0.32806001906E+02 -0.93903931748E+01  0.54367089570E+02  0.40000012293E+02 0.  0.
         12    1    3    3    0    0  0.13833517262E+02  0.32806001906E+02  0.93903931748E+01  0.36820910430E+02  0.00000000000E+00 0. -1.
         11    1    4    4    0    0 -0.13429189790E-01 -0.69272309481E+01 -0.20779188160E+01  0.72321819542E+01  0.51100000000E-03 0. -1.
        -11    1    4    4    0    0 -0.23427921869E+01 -0.23121426906E+02  0.10711635530E+02  0.25589611045E+02  0.51100000000E-03 0.  1.
        -12    1    4    4    0    0 -0.11477295886E+02 -0.27573440515E+01 -0.18024109889E+02  0.21545296571E+02  0.00000000000E+00 0.  1.
</event>
<event>
 8    1  0.1240174E-006  0.9118800E+02  0.7816164E-02  0.1184000E+00
        -11   -1    0    0    0    0  0.00000000000E+00  0.00000000000E+00  0.45593999997E+02  0.45594000000E+02  0.51100000000E-03 0. -1.
         11   -1    0    0    0    0 -0.00000000000E+00 -0.00000000000E+00 -0.45593999997E+02  0.45594000000E+02  0.51100000000E-03 0.  1.
         23    2    1    2    0    0 -0.17763568394E-14  0.35527136788E-14  0.00000000000E+00  0.91188000000E+02  0.91188000000E+02 0.  0.
    9900012    2    3    3    0    0 -0.72763532249E+01  0.31317520198E+02  0.17945685552E+02  0.54367081794E+02  0.39999994565E+02 0.  0.
        -12    1    3    3    0    0  0.72763532249E+01 -0.31317520198E+02 -0.17945685552E+02  0.36820918206E+02  0.00000000000E+00 0.  1.
         11    1    4    4    0    0 -0.10187229218E+02  0.32245127394E+02  0.12937545338E+02  0.36206462951E+02  0.51100000000E-03 0. -1.
        -11    1    4    4    0    0  0.60128448899E+01  0.68074076086E+01  0.32243617124E+01  0.96380294009E+01  0.51100000000E-03 0.  1.
        -12    1    4    4    0    0 -0.31019688973E+01 -0.77350148040E+01  0.17837785018E+01  0.85225894423E+01  0.00000000000E+00 0.  1.
</event>
<event>
 8    1  0.1240174E-006  0.9118800E+02  0.7816164E-02  0.1184000E+00
        -11   -1    0    0    0    0  0.00000000000E+00  0.00000000000E+00  0.45593999997E+02  0.45594000000E+02  0.51100000000E-03 0. -1.
         11   -1    0    0    0    0 -0.00000000000E+00 -0.00000000000E+00 -0.45593999997E+02  0.45594000000E+02  0.51100000000E-03 0.  1.
         23    2    1    2    0    0 -0.35527136788E-14  0.00000000000E+00 -0.88817841970E-15  0.91188000000E+02  0.91188000000E+02 0.  0.
    9900012    2    3    3    0    0  0.94038325710E+01 -0.34744836483E+02  0.77553693071E+01  0.54367061903E+02  0.39999949219E+02 0.  0.
        -12    1    3    3    0    0 -0.94038325710E+01  0.34744836483E+02 -0.77553693071E+01  0.36820938097E+02  0.00000000000E+00 0.  1.
         11    1    4    4    0    0  0.67168641474E+01 -0.22983829204E+02  0.17159861695E+02  0.29459014283E+02  0.51100000000E-03 0. -1.
        -11    1    4    4    0    0 -0.82472254527E+01 -0.38869267784E+01 -0.13686666149E+01  0.92194455371E+01  0.51100000000E-03 0.  1.
        -12    1    4    4    0    0  0.10934193876E+02 -0.78740805011E+01 -0.80358257731E+01  0.15688602083E+02  0.00000000000E+00 0.  1.
</event>
<event>
 8    1  0.1240174E-006  0.9118800E+02  0.7816164E-02  0.1184000E+00
        -11   -1    0    0    0    0  0.00000000000E+00  0.00000000000E+00  0.45593999997E+02  0.45594000000E+02  0.51100000000E-03 0. -1.
         11   -1    0    0    0    0 -0.00000000000E+00 -0.00000000000E+00 -0.45593999997E+02  0.45594000000E+02  0.51100000000E-03 0.  1.
         23    2    1    2    0    0 -0.17763568394E-14  0.32196467714E-14  0.00000000000E+00  0.91188000000E+02  0.91188000000E+02 0.  0.
    9900012    2    3    3    0    0  0.13981009182E+02  0.43805092415E+00  0.34060516411E+02  0.54367091747E+02  0.40000017256E+02 0.  0.
        -12    1    3    3    0    0 -0.13981009182E+02 -0.43805092415E+00 -0.34060516411E+02  0.36820908253E+02  0.00000000000E+00 0.  1.
         11    1    4    4    0    0 -0.38836797661E+01  0.12827651420E+02  0.60700132830E+01  0.14713146196E+02  0.51100000000E-03 0. -1.
        -11    1    4    4    0    0  0.55676846213E+01 -0.54862617091E+01 -0.53304548264E+00  0.78346868049E+01  0.51100000000E-03 0.  1.
         12    1    4    4    0    0  0.12297004327E+02 -0.69033387865E+01  0.28523548611E+02  0.31819258746E+02  0.00000000000E+00 0. -1.
</event>
<event>
 8    1  0.1240174E-006  0.9118800E+02  0.7816164E-02  0.1184000E+00
        -11   -1    0    0    0    0  0.00000000000E+00  0.00000000000E+00  0.45593999997E+02  0.45594000000E+02  0.51100000000E-03 0. -1.
         11   -1    0    0    0    0 -0.00000000000E+00 -0.00000000000E+00 -0.45593999997E+02  0.45594000000E+02  0.51100000000E-03 0.  1.
         23    2    1    2    0    0  0.00000000000E+00 -0.17763568394E-14  0.00000000000E+00  0.91188000000E+02  0.91188000000E+02 0.  0.
    9900012    2    3    3    0    0 -0.32842832183E+02 -0.97202229049E+01  0.13514640324E+02  0.54367083903E+02  0.39999999374E+02 0.  0.
        -12    1    3    3    0    0  0.32842832183E+02  0.97202229049E+01 -0.13514640324E+02  0.36820916097E+02  0.00000000000E+00 0.  1.
         11    1    4    4    0    0 -0.51853037101E+01 -0.81704083537E+01  0.67796798028E+01  0.11815540856E+02  0.51100000000E-03 0. -1.
        -11    1    4    4    0    0 -0.31394605133E+02  0.26574180342E+01 -0.26400762624E+01  0.31617291235E+02  0.51100000000E-03 0.  1.
         12    1    4    4    0    0  0.37370766603E+01 -0.42072325855E+01  0.93750367838E+01  0.10934251812E+02  0.00000000000E+00 0. -1.
</event>
<event>
 8    1  0.1240174E-006  0.9118800E+02  0.7816164E-02  0.1184000E+00
        -11   -1    0    0    0    0  0.00000000000E+00  0.00000000000E+00  0.45593999997E+02  0.45594000000E+02  0.51100000000E-03 0.  1.
         11   -1    0    0    0    0 -0.00000000000E+00 -0.00000000000E+00 -0.45593999997E+02  0.45594000000E+02  0.51100000000E-03 0. -1.
         23    2    1    2    0    0  0.00000000000E+00  0.00000000000E+00  0.00000000000E+00  0.91188000000E+02  0.91188000000E+02 0.  0.
    9900012    2    3    3    0    0  0.14334711777E+02 -0.32595412250E+02 -0.93720961979E+01  0.54367067793E+02  0.39999962647E+02 0.  0.
        -12    1    3    3    0    0 -0.14334711777E+02  0.32595412250E+02  0.93720961979E+01  0.36820932207E+02  0.00000000000E+00 0.  1.
         11    1    4    4    0    0  0.17026223133E+02 -0.23678419146E+02 -0.81875035914E+01  0.30291830957E+02  0.51100000000E-03 0. -1.
        -11    1    4    4    0    0  0.71854853763E+01  0.33278734499E+01  0.16532709294E+01  0.80894528134E+01  0.51100000000E-03 0.  1.
        -12    1    4    4    0    0 -0.98769967321E+01 -0.12244866554E+02 -0.28378635359E+01  0.15985784023E+02  0.00000000000E+00 0.  1.
</event>
<event>
 8    1  0.1240174E-006  0.9118800E+02  0.7816164E-02  0.1184000E+00
        -11   -1    0    0    0    0  0.00000000000E+00  0.00000000000E+00  0.45593999997E+02  0.45594000000E+02  0.51100000000E-03 0. -1.
         11   -1    0    0    0    0 -0.00000000000E+00 -0.00000000000E+00 -0.45593999997E+02  0.45594000000E+02  0.51100000000E-03 0.  1.
         23    2    1    2    0    0  0.00000000000E+00  0.00000000000E+00  0.00000000000E+00  0.91188000000E+02  0.91188000000E+02 0.  0.
    9900012    2    3    3    0    0  0.70868824654E+01  0.35359849690E+02 -0.74321180367E+01  0.54367092194E+02  0.40000018274E+02 0.  0.
         12    1    3    3    0    0 -0.70868824654E+01 -0.35359849690E+02  0.74321180367E+01  0.36820907806E+02  0.00000000000E+00 0. -1.
         11    1    4    4    0    0  0.13658709825E+02  0.10555914041E+02 -0.42514566703E+01  0.17778148368E+02  0.51100000000E-03 0. -1.
        -11    1    4    4    0    0 -0.24873834854E+01  0.29106547211E+02 -0.63030377313E+01  0.29884886683E+02  0.51100000000E-03 0.  1.
         12    1    4    4    0    0 -0.40844438737E+01 -0.43026115623E+01  0.31223763649E+01  0.67040571431E+01  0.00000000000E+00 0. -1.
</event>
<event>
 8    1  0.1240174E-006  0.9118800E+02  0.7816164E-02  0.1184000E+00
        -11   -1    0    0    0    0  0.00000000000E+00  0.00000000000E+00  0.45593999997E+02  0.45594000000E+02  0.51100000000E-03 0.  1.
         11   -1    0    0    0    0 -0.00000000000E+00 -0.00000000000E+00 -0.45593999997E+02  0.45594000000E+02  0.51100000000E-03 0. -1.
         23    2    1    2    0    0  0.35527136788E-14  0.00000000000E+00  0.00000000000E+00  0.91188000000E+02  0.91188000000E+02 0.  0.
    9900012    2    3    3    0    0 -0.24550653297E+02 -0.20714892807E+02  0.17998296477E+02  0.54367081525E+02  0.39999993952E+02 0.  0.
         12    1    3    3    0    0  0.24550653297E+02  0.20714892807E+02 -0.17998296477E+02  0.36820918475E+02  0.00000000000E+00 0. -1.
         11    1    4    4    0    0  0.34837936109E+01 -0.15910647489E+02  0.69871446936E+01  0.17723027751E+02  0.51100000000E-03 0. -1.
        -11    1    4    4    0    0 -0.13252777151E+02 -0.72053988736E+01  0.14867476031E+02  0.21180078350E+02  0.51100000000E-03 0.  1.
         12    1    4    4    0    0 -0.14781669757E+02  0.24011535551E+01 -0.38563242476E+01  0.15463975424E+02  0.00000000000E+00 0. -1.
</event>
<event>
 8    1  0.1240174E-006  0.9118800E+02  0.7816164E-02  0.1184000E+00
        -11   -1    0    0    0    0  0.00000000000E+00  0.00000000000E+00  0.45593999997E+02  0.45594000000E+02  0.51100000000E-03 0. -1.
         11   -1    0    0    0    0 -0.00000000000E+00 -0.00000000000E+00 -0.45593999997E+02  0.45594000000E+02  0.51100000000E-03 0.  1.
         23    2    1    2    0    0  0.88817841970E-15  0.17763568394E-14  0.71054273576E-14  0.91188000000E+02  0.91188000000E+02 0.  0.
    9900012    2    3    3    0    0 -0.77529272817E+01  0.10335702878E+02  0.34479636665E+02  0.54367082304E+02  0.39999995729E+02 0.  0.
        -12    1    3    3    0    0  0.77529272817E+01 -0.10335702878E+02 -0.34479636665E+02  0.36820917696E+02  0.00000000000E+00 0.  1.
         11    1    4    4    0    0 -0.94812819096E+01  0.16110977208E+02  0.26317750700E+02  0.32281299469E+02  0.51100000000E-03 0. -1.
        -11    1    4    4    0    0 -0.75817919367E+01  0.97429999201E+00  0.72743606738E+01  0.10552210807E+02  0.51100000000E-03 0.  1.
        -12    1    4    4    0    0  0.93101465645E+01 -0.67495743220E+01  0.88752529104E+00  0.11533572028E+02  0.00000000000E+00 0.  1.
</event>
<event>
 8    1  0.1240174E-006  0.9118800E+02  0.7816164E-02  0.1184000E+00
        -11   -1    0    0    0    0  0.00000000000E+00  0.00000000000E+00  0.45593999997E+02  0.45594000000E+02  0.51100000000E-03 0.  1.
         11   -1    0    0    0    0 -0.00000000000E+00 -0.00000000000E+00 -0.45593999997E+02  0.45594000000E+02  0.51100000000E-03 0. -1.
         23    2    1    2    0    0 -0.17763568394E-14  0.71054273576E-14  0.88817841970E-15  0.91188000000E+02  0.91188000000E+02 0.  0.
    9900012    2    3    3    0    0  0.12331191049E+02 -0.34079313825E+02  0.65058408156E+01  0.54367029505E+02  0.39999875363E+02 0.  0.
         12    1    3    3    0    0 -0.12331191049E+02  0.34079313825E+02 -0.65058408156E+01  0.36820970495E+02  0.00000000000E+00 0. -1.
         11    1    4    4    0    0  0.24671029022E+01  0.42903463056E+00 -0.27182427791E+01  0.36958776375E+01  0.51100000000E-03 0. -1.
        -11    1    4    4    0    0 -0.10625937937E+02 -0.59323745493E+01  0.96092530912E+01  0.15506171999E+02  0.51100000000E-03 0.  1.
        -12    1    4    4    0    0  0.20490026084E+02 -0.28575973906E+02 -0.38516949658E+00  0.35164979868E+02  0.00000000000E+00 0.  1.
</event>
<event>
 8    1  0.1240174E-006  0.9118800E+02  0.7816164E-02  0.1184000E+00
        -11   -1    0    0    0    0  0.00000000000E+00  0.00000000000E+00  0.45593999997E+02  0.45594000000E+02  0.51100000000E-03 0.  1.
         11   -1    0    0    0    0 -0.00000000000E+00 -0.00000000000E+00 -0.45593999997E+02  0.45594000000E+02  0.51100000000E-03 0. -1.
         23    2    1    2    0    0  0.00000000000E+00  0.71054273576E-14  0.00000000000E+00  0.91188000000E+02  0.91188000000E+02 0.  0.
    9900012    2    3    3    0    0 -0.12337122735E+02 -0.33942978680E+02 -0.71728700150E+01  0.54367075741E+02  0.39999980766E+02 0.  0.
        -12    1    3    3    0    0  0.12337122735E+02  0.33942978680E+02  0.71728700150E+01  0.36820924259E+02  0.00000000000E+00 0.  1.
         11    1    4    4    0    0 -0.24787685843E+01 -0.24067366416E+01 -0.16041471766E+02  0.16409311126E+02  0.51100000000E-03 0. -1.
        -11    1    4    4    0    0 -0.85763561477E+01 -0.20156221427E+02 -0.22198914849E+01  0.22017153891E+02  0.51100000000E-03 0.  1.
        -12    1    4    4    0    0 -0.12819980027E+01 -0.11380020612E+02  0.11088493236E+02  0.15940610724E+02  0.00000000000E+00 0.  1.
</event>
<event>
 8    1  0.1240174E-006  0.9118800E+02  0.7816164E-02  0.1184000E+00
        -11   -1    0    0    0    0  0.00000000000E+00  0.00000000000E+00  0.45593999997E+02  0.45594000000E+02  0.51100000000E-03 0.  1.
         11   -1    0    0    0    0 -0.00000000000E+00 -0.00000000000E+00 -0.45593999997E+02  0.45594000000E+02  0.51100000000E-03 0. -1.
         23    2    1    2    0    0  0.00000000000E+00  0.00000000000E+00  0.00000000000E+00  0.91188000000E+02  0.91188000000E+02 0.  0.
    9900012    2    3    3    0    0 -0.32049845843E+02  0.16745763186E+02  0.69402527562E+01  0.54367077801E+02  0.39999985463E+02 0.  0.
        -12    1    3    3    0    0  0.32049845843E+02 -0.16745763186E+02 -0.69402527562E+01  0.36820922199E+02  0.00000000000E+00 0.  1.
         11    1    4    4    0    0 -0.28757523689E+02  0.16530450966E+02  0.94356223163E+01  0.34485967387E+02  0.51100000000E-03 0.  1.
        -11    1    4    4    0    0  0.72080539111E+01  0.24483647231E+00  0.32511123967E+01  0.79111135854E+01  0.51100000000E-03 0. -1.
         12    1    4    4    0    0 -0.10500376065E+02 -0.29524252005E-01 -0.57464819568E+01  0.11969996829E+02  0.00000000000E+00 0. -1.
</event>
<event>
 8    1  0.1240174E-006  0.9118800E+02  0.7816164E-02  0.1184000E+00
        -11   -1    0    0    0    0  0.00000000000E+00  0.00000000000E+00  0.45593999997E+02  0.45594000000E+02  0.51100000000E-03 0.  1.
         11   -1    0    0    0    0 -0.00000000000E+00 -0.00000000000E+00 -0.45593999997E+02  0.45594000000E+02  0.51100000000E-03 0. -1.
         23    2    1    2    0    0  0.00000000000E+00  0.00000000000E+00  0.00000000000E+00  0.91188000000E+02  0.91188000000E+02 0.  0.
    9900012    2    3    3    0    0 -0.12492369388E+02  0.34004597739E+02  0.65883459597E+01  0.54367105622E+02  0.40000048887E+02 0.  0.
         12    1    3    3    0    0  0.12492369388E+02 -0.34004597739E+02 -0.65883459597E+01  0.36820894378E+02  0.00000000000E+00 0. -1.
         11    1    4    4    0    0  0.50931284116E+00 -0.66438499681E+01  0.37468901532E+01  0.76445619920E+01  0.51100000000E-03 0. -1.
        -11    1    4    4    0    0 -0.20900394446E+01  0.33552167167E+02  0.22726624170E+01  0.33693933893E+02  0.51100000000E-03 0.  1.
         12    1    4    4    0    0 -0.10911642785E+02  0.70962805400E+01  0.56879338946E+00  0.13028609737E+02  0.00000000000E+00 0. -1.
</event>
<event>
 8    1  0.1240174E-006  0.9118800E+02  0.7816164E-02  0.1184000E+00
        -11   -1    0    0    0    0  0.00000000000E+00  0.00000000000E+00  0.45593999997E+02  0.45594000000E+02  0.51100000000E-03 0.  1.
         11   -1    0    0    0    0 -0.00000000000E+00 -0.00000000000E+00 -0.45593999997E+02  0.45594000000E+02  0.51100000000E-03 0. -1.
         23    2    1    2    0    0  0.00000000000E+00  0.00000000000E+00 -0.71054273576E-14  0.91188000000E+02  0.91188000000E+02 0.  0.
    9900012    2    3    3    0    0  0.80706989151E+01  0.15759591430E+02  0.32284338640E+02  0.54367089848E+02  0.40000012926E+02 0.  0.
         12    1    3    3    0    0 -0.80706989151E+01 -0.15759591430E+02 -0.32284338640E+02  0.36820910152E+02  0.00000000000E+00 0. -1.
         11    1    4    4    0    0 -0.62113760896E+01  0.96659512124E+01  0.78238006044E+01  0.13900491427E+02  0.51100000000E-03 0.  1.
        -11    1    4    4    0    0  0.13508320982E+02 -0.63165138012E+01  0.23453197716E+01  0.15095483015E+02  0.51100000000E-03 0. -1.
         12    1    4    4    0    0  0.77375402239E+00  0.12410154019E+02  0.22115218264E+02  0.25371115405E+02  0.00000000000E+00 0. -1.
</event>
<event>
 8    1  0.1240174E-006  0.9118800E+02  0.7816164E-02  0.1184000E+00
        -11   -1    0    0    0    0  0.00000000000E+00  0.00000000000E+00  0.45593999997E+02  0.45594000000E+02  0.51100000000E-03 0.  1.
         11   -1    0    0    0    0 -0.00000000000E+00 -0.00000000000E+00 -0.45593999997E+02  0.45594000000E+02  0.51100000000E-03 0. -1.
         23    2    1    2    0    0  0.35527136788E-14  0.00000000000E+00 -0.17763568394E-14  0.91188000000E+02  0.91188000000E+02 0.  0.
    9900012    2    3    3    0    0  0.22348849093E+02 -0.29159054042E+02  0.24613551009E+01  0.54367085327E+02  0.40000002620E+02 0.  0.
         12    1    3    3    0    0 -0.22348849093E+02  0.29159054042E+02 -0.24613551009E+01  0.36820914673E+02  0.00000000000E+00 0. -1.
         11    1    4    4    0    0  0.18843982823E+02 -0.96102012427E+01 -0.16306859456E+02  0.26708899681E+02  0.51100000000E-03 0. -1.
        -11    1    4    4    0    0 -0.68778959231E+00 -0.23186704969E+01  0.12141884914E+01  0.27062042329E+01  0.51100000000E-03 0.  1.
         12    1    4    4    0    0  0.41926558615E+01 -0.17230182303E+02  0.17554026065E+02  0.24951981414E+02  0.00000000000E+00 0. -1.
</event>
<event>
 8    1  0.1240174E-006  0.9118800E+02  0.7816164E-02  0.1184000E+00
        -11   -1    0    0    0    0  0.00000000000E+00  0.00000000000E+00  0.45593999997E+02  0.45594000000E+02  0.51100000000E-03 0.  1.
         11   -1    0    0    0    0 -0.00000000000E+00 -0.00000000000E+00 -0.45593999997E+02  0.45594000000E+02  0.51100000000E-03 0. -1.
         23    2    1    2    0    0  0.00000000000E+00  0.00000000000E+00  0.35527136788E-14  0.91188000000E+02  0.91188000000E+02 0.  0.
    9900012    2    3    3    0    0  0.20559601331E+02 -0.17813009217E+02 -0.24814822088E+02  0.54367137713E+02  0.40000122045E+02 0.  0.
        -12    1    3    3    0    0 -0.20559601331E+02  0.17813009217E+02  0.24814822088E+02  0.36820862287E+02  0.00000000000E+00 0.  1.
         11    1    4    4    0    0  0.19373268836E+02 -0.25256673525E+02 -0.27266325146E+02  0.41912713944E+02  0.51100000000E-03 0. -1.
        -11    1    4    4    0    0  0.31539193998E+01  0.67799611826E+01 -0.18279157996E+01  0.76978151218E+01  0.51100000000E-03 0.  1.
         12    1    4    4    0    0 -0.19675869049E+01  0.66370312474E+00  0.42794188574E+01  0.47566086473E+01  0.00000000000E+00 0. -1.
</event>
<event>
 8    1  0.1240174E-006  0.9118800E+02  0.7816164E-02  0.1184000E+00
        -11   -1    0    0    0    0  0.00000000000E+00  0.00000000000E+00  0.45593999997E+02  0.45594000000E+02  0.51100000000E-03 0.  1.
         11   -1    0    0    0    0 -0.00000000000E+00 -0.00000000000E+00 -0.45593999997E+02  0.45594000000E+02  0.51100000000E-03 0. -1.
         23    2    1    2    0    0  0.00000000000E+00  0.00000000000E+00 -0.35527136788E-14  0.91188000000E+02  0.91188000000E+02 0.  0.
    9900012    2    3    3    0    0  0.15174777040E+02 -0.19059694599E+02 -0.27608591441E+02  0.54367080162E+02  0.39999990845E+02 0.  0.
        -12    1    3    3    0    0 -0.15174777040E+02  0.19059694599E+02  0.27608591441E+02  0.36820919838E+02  0.00000000000E+00 0.  1.
         11    1    4    4    0    0 -0.74551513606E+01 -0.59067487764E+01 -0.59232485041E+01  0.11205080813E+02  0.51100000000E-03 0. -1.
        -11    1    4    4    0    0  0.14526225159E+02  0.17010062853E+00  0.21431470491E+01  0.14684455425E+02  0.51100000000E-03 0.  1.
        -12    1    4    4    0    0  0.81037032413E+01 -0.13323046451E+02 -0.23828489986E+02  0.28477543924E+02  0.00000000000E+00 0.  1.
</event>
<event>
 8    1  0.1240174E-006  0.9118800E+02  0.7816164E-02  0.1184000E+00
        -11   -1    0    0    0    0  0.00000000000E+00  0.00000000000E+00  0.45593999997E+02  0.45594000000E+02  0.51100000000E-03 0.  1.
         11   -1    0    0    0    0 -0.00000000000E+00 -0.00000000000E+00 -0.45593999997E+02  0.45594000000E+02  0.51100000000E-03 0. -1.
         23    2    1    2    0    0  0.00000000000E+00  0.17763568394E-14 -0.17763568394E-14  0.91188000000E+02  0.91188000000E+02 0.  0.
    9900012    2    3    3    0    0  0.33460580555E+02  0.62350812848E+01  0.14046096834E+02  0.54367088469E+02  0.40000009782E+02 0.  0.
         12    1    3    3    0    0 -0.33460580555E+02 -0.62350812848E+01 -0.14046096834E+02  0.36820911531E+02  0.00000000000E+00 0. -1.
         11    1    4    4    0    0 -0.18909251101E+01 -0.25274365261E+01  0.75366342515E+01  0.81709478806E+01  0.51100000000E-03 0. -1.
        -11    1    4    4    0    0  0.16704068627E+02  0.16996406184E+02 -0.23969264588E+01  0.23950970514E+02  0.51100000000E-03 0.  1.
        -12    1    4    4    0    0  0.18647437039E+02 -0.82338883735E+01  0.89063890409E+01  0.22245170074E+02  0.00000000000E+00 0.  1.
</event>
<event>
 8    1  0.1240174E-006  0.9118800E+02  0.7816164E-02  0.1184000E+00
        -11   -1    0    0    0    0  0.00000000000E+00  0.00000000000E+00  0.45593999997E+02  0.45594000000E+02  0.51100000000E-03 0. -1.
         11   -1    0    0    0    0 -0.00000000000E+00 -0.00000000000E+00 -0.45593999997E+02  0.45594000000E+02  0.51100000000E-03 0.  1.
         23    2    1    2    0    0  0.44408920985E-15  0.71054273576E-14  0.00000000000E+00  0.91188000000E+02  0.91188000000E+02 0.  0.
    9900012    2    3    3    0    0 -0.18499813937E+01 -0.35490176681E+02 -0.96335533734E+01  0.54367076294E+02  0.39999982027E+02 0.  0.
         12    1    3    3    0    0  0.18499813937E+01  0.35490176681E+02  0.96335533734E+01  0.36820923706E+02  0.00000000000E+00 0. -1.
         11    1    4    4    0    0  0.86286574647E+01 -0.16031472096E+02 -0.10321100897E+01  0.18235325023E+02  0.51100000000E-03 0. -1.
        -11    1    4    4    0    0 -0.56426208377E+01 -0.15265147621E+02  0.81483483173E+01  0.18200535222E+02  0.51100000000E-03 0.  1.
         12    1    4    4    0    0 -0.48360180207E+01 -0.41935569635E+01 -0.16749791601E+02  0.17931216048E+02  0.00000000000E+00 0. -1.
</event>
<event>
 8    1  0.1240174E-006  0.9118800E+02  0.7816164E-02  0.1184000E+00
        -11   -1    0    0    0    0  0.00000000000E+00  0.00000000000E+00  0.45593999997E+02  0.45594000000E+02  0.51100000000E-03 0.  1.
         11   -1    0    0    0    0 -0.00000000000E+00 -0.00000000000E+00 -0.45593999997E+02  0.45594000000E+02  0.51100000000E-03 0. -1.
         23    2    1    2    0    0 -0.35527136788E-14  0.00000000000E+00 -0.66613381478E-15  0.91188000000E+02  0.91188000000E+02 0.  0.
    9900012    2    3    3    0    0  0.28867218193E+02 -0.22817193664E+02 -0.13558866558E+01  0.54367095047E+02  0.40000024780E+02 0.  0.
        -12    1    3    3    0    0 -0.28867218193E+02  0.22817193664E+02  0.13558866558E+01  0.36820904953E+02  0.00000000000E+00 0.  1.
         11    1    4    4    0    0  0.12783318622E+02 -0.10802880671E+02  0.13224220710E+02  0.21330623044E+02  0.51100000000E-03 0. -1.
        -11    1    4    4    0    0  0.67474849202E+01 -0.77118027381E+01  0.46332700866E+01  0.11245783484E+02  0.51100000000E-03 0.  1.
        -12    1    4    4    0    0  0.93364146505E+01 -0.43025102549E+01 -0.19213377452E+02  0.21790688519E+02  0.00000000000E+00 0.  1.
</event>
<event>
 8    1  0.1240174E-006  0.9118800E+02  0.7816164E-02  0.1184000E+00
        -11   -1    0    0    0    0  0.00000000000E+00  0.00000000000E+00  0.45593999997E+02  0.45594000000E+02  0.51100000000E-03 0.  1.
         11   -1    0    0    0    0 -0.00000000000E+00 -0.00000000000E+00 -0.45593999997E+02  0.45594000000E+02  0.51100000000E-03 0. -1.
         23    2    1    2    0    0  0.00000000000E+00  0.17763568394E-14  0.00000000000E+00  0.91188000000E+02  0.91188000000E+02 0.  0.
    9900012    2    3    3    0    0  0.83892720650E+01  0.13109352059E+02  0.33369836375E+02  0.54367068766E+02  0.39999964867E+02 0.  0.
         12    1    3    3    0    0 -0.83892720650E+01 -0.13109352059E+02 -0.33369836375E+02  0.36820931234E+02  0.00000000000E+00 0. -1.
         11    1    4    4    0    0  0.97550418032E+01 -0.11727728406E+02  0.15868437422E+02  0.22011536989E+02  0.51100000000E-03 0. -1.
        -11    1    4    4    0    0  0.36681211304E+01  0.31892329558E+01  0.43975562179E+01  0.65547555580E+01  0.51100000000E-03 0.  1.
        -12    1    4    4    0    0 -0.50338908687E+01  0.21647847510E+02  0.13103842735E+02  0.25800776219E+02  0.00000000000E+00 0.  1.
</event>
<event>
 8    1  0.1240174E-006  0.9118800E+02  0.7816164E-02  0.1184000E+00
        -11   -1    0    0    0    0  0.00000000000E+00  0.00000000000E+00  0.45593999997E+02  0.45594000000E+02  0.51100000000E-03 0. -1.
         11   -1    0    0    0    0 -0.00000000000E+00 -0.00000000000E+00 -0.45593999997E+02  0.45594000000E+02  0.51100000000E-03 0.  1.
         23    2    1    2    0    0  0.35527136788E-14  0.00000000000E+00  0.00000000000E+00  0.91188000000E+02  0.91188000000E+02 0.  0.
    9900012    2    3    3    0    0 -0.25244746864E+02  0.68906356046E+01 -0.25903705390E+02  0.54367081269E+02  0.39999993369E+02 0.  0.
         12    1    3    3    0    0  0.25244746864E+02 -0.68906356046E+01  0.25903705390E+02  0.36820918731E+02  0.00000000000E+00 0. -1.
         11    1    4    4    0    0 -0.65417106211E+01 -0.56521618905E+01  0.26408643098E+00  0.86493152210E+01  0.51100000000E-03 0. -1.
        -11    1    4    4    0    0 -0.77537435903E+01  0.18606967549E+02 -0.44374580481E+01  0.20640513928E+02  0.51100000000E-03 0.  1.
        -12    1    4    4    0    0 -0.10949292653E+02 -0.60641700535E+01 -0.21730333772E+02  0.25077252120E+02  0.00000000000E+00 0.  1.
</event>
<event>
 8    1  0.1240174E-006  0.9118800E+02  0.7816164E-02  0.1184000E+00
        -11   -1    0    0    0    0  0.00000000000E+00  0.00000000000E+00  0.45593999997E+02  0.45594000000E+02  0.51100000000E-03 0.  1.
         11   -1    0    0    0    0 -0.00000000000E+00 -0.00000000000E+00 -0.45593999997E+02  0.45594000000E+02  0.51100000000E-03 0. -1.
         23    2    1    2    0    0  0.00000000000E+00  0.00000000000E+00 -0.88817841970E-15  0.91188000000E+02  0.91188000000E+02 0.  0.
    9900012    2    3    3    0    0 -0.34647789565E+02  0.10499518379E+02  0.67134864441E+01  0.54367080563E+02  0.39999991760E+02 0.  0.
         12    1    3    3    0    0  0.34647789565E+02 -0.10499518379E+02 -0.67134864441E+01  0.36820919437E+02  0.00000000000E+00 0. -1.
         11    1    4    4    0    0 -0.78509456496E+01  0.62808223774E+01  0.63376053316E+01  0.11884919812E+02  0.51100000000E-03 0. -1.
        -11    1    4    4    0    0 -0.12175686642E+02  0.12423857216E+02  0.12814498204E+02  0.21605807965E+02  0.51100000000E-03 0.  1.
         12    1    4    4    0    0 -0.14621157273E+02 -0.82051612144E+01 -0.12438617091E+02  0.20876352787E+02  0.00000000000E+00 0. -1.
</event>
<event>
 8    1  0.1240174E-006  0.9118800E+02  0.7816164E-02  0.1184000E+00
        -11   -1    0    0    0    0  0.00000000000E+00  0.00000000000E+00  0.45593999997E+02  0.45594000000E+02  0.51100000000E-03 0.  1.
         11   -1    0    0    0    0 -0.00000000000E+00 -0.00000000000E+00 -0.45593999997E+02  0.45594000000E+02  0.51100000000E-03 0. -1.
         23    2    1    2    0    0  0.00000000000E+00 -0.35527136788E-14  0.00000000000E+00  0.91188000000E+02  0.91188000000E+02 0.  0.
    9900012    2    3    3    0    0  0.98290373276E+01 -0.28157481097E+02  0.21594577412E+02  0.54367088956E+02  0.40000010893E+02 0.  0.
         12    1    3    3    0    0 -0.98290373276E+01  0.28157481097E+02 -0.21594577412E+02  0.36820911044E+02  0.00000000000E+00 0. -1.
         11    1    4    4    0    0  0.48252315029E+01 -0.25101246330E+00  0.22926773550E+01  0.53481058355E+01  0.51100000000E-03 0. -1.
        -11    1    4    4    0    0  0.86077234575E+01 -0.32394269188E+02  0.53711290314E+01  0.33945995444E+02  0.51100000000E-03 0.  1.
         12    1    4    4    0    0 -0.36039176328E+01  0.44878005549E+01  0.13930771026E+02  0.15072987676E+02  0.00000000000E+00 0. -1.
</event>
<event>
 8    1  0.1240174E-006  0.9118800E+02  0.7816164E-02  0.1184000E+00
        -11   -1    0    0    0    0  0.00000000000E+00  0.00000000000E+00  0.45593999997E+02  0.45594000000E+02  0.51100000000E-03 0. -1.
         11   -1    0    0    0    0 -0.00000000000E+00 -0.00000000000E+00 -0.45593999997E+02  0.45594000000E+02  0.51100000000E-03 0.  1.
         23    2    1    2    0    0  0.00000000000E+00  0.00000000000E+00  0.00000000000E+00  0.91188000000E+02  0.91188000000E+02 0.  0.
    9900012    2    3    3    0    0 -0.22654595353E+02 -0.88411355502E+01  0.27647486253E+02  0.54367083871E+02  0.39999999301E+02 0.  0.
        -12    1    3    3    0    0  0.22654595353E+02  0.88411355502E+01 -0.27647486253E+02  0.36820916129E+02  0.00000000000E+00 0.  1.
         11    1    4    4    0    0 -0.29829955794E+01  0.10339071313E+02  0.10128274341E+02  0.14777570830E+02  0.51100000000E-03 0. -1.
        -11    1    4    4    0    0  0.19691587425E+01  0.75910529972E+00 -0.30342506415E+01  0.36960119353E+01  0.51100000000E-03 0.  1.
        -12    1    4    4    0    0 -0.21640758516E+02 -0.19939312163E+02  0.20553462554E+02  0.35893501106E+02  0.00000000000E+00 0.  1.
</event>
<event>
 8    1  0.1240174E-006  0.9118800E+02  0.7816164E-02  0.1184000E+00
        -11   -1    0    0    0    0  0.00000000000E+00  0.00000000000E+00  0.45593999997E+02  0.45594000000E+02  0.51100000000E-03 0.  1.
         11   -1    0    0    0    0 -0.00000000000E+00 -0.00000000000E+00 -0.45593999997E+02  0.45594000000E+02  0.51100000000E-03 0. -1.
         23    2    1    2    0    0 -0.88817841970E-15  0.00000000000E+00  0.00000000000E+00  0.91188000000E+02  0.91188000000E+02 0.  0.
    9900012    2    3    3    0    0  0.49986626388E+01 -0.14510401807E+02  0.33470000372E+02  0.54367091352E+02  0.40000016354E+02 0.  0.
         12    1    3    3    0    0 -0.49986626388E+01  0.14510401807E+02 -0.33470000372E+02  0.36820908648E+02  0.00000000000E+00 0. -1.
         11    1    4    4    0    0  0.66051485260E+00  0.65323904821E+00 -0.48783944611E+01  0.49660581857E+01  0.51100000000E-03 0. -1.
        -11    1    4    4    0    0 -0.36993149390E+01 -0.12871713838E+01 -0.30764551302E+01  0.49805941030E+01  0.51100000000E-03 0.  1.
        -12    1    4    4    0    0  0.80374627253E+01 -0.13876469472E+02  0.41424849963E+02  0.44420439063E+02  0.00000000000E+00 0.  1.
</event>
<event>
 8    1  0.1240174E-006  0.9118800E+02  0.7816164E-02  0.1184000E+00
        -11   -1    0    0    0    0  0.00000000000E+00  0.00000000000E+00  0.45593999997E+02  0.45594000000E+02  0.51100000000E-03 0. -1.
         11   -1    0    0    0    0 -0.00000000000E+00 -0.00000000000E+00 -0.45593999997E+02  0.45594000000E+02  0.51100000000E-03 0.  1.
         23    2    1    2    0    0  0.71054273576E-14  0.35527136788E-14 -0.13322676296E-14  0.91188000000E+02  0.91188000000E+02 0.  0.
    9900012    2    3    3    0    0 -0.28259883077E+02 -0.23444049418E+02  0.27450436531E+01  0.54367085979E+02  0.40000004106E+02 0.  0.
        -12    1    3    3    0    0  0.28259883077E+02  0.23444049418E+02 -0.27450436531E+01  0.36820914021E+02  0.00000000000E+00 0.  1.
         11    1    4    4    0    0  0.54723995707E+01 -0.14863011084E+02  0.39434034139E+01  0.16321969437E+02  0.51100000000E-03 0. -1.
        -11    1    4    4    0    0 -0.10478782462E+02 -0.94283477689E+01 -0.38849341411E+01  0.14621605147E+02  0.51100000000E-03 0.  1.
        -12    1    4    4    0    0 -0.23253500186E+02  0.84730943444E+00  0.26865743803E+01  0.23423511395E+02  0.00000000000E+00 0.  1.
</event>
<event>
 8    1  0.1240174E-006  0.9118800E+02  0.7816164E-02  0.1184000E+00
        -11   -1    0    0    0    0  0.00000000000E+00  0.00000000000E+00  0.45593999997E+02  0.45594000000E+02  0.51100000000E-03 0.  1.
         11   -1    0    0    0    0 -0.00000000000E+00 -0.00000000000E+00 -0.45593999997E+02  0.45594000000E+02  0.51100000000E-03 0. -1.
         23    2    1    2    0    0  0.88817841970E-15 -0.35527136788E-14  0.00000000000E+00  0.91188000000E+02  0.91188000000E+02 0.  0.
    9900012    2    3    3    0    0 -0.73868241356E+01  0.28735963162E+02  0.21805067692E+02  0.54367058585E+02  0.39999941656E+02 0.  0.
         12    1    3    3    0    0  0.73868241356E+01 -0.28735963162E+02 -0.21805067692E+02  0.36820941415E+02  0.00000000000E+00 0. -1.
         11    1    4    4    0    0 -0.11333550818E+02  0.15914024403E+02  0.38861985817E+01  0.19920042333E+02  0.51100000000E-03 0. -1.
        -11    1    4    4    0    0 -0.95961989368E+01  0.12644829951E+02  0.94872326678E+01  0.18492872748E+02  0.51100000000E-03 0.  1.
         12    1    4    4    0    0  0.13542925619E+02  0.17710880772E+00  0.84316364426E+01  0.15954143505E+02  0.00000000000E+00 0. -1.
</event>
<event>
 8    1  0.1240174E-006  0.9118800E+02  0.7816164E-02  0.1184000E+00
        -11   -1    0    0    0    0  0.00000000000E+00  0.00000000000E+00  0.45593999997E+02  0.45594000000E+02  0.51100000000E-03 0. -1.
         11   -1    0    0    0    0 -0.00000000000E+00 -0.00000000000E+00 -0.45593999997E+02  0.45594000000E+02  0.51100000000E-03 0.  1.
         23    2    1    2    0    0  0.00000000000E+00 -0.35527136788E-14  0.35527136788E-14  0.91188000000E+02  0.91188000000E+02 0.  0.
    9900012    2    3    3    0    0  0.17178545795E+02  0.28277614264E+02 -0.16157183020E+02  0.54367075687E+02  0.39999980644E+02 0.  0.
         12    1    3    3    0    0 -0.17178545795E+02 -0.28277614264E+02  0.16157183020E+02  0.36820924313E+02  0.00000000000E+00 0. -1.
         11    1    4    4    0    0 -0.10307344800E+02  0.12744914584E+01 -0.12040486965E+01  0.10455401419E+02  0.51100000000E-03 0. -1.
        -11    1    4    4    0    0  0.17761277311E+02  0.75273721738E+01 -0.93309950031E+01  0.21428760384E+02  0.51100000000E-03 0.  1.
         12    1    4    4    0    0  0.97246132839E+01  0.19475750632E+02 -0.56221393204E+01  0.22482913885E+02  0.00000000000E+00 0. -1.
</event>
<event>
 8    1  0.1240174E-006  0.9118800E+02  0.7816164E-02  0.1184000E+00
        -11   -1    0    0    0    0  0.00000000000E+00  0.00000000000E+00  0.45593999997E+02  0.45594000000E+02  0.51100000000E-03 0.  1.
         11   -1    0    0    0    0 -0.00000000000E+00 -0.00000000000E+00 -0.45593999997E+02  0.45594000000E+02  0.51100000000E-03 0. -1.
         23    2    1    2    0    0  0.00000000000E+00  0.00000000000E+00 -0.35527136788E-14  0.91188000000E+02  0.91188000000E+02 0.  0.
    9900012    2    3    3    0    0 -0.11787220044E+02 -0.27828177378E+02 -0.21034092690E+02  0.54367094690E+02  0.40000023966E+02 0.  0.
        -12    1    3    3    0    0  0.11787220044E+02  0.27828177378E+02  0.21034092690E+02  0.36820905310E+02  0.00000000000E+00 0.  1.
         11    1    4    4    0    0 -0.68009237127E+01 -0.12289616573E+02 -0.22619700024E+02  0.26625890939E+02  0.51100000000E-03 0. -1.
        -11    1    4    4    0    0 -0.77869113901E+01 -0.32582242493E+01 -0.82173615969E+01  0.11780366978E+02  0.51100000000E-03 0.  1.
        -12    1    4    4    0    0  0.28006150590E+01 -0.12280336556E+02  0.98029689316E+01  0.15960836773E+02  0.00000000000E+00 0.  1.
</event>
<event>
 8    1  0.1240174E-006  0.9118800E+02  0.7816164E-02  0.1184000E+00
        -11   -1    0    0    0    0  0.00000000000E+00  0.00000000000E+00  0.45593999997E+02  0.45594000000E+02  0.51100000000E-03 0. -1.
         11   -1    0    0    0    0 -0.00000000000E+00 -0.00000000000E+00 -0.45593999997E+02  0.45594000000E+02  0.51100000000E-03 0.  1.
         23    2    1    2    0    0 -0.88817841970E-15 -0.88817841970E-15  0.00000000000E+00  0.91188000000E+02  0.91188000000E+02 0.  0.
    9900012    2    3    3    0    0 -0.28250806035E+01 -0.50136165626E+01  0.36368420801E+02  0.54367089324E+02  0.40000011733E+02 0.  0.
        -12    1    3    3    0    0  0.28250806035E+01  0.50136165626E+01 -0.36368420801E+02  0.36820910676E+02  0.00000000000E+00 0.  1.
         11    1    4    4    0    0  0.33126744258E+01 -0.47158104597E+01  0.35847858386E+02  0.36308148277E+02  0.51100000000E-03 0. -1.
        -11    1    4    4    0    0  0.12243045454E+01 -0.75895378134E+00 -0.72224527904E+01  0.73646966694E+01  0.51100000000E-03 0.  1.
         12    1    4    4    0    0 -0.73620595747E+01  0.46114767844E+00  0.77430152044E+01  0.10694244378E+02  0.00000000000E+00 0. -1.
</event>
<event>
 8    1  0.1240174E-006  0.9118800E+02  0.7816164E-02  0.1184000E+00
        -11   -1    0    0    0    0  0.00000000000E+00  0.00000000000E+00  0.45593999997E+02  0.45594000000E+02  0.51100000000E-03 0.  1.
         11   -1    0    0    0    0 -0.00000000000E+00 -0.00000000000E+00 -0.45593999997E+02  0.45594000000E+02  0.51100000000E-03 0. -1.
         23    2    1    2    0    0  0.00000000000E+00  0.00000000000E+00 -0.17763568394E-14  0.91188000000E+02  0.91188000000E+02 0.  0.
    9900012    2    3    3    0    0 -0.27740852103E+02  0.22757171939E+02 -0.82666558511E+01  0.54367063713E+02  0.39999953347E+02 0.  0.
        -12    1    3    3    0    0  0.27740852103E+02 -0.22757171939E+02  0.82666558511E+01  0.36820936287E+02  0.00000000000E+00 0.  1.
         11    1    4    4    0    0  0.69666109575E+01  0.39455896529E+01  0.17995425092E+01  0.82060769827E+01  0.51100000000E-03 0. -1.
        -11    1    4    4    0    0 -0.10375846274E+02  0.83959468810E+01 -0.14068825680E+02  0.19392832857E+02  0.51100000000E-03 0.  1.
        -12    1    4    4    0    0 -0.24331616787E+02  0.10415635405E+02  0.40026273197E+01  0.26768153874E+02  0.00000000000E+00 0.  1.
</event>
<event>
 8    1  0.1240174E-006  0.9118800E+02  0.7816164E-02  0.1184000E+00
        -11   -1    0    0    0    0  0.00000000000E+00  0.00000000000E+00  0.45593999997E+02  0.45594000000E+02  0.51100000000E-03 0.  1.
         11   -1    0    0    0    0 -0.00000000000E+00 -0.00000000000E+00 -0.45593999997E+02  0.45594000000E+02  0.51100000000E-03 0. -1.
         23    2    1    2    0    0 -0.35527136788E-14 -0.35527136788E-14  0.17763568394E-14  0.91188000000E+02  0.91188000000E+02 0.  0.
    9900012    2    3    3    0    0  0.23547152856E+02  0.26119242102E+02 -0.10913150248E+02  0.54367081164E+02  0.39999993129E+02 0.  0.
        -12    1    3    3    0    0 -0.23547152856E+02 -0.26119242102E+02  0.10913150248E+02  0.36820918836E+02  0.00000000000E+00 0.  1.
         11    1    4    4    0    0  0.13794242663E+02 -0.87105833766E+01 -0.41152019510E+01  0.16825286944E+02  0.51100000000E-03 0. -1.
        -11    1    4    4    0    0  0.15382440833E+01  0.17732338244E+02 -0.50020706599E+01  0.18488448437E+02  0.51100000000E-03 0.  1.
         12    1    4    4    0    0  0.82146661107E+01  0.17097487235E+02 -0.17958776369E+01  0.19053345783E+02  0.00000000000E+00 0. -1.
</event>
<event>
 8    1  0.1240174E-006  0.9118800E+02  0.7816164E-02  0.1184000E+00
        -11   -1    0    0    0    0  0.00000000000E+00  0.00000000000E+00  0.45593999997E+02  0.45594000000E+02  0.51100000000E-03 0. -1.
         11   -1    0    0    0    0 -0.00000000000E+00 -0.00000000000E+00 -0.45593999997E+02  0.45594000000E+02  0.51100000000E-03 0.  1.
         23    2    1    2    0    0 -0.17763568394E-14 -0.17763568394E-14  0.00000000000E+00  0.91188000000E+02  0.91188000000E+02 0.  0.
    9900012    2    3    3    0    0 -0.11173613687E+02 -0.10746964332E+02 -0.33398086329E+02  0.54367094856E+02  0.40000024343E+02 0.  0.
         12    1    3    3    0    0  0.11173613687E+02  0.10746964332E+02  0.33398086329E+02  0.36820905144E+02  0.00000000000E+00 0. -1.
         11    1    4    4    0    0 -0.11962265825E+01 -0.10110188732E+02 -0.20778961197E+02  0.23138973679E+02  0.51100000000E-03 0. -1.
        -11    1    4    4    0    0 -0.11670686499E+02 -0.11889759408E+02 -0.45268144108E+01  0.17264511320E+02  0.51100000000E-03 0.  1.
         12    1    4    4    0    0  0.16932993946E+01  0.11252983808E+02 -0.80923107219E+01  0.13963609857E+02  0.00000000000E+00 0. -1.
</event>
<event>
 8    1  0.1240174E-006  0.9118800E+02  0.7816164E-02  0.1184000E+00
        -11   -1    0    0    0    0  0.00000000000E+00  0.00000000000E+00  0.45593999997E+02  0.45594000000E+02  0.51100000000E-03 0. -1.
         11   -1    0    0    0    0 -0.00000000000E+00 -0.00000000000E+00 -0.45593999997E+02  0.45594000000E+02  0.51100000000E-03 0.  1.
         23    2    1    2    0    0  0.00000000000E+00 -0.35527136788E-14 -0.17763568394E-14  0.91188000000E+02  0.91188000000E+02 0.  0.
    9900012    2    3    3    0    0 -0.28012789844E+02 -0.19522102588E+02 -0.13782256731E+02  0.54367089027E+02  0.40000011055E+02 0.  0.
         12    1    3    3    0    0  0.28012789844E+02  0.19522102588E+02  0.13782256731E+02  0.36820910973E+02  0.00000000000E+00 0. -1.
         11    1    4    4    0    0 -0.16008271346E+02 -0.56234066313E+01 -0.42482550341E+01  0.17491001250E+02  0.51100000000E-03 0. -1.
        -11    1    4    4    0    0 -0.21239271679E+02 -0.11460284767E+02 -0.11404687252E+01  0.24160824853E+02  0.51100000000E-03 0.  1.
         12    1    4    4    0    0  0.92347531821E+01 -0.24384111896E+01 -0.83935329722E+01  0.12715262924E+02  0.00000000000E+00 0. -1.
</event>
<event>
 8    1  0.1240174E-006  0.9118800E+02  0.7816164E-02  0.1184000E+00
        -11   -1    0    0    0    0  0.00000000000E+00  0.00000000000E+00  0.45593999997E+02  0.45594000000E+02  0.51100000000E-03 0.  1.
         11   -1    0    0    0    0 -0.00000000000E+00 -0.00000000000E+00 -0.45593999997E+02  0.45594000000E+02  0.51100000000E-03 0. -1.
         23    2    1    2    0    0  0.00000000000E+00  0.44408920985E-15 -0.71054273576E-14  0.91188000000E+02  0.91188000000E+02 0.  0.
    9900012    2    3    3    0    0 -0.11474028057E+02 -0.27084555436E+01 -0.34882669689E+02  0.54366950369E+02  0.39999694956E+02 0.  0.
        -12    1    3    3    0    0  0.11474028057E+02  0.27084555436E+01  0.34882669689E+02  0.36821049631E+02  0.00000000000E+00 0.  1.
         11    1    4    4    0    0  0.62556087454E+00 -0.24762412574E+01 -0.85013353711E+01  0.88766998668E+01  0.51100000000E-03 0. -1.
        -11    1    4    4    0    0 -0.22212630393E+02  0.29031289227E+01 -0.26755958937E+02  0.34895708123E+02  0.51100000000E-03 0.  1.
        -12    1    4    4    0    0  0.10113041461E+02 -0.31353432089E+01  0.37462461899E+00  0.10594542380E+02  0.00000000000E+00 0.  1.
</event>
<event>
 8    1  0.1240174E-006  0.9118800E+02  0.7816164E-02  0.1184000E+00
        -11   -1    0    0    0    0  0.00000000000E+00  0.00000000000E+00  0.45593999997E+02  0.45594000000E+02  0.51100000000E-03 0. -1.
         11   -1    0    0    0    0 -0.00000000000E+00 -0.00000000000E+00 -0.45593999997E+02  0.45594000000E+02  0.51100000000E-03 0.  1.
         23    2    1    2    0    0  0.00000000000E+00  0.00000000000E+00 -0.35527136788E-14  0.91188000000E+02  0.91188000000E+02 0.  0.
    9900012    2    3    3    0    0 -0.16994192041E+02  0.15940371135E+02 -0.28511089712E+02  0.54367078887E+02  0.39999987939E+02 0.  0.
         12    1    3    3    0    0  0.16994192041E+02 -0.15940371135E+02  0.28511089712E+02  0.36820921113E+02  0.00000000000E+00 0. -1.
         11    1    4    4    0    0 -0.88800962289E+01  0.18932422513E+01 -0.26396543657E+01  0.94555936190E+01  0.51100000000E-03 0. -1.
        -11    1    4    4    0    0 -0.11262942594E+02  0.21468884066E+02 -0.83797683975E+01  0.25651264639E+02  0.51100000000E-03 0.  1.
         12    1    4    4    0    0  0.31488467814E+01 -0.74217551827E+01 -0.17491666948E+02  0.19260220629E+02  0.00000000000E+00 0. -1.
</event>
<event>
 8    1  0.1240174E-006  0.9118800E+02  0.7816164E-02  0.1184000E+00
        -11   -1    0    0    0    0  0.00000000000E+00  0.00000000000E+00  0.45593999997E+02  0.45594000000E+02  0.51100000000E-03 0. -1.
         11   -1    0    0    0    0 -0.00000000000E+00 -0.00000000000E+00 -0.45593999997E+02  0.45594000000E+02  0.51100000000E-03 0.  1.
         23    2    1    2    0    0  0.00000000000E+00  0.71054273576E-14  0.88817841970E-15  0.91188000000E+02  0.91188000000E+02 0.  0.
    9900012    2    3    3    0    0 -0.16736756380E+02  0.32535573686E+02  0.41361077843E+01  0.54366946826E+02  0.39999686879E+02 0.  0.
        -12    1    3    3    0    0  0.16736756380E+02 -0.32535573686E+02 -0.41361077843E+01  0.36821053174E+02  0.00000000000E+00 0.  1.
         11    1    4    4    0    0  0.30105613655E+01 -0.18189363395E+00 -0.15471909929E+01  0.33897441288E+01  0.51100000000E-03 0.  1.
        -11    1    4    4    0    0 -0.24084439928E+01  0.18525528468E+02 -0.12197323120E+02  0.22310770920E+02  0.51100000000E-03 0. -1.
         12    1    4    4    0    0 -0.17338873753E+02  0.14191938852E+02  0.17880621898E+02  0.28666431777E+02  0.00000000000E+00 0. -1.
</event>
<event>
 8    1  0.1240174E-006  0.9118800E+02  0.7816164E-02  0.1184000E+00
        -11   -1    0    0    0    0  0.00000000000E+00  0.00000000000E+00  0.45593999997E+02  0.45594000000E+02  0.51100000000E-03 0.  1.
         11   -1    0    0    0    0 -0.00000000000E+00 -0.00000000000E+00 -0.45593999997E+02  0.45594000000E+02  0.51100000000E-03 0. -1.
         23    2    1    2    0    0  0.35527136788E-14  0.17763568394E-14 -0.35527136788E-14  0.91188000000E+02  0.91188000000E+02 0.  0.
    9900012    2    3    3    0    0 -0.18827125186E+02 -0.79831243558E+01  0.30620098053E+02  0.54367064080E+02  0.39999954184E+02 0.  0.
         12    1    3    3    0    0  0.18827125186E+02  0.79831243558E+01 -0.30620098053E+02  0.36820935920E+02  0.00000000000E+00 0. -1.
         11    1    4    4    0    0 -0.14318882343E+02  0.10217029193E+02  0.87507820218E+00  0.17612036770E+02  0.51100000000E-03 0. -1.
        -11    1    4    4    0    0 -0.33239514913E+01 -0.16780359096E+02  0.17873794628E+02  0.24740687937E+02  0.51100000000E-03 0.  1.
         12    1    4    4    0    0 -0.11842913520E+01 -0.14197944524E+01  0.11871225222E+02  0.12014339373E+02  0.00000000000E+00 0. -1.
</event>
<event>
 8    1  0.1240174E-006  0.9118800E+02  0.7816164E-02  0.1184000E+00
        -11   -1    0    0    0    0  0.00000000000E+00  0.00000000000E+00  0.45593999997E+02  0.45594000000E+02  0.51100000000E-03 0.  1.
         11   -1    0    0    0    0 -0.00000000000E+00 -0.00000000000E+00 -0.45593999997E+02  0.45594000000E+02  0.51100000000E-03 0. -1.
         23    2    1    2    0    0  0.44408920985E-15 -0.35527136788E-14  0.00000000000E+00  0.91188000000E+02  0.91188000000E+02 0.  0.
    9900012    2    3    3    0    0  0.34495492508E+01 -0.16917812442E+02 -0.32521825224E+02  0.54367070032E+02  0.39999967751E+02 0.  0.
        -12    1    3    3    0    0 -0.34495492508E+01  0.16917812442E+02  0.32521825224E+02  0.36820929968E+02  0.00000000000E+00 0.  1.
         11    1    4    4    0    0 -0.34827574264E+01 -0.82048345512E+01 -0.13486255060E+02  0.16165642119E+02  0.51100000000E-03 0. -1.
        -11    1    4    4    0    0  0.84754150604E+01  0.47299018252E+01  0.47732880434E+01  0.10816141213E+02  0.51100000000E-03 0.  1.
        -12    1    4    4    0    0 -0.15431083833E+01 -0.13442879716E+02 -0.23808858207E+02  0.27385286700E+02  0.00000000000E+00 0.  1.
</event>
<event>
 8    1  0.1240174E-006  0.9118800E+02  0.7816164E-02  0.1184000E+00
        -11   -1    0    0    0    0  0.00000000000E+00  0.00000000000E+00  0.45593999997E+02  0.45594000000E+02  0.51100000000E-03 0. -1.
         11   -1    0    0    0    0 -0.00000000000E+00 -0.00000000000E+00 -0.45593999997E+02  0.45594000000E+02  0.51100000000E-03 0.  1.
         23    2    1    2    0    0 -0.17763568394E-14 -0.35527136788E-14  0.35527136788E-14  0.91188000000E+02  0.91188000000E+02 0.  0.
    9900012    2    3    3    0    0 -0.11762453444E+02 -0.30893085935E+02  0.16218564769E+02  0.54367083216E+02  0.39999997808E+02 0.  0.
         12    1    3    3    0    0  0.11762453444E+02  0.30893085935E+02 -0.16218564769E+02  0.36820916784E+02  0.00000000000E+00 0. -1.
         11    1    4    4    0    0 -0.15684897296E+02 -0.12691325535E+02  0.21274342935E+02  0.29320358364E+02  0.51100000000E-03 0. -1.
        -11    1    4    4    0    0 -0.88899055020E+00  0.20415240190E+01  0.20828389195E+01  0.30489904467E+01  0.51100000000E-03 0.  1.
        -12    1    4    4    0    0  0.48114344020E+01 -0.20243284419E+02 -0.71386170852E+01  0.21997734405E+02  0.00000000000E+00 0.  1.
</event>
<event>
 8    1  0.1240174E-006  0.9118800E+02  0.7816164E-02  0.1184000E+00
        -11   -1    0    0    0    0  0.00000000000E+00  0.00000000000E+00  0.45593999997E+02  0.45594000000E+02  0.51100000000E-03 0. -1.
         11   -1    0    0    0    0 -0.00000000000E+00 -0.00000000000E+00 -0.45593999997E+02  0.45594000000E+02  0.51100000000E-03 0.  1.
         23    2    1    2    0    0  0.00000000000E+00 -0.17763568394E-14  0.00000000000E+00  0.91188000000E+02  0.91188000000E+02 0.  0.
    9900012    2    3    3    0    0  0.98591141281E+01  0.14967307783E+02  0.32164340531E+02  0.54367255365E+02  0.40000390253E+02 0.  0.
        -12    1    3    3    0    0 -0.98591141281E+01 -0.14967307783E+02 -0.32164340531E+02  0.36820744635E+02  0.00000000000E+00 0.  1.
         11    1    4    4    0    0 -0.17589217685E+01  0.69531230575E+01  0.34743340479E+01  0.79693615414E+01  0.51100000000E-03 0. -1.
        -11    1    4    4    0    0  0.17245444144E+02  0.65968752944E+01  0.14215453913E+01  0.18518771529E+02  0.51100000000E-03 0.  1.
         12    1    4    4    0    0 -0.56274082472E+01  0.14173094315E+01  0.27268461092E+02  0.27879122295E+02  0.00000000000E+00 0. -1.
</event>
<event>
 8    1  0.1240174E-006  0.9118800E+02  0.7816164E-02  0.1184000E+00
        -11   -1    0    0    0    0  0.00000000000E+00  0.00000000000E+00  0.45593999997E+02  0.45594000000E+02  0.51100000000E-03 0. -1.
         11   -1    0    0    0    0 -0.00000000000E+00 -0.00000000000E+00 -0.45593999997E+02  0.45594000000E+02  0.51100000000E-03 0.  1.
         23    2    1    2    0    0  0.00000000000E+00  0.00000000000E+00  0.71054273576E-14  0.91188000000E+02  0.91188000000E+02 0.  0.
    9900012    2    3    3    0    0  0.44106734746E+01  0.18865832103E+02  0.31311416437E+02  0.54367102934E+02  0.40000042758E+02 0.  0.
        -12    1    3    3    0    0 -0.44106734746E+01 -0.18865832103E+02 -0.31311416437E+02  0.36820897066E+02  0.00000000000E+00 0.  1.
         11    1    4    4    0    0  0.86103337413E+01  0.27359937201E+01  0.18646628757E+02  0.20720045198E+02  0.51100000000E-03 0. -1.
        -11    1    4    4    0    0 -0.86095688584E+00  0.87126842747E+01  0.20538329184E+02  0.22326555488E+02  0.51100000000E-03 0.  1.
        -12    1    4    4    0    0 -0.33387033809E+01  0.74171541086E+01 -0.78735415029E+01  0.11320502247E+02  0.00000000000E+00 0.  1.
</event>
<event>
 8    1  0.1240174E-006  0.9118800E+02  0.7816164E-02  0.1184000E+00
        -11   -1    0    0    0    0  0.00000000000E+00  0.00000000000E+00  0.45593999997E+02  0.45594000000E+02  0.51100000000E-03 0.  1.
         11   -1    0    0    0    0 -0.00000000000E+00 -0.00000000000E+00 -0.45593999997E+02  0.45594000000E+02  0.51100000000E-03 0. -1.
         23    2    1    2    0    0  0.49960036108E-15 -0.35527136788E-14  0.00000000000E+00  0.91188000000E+02  0.91188000000E+02 0.  0.
    9900012    2    3    3    0    0  0.19343389320E+00  0.30326059996E+02 -0.20882368122E+02  0.54367073478E+02  0.39999975608E+02 0.  0.
        -12    1    3    3    0    0 -0.19343389320E+00 -0.30326059996E+02  0.20882368122E+02  0.36820926522E+02  0.00000000000E+00 0.  1.
         11    1    4    4    0    0  0.66051153198E+01  0.12417285843E+02 -0.64197224873E+01  0.15460574801E+02  0.51100000000E-03 0. -1.
        -11    1    4    4    0    0 -0.63365663680E+01  0.13697912274E+02  0.72822134153E+01  0.16757550731E+02  0.51100000000E-03 0.  1.
         12    1    4    4    0    0 -0.75115058560E-01  0.42108618790E+01 -0.21744859050E+02  0.22148947947E+02  0.00000000000E+00 0. -1.
</event>
<event>
 8    1  0.1240174E-006  0.9118800E+02  0.7816164E-02  0.1184000E+00
        -11   -1    0    0    0    0  0.00000000000E+00  0.00000000000E+00  0.45593999997E+02  0.45594000000E+02  0.51100000000E-03 0.  1.
         11   -1    0    0    0    0 -0.00000000000E+00 -0.00000000000E+00 -0.45593999997E+02  0.45594000000E+02  0.51100000000E-03 0. -1.
         23    2    1    2    0    0  0.00000000000E+00  0.00000000000E+00  0.00000000000E+00  0.91188000000E+02  0.91188000000E+02 0.  0.
    9900012    2    3    3    0    0  0.25058888377E+01 -0.89851351427E+01  0.35619771942E+02  0.54367078154E+02  0.39999986267E+02 0.  0.
         12    1    3    3    0    0 -0.25058888377E+01  0.89851351427E+01 -0.35619771942E+02  0.36820921846E+02  0.00000000000E+00 0. -1.
         11    1    4    4    0    0  0.19640688783E+01  0.38295253286E+01 -0.65730207555E+01  0.78566807822E+01  0.51100000000E-03 0. -1.
        -11    1    4    4    0    0  0.62713340217E+01 -0.78054706555E+01  0.33463573491E+02  0.34929439641E+02  0.51100000000E-03 0.  1.
        -12    1    4    4    0    0 -0.57295140623E+01 -0.50091898158E+01  0.87292192065E+01  0.11580957730E+02  0.00000000000E+00 0.  1.
</event>
<event>
 8    1  0.1240174E-006  0.9118800E+02  0.7816164E-02  0.1184000E+00
        -11   -1    0    0    0    0  0.00000000000E+00  0.00000000000E+00  0.45593999997E+02  0.45594000000E+02  0.51100000000E-03 0.  1.
         11   -1    0    0    0    0 -0.00000000000E+00 -0.00000000000E+00 -0.45593999997E+02  0.45594000000E+02  0.51100000000E-03 0. -1.
         23    2    1    2    0    0  0.00000000000E+00  0.35527136788E-14  0.35527136788E-14  0.91188000000E+02  0.91188000000E+02 0.  0.
    9900012    2    3    3    0    0  0.23228334092E+02  0.13778165644E+02  0.25027695773E+02  0.54367096848E+02  0.40000028884E+02 0.  0.
         12    1    3    3    0    0 -0.23228334092E+02 -0.13778165644E+02 -0.25027695773E+02  0.36820903152E+02  0.00000000000E+00 0. -1.
         11    1    4    4    0    0  0.19270814308E+02 -0.41304515371E+01  0.65753720823E+01  0.20776439356E+02  0.51100000000E-03 0. -1.
        -11    1    4    4    0    0  0.10763978231E+02  0.25603729060E+01  0.53298024331E+01  0.12281104633E+02  0.51100000000E-03 0.  1.
        -12    1    4    4    0    0 -0.68064584467E+01  0.15348244275E+02  0.13122521258E+02  0.21309552859E+02  0.00000000000E+00 0.  1.
</event>
<event>
 8    1  0.1240174E-006  0.9118800E+02  0.7816164E-02  0.1184000E+00
        -11   -1    0    0    0    0  0.00000000000E+00  0.00000000000E+00  0.45593999997E+02  0.45594000000E+02  0.51100000000E-03 0. -1.
         11   -1    0    0    0    0 -0.00000000000E+00 -0.00000000000E+00 -0.45593999997E+02  0.45594000000E+02  0.51100000000E-03 0.  1.
         23    2    1    2    0    0  0.11241008124E-14  0.00000000000E+00 -0.13322676296E-14  0.91188000000E+02  0.91188000000E+02 0.  0.
    9900012    2    3    3    0    0 -0.42279765082E-01 -0.36731260902E+02  0.25677083731E+01  0.54367076039E+02  0.39999981447E+02 0.  0.
        -12    1    3    3    0    0  0.42279765082E-01  0.36731260902E+02 -0.25677083731E+01  0.36820923961E+02  0.00000000000E+00 0.  1.
         11    1    4    4    0    0  0.17977030186E+01 -0.29802228198E+02  0.70042068464E+01  0.30666976628E+02  0.51100000000E-03 0. -1.
        -11    1    4    4    0    0 -0.92506138236E+01  0.35272882472E+01 -0.45210642746E+01  0.10883732858E+02  0.51100000000E-03 0.  1.
        -12    1    4    4    0    0  0.74106310399E+01 -0.10456320951E+02  0.84565801314E-01  0.12816366553E+02  0.00000000000E+00 0.  1.
</event>
<event>
 8    1  0.1240174E-006  0.9118800E+02  0.7816164E-02  0.1184000E+00
        -11   -1    0    0    0    0  0.00000000000E+00  0.00000000000E+00  0.45593999997E+02  0.45594000000E+02  0.51100000000E-03 0. -1.
         11   -1    0    0    0    0 -0.00000000000E+00 -0.00000000000E+00 -0.45593999997E+02  0.45594000000E+02  0.51100000000E-03 0.  1.
         23    2    1    2    0    0  0.17763568394E-14 -0.35527136788E-14 -0.35527136788E-14  0.91188000000E+02  0.91188000000E+02 0.  0.
    9900012    2    3    3    0    0 -0.84773861916E+01  0.28000683259E+02  0.22358086205E+02  0.54366968532E+02  0.39999736361E+02 0.  0.
        -12    1    3    3    0    0  0.84773861916E+01 -0.28000683259E+02 -0.22358086205E+02  0.36821031468E+02  0.00000000000E+00 0.  1.
         11    1    4    4    0    0  0.67310075238E+01  0.17199443990E+02  0.19087867052E+02  0.26560760620E+02  0.51100000000E-03 0. -1.
        -11    1    4    4    0    0 -0.14374045251E+02  0.48939078017E+01 -0.63723536255E+01  0.16467252395E+02  0.51100000000E-03 0.  1.
        -12    1    4    4    0    0 -0.83434846437E+00  0.59073314671E+01  0.96425727788E+01  0.11338955517E+02  0.00000000000E+00 0.  1.
</event>
<event>
 8    1  0.1240174E-006  0.9118800E+02  0.7816164E-02  0.1184000E+00
        -11   -1    0    0    0    0  0.00000000000E+00  0.00000000000E+00  0.45593999997E+02  0.45594000000E+02  0.51100000000E-03 0. -1.
         11   -1    0    0    0    0 -0.00000000000E+00 -0.00000000000E+00 -0.45593999997E+02  0.45594000000E+02  0.51100000000E-03 0.  1.
         23    2    1    2    0    0  0.00000000000E+00  0.00000000000E+00  0.88817841970E-15  0.91188000000E+02  0.91188000000E+02 0.  0.
    9900012    2    3    3    0    0 -0.36192483572E+02  0.33678558955E+01  0.58772302445E+01  0.54367079916E+02  0.39999990285E+02 0.  0.
        -12    1    3    3    0    0  0.36192483572E+02 -0.33678558955E+01 -0.58772302445E+01  0.36820920084E+02  0.00000000000E+00 0.  1.
         11    1    4    4    0    0 -0.24852959035E+02  0.21061054457E+01 -0.42428119352E+01  0.25300330162E+02  0.51100000000E-03 0. -1.
        -11    1    4    4    0    0 -0.93721003306E+01  0.12576326611E+02  0.47423935509E+01  0.16385681325E+02  0.51100000000E-03 0.  1.
         12    1    4    4    0    0 -0.19674242070E+01 -0.11314576162E+02  0.53776486287E+01  0.12681068429E+02  0.00000000000E+00 0. -1.
</event>
<event>
 8    1  0.1240174E-006  0.9118800E+02  0.7816164E-02  0.1184000E+00
        -11   -1    0    0    0    0  0.00000000000E+00  0.00000000000E+00  0.45593999997E+02  0.45594000000E+02  0.51100000000E-03 0.  1.
         11   -1    0    0    0    0 -0.00000000000E+00 -0.00000000000E+00 -0.45593999997E+02  0.45594000000E+02  0.51100000000E-03 0. -1.
         23    2    1    2    0    0 -0.71054273576E-14 -0.35527136788E-14  0.35527136788E-14  0.91188000000E+02  0.91188000000E+02 0.  0.
    9900012    2    3    3    0    0  0.27819304752E+02  0.21167389191E+02 -0.11567524654E+02  0.54367085988E+02  0.40000004127E+02 0.  0.
        -12    1    3    3    0    0 -0.27819304752E+02 -0.21167389191E+02  0.11567524654E+02  0.36820914012E+02  0.00000000000E+00 0.  1.
         11    1    4    4    0    0  0.12264208812E+02  0.22528980522E+02 -0.16393802180E+02  0.30442117721E+02  0.51100000000E-03 0.  1.
        -11    1    4    4    0    0 -0.11505188373E+01 -0.58794253236E+01  0.12589222496E+00  0.59922604119E+01  0.51100000000E-03 0. -1.
        -12    1    4    4    0    0  0.16705614777E+02  0.45178339928E+01  0.47003853009E+01  0.17932707856E+02  0.00000000000E+00 0.  1.
</event>
<event>
 8    1  0.1240174E-006  0.9118800E+02  0.7816164E-02  0.1184000E+00
        -11   -1    0    0    0    0  0.00000000000E+00  0.00000000000E+00  0.45593999997E+02  0.45594000000E+02  0.51100000000E-03 0.  1.
         11   -1    0    0    0    0 -0.00000000000E+00 -0.00000000000E+00 -0.45593999997E+02  0.45594000000E+02  0.51100000000E-03 0. -1.
         23    2    1    2    0    0  0.17763568394E-14  0.00000000000E+00 -0.71054273576E-14  0.91188000000E+02  0.91188000000E+02 0.  0.
    9900012    2    3    3    0    0 -0.13805494885E+02  0.32546308492E+01 -0.33979343325E+02  0.54367080894E+02  0.39999992514E+02 0.  0.
        -12    1    3    3    0    0  0.13805494885E+02 -0.32546308492E+01  0.33979343325E+02  0.36820919106E+02  0.00000000000E+00 0.  1.
         11    1    4    4    0    0 -0.49926741461E+01  0.20682018186E+01 -0.26013939767E+02  0.26569330371E+02  0.51100000000E-03 0. -1.
        -11    1    4    4    0    0  0.42394209675E+01  0.99807927690E+01 -0.40862185123E+01  0.11588187797E+02  0.51100000000E-03 0.  1.
        -12    1    4    4    0    0 -0.13052241707E+02 -0.87943637384E+01 -0.38791850455E+01  0.16209562725E+02  0.00000000000E+00 0.  1.
</event>
<event>
 8    1  0.1240174E-006  0.9118800E+02  0.7816164E-02  0.1184000E+00
        -11   -1    0    0    0    0  0.00000000000E+00  0.00000000000E+00  0.45593999997E+02  0.45594000000E+02  0.51100000000E-03 0.  1.
         11   -1    0    0    0    0 -0.00000000000E+00 -0.00000000000E+00 -0.45593999997E+02  0.45594000000E+02  0.51100000000E-03 0. -1.
         23    2    1    2    0    0 -0.22204460493E-15 -0.17763568394E-14  0.00000000000E+00  0.91188000000E+02  0.91188000000E+02 0.  0.
    9900012    2    3    3    0    0  0.11200043357E+01  0.15038139023E+02 -0.33591295777E+02  0.54367147389E+02  0.40000144103E+02 0.  0.
        -12    1    3    3    0    0 -0.11200043357E+01 -0.15038139023E+02  0.33591295777E+02  0.36820852611E+02  0.00000000000E+00 0.  1.
         11    1    4    4    0    0  0.49594452121E+01  0.36398218877E+01  0.18365514662E+01  0.64200717858E+01  0.51100000000E-03 0. -1.
        -11    1    4    4    0    0  0.58588313469E+00  0.20857441964E+02 -0.17652662645E+02  0.27331166148E+02  0.51100000000E-03 0.  1.
         12    1    4    4    0    0 -0.44253240111E+01 -0.94591248288E+01 -0.17775184599E+02  0.20615909455E+02  0.00000000000E+00 0. -1.
</event>
<event>
 8    1  0.1240174E-006  0.9118800E+02  0.7816164E-02  0.1184000E+00
        -11   -1    0    0    0    0  0.00000000000E+00  0.00000000000E+00  0.45593999997E+02  0.45594000000E+02  0.51100000000E-03 0. -1.
         11   -1    0    0    0    0 -0.00000000000E+00 -0.00000000000E+00 -0.45593999997E+02  0.45594000000E+02  0.51100000000E-03 0.  1.
         23    2    1    2    0    0 -0.99920072216E-15  0.00000000000E+00  0.00000000000E+00  0.91188000000E+02  0.91188000000E+02 0.  0.
    9900012    2    3    3    0    0  0.35153111422E+00  0.10612471951E+01  0.36803922835E+02  0.54367101644E+02  0.40000039817E+02 0.  0.
        -12    1    3    3    0    0 -0.35153111422E+00 -0.10612471951E+01 -0.36803922835E+02  0.36820898356E+02  0.00000000000E+00 0.  1.
         11    1    4    4    0    0 -0.12368169898E+02 -0.64361659398E+00  0.18455343414E+02  0.22225786144E+02  0.51100000000E-03 0. -1.
        -11    1    4    4    0    0  0.56101949246E+01  0.80718362967E+01  0.20158427233E+02  0.22427461227E+02  0.51100000000E-03 0.  1.
        -12    1    4    4    0    0  0.71095060880E+01 -0.63669725076E+01 -0.18098478120E+01  0.97138542727E+01  0.00000000000E+00 0.  1.
</event>
<event>
 8    1  0.1240174E-006  0.9118800E+02  0.7816164E-02  0.1184000E+00
        -11   -1    0    0    0    0  0.00000000000E+00  0.00000000000E+00  0.45593999997E+02  0.45594000000E+02  0.51100000000E-03 0. -1.
         11   -1    0    0    0    0 -0.00000000000E+00 -0.00000000000E+00 -0.45593999997E+02  0.45594000000E+02  0.51100000000E-03 0.  1.
         23    2    1    2    0    0 -0.35527136788E-14 -0.35527136788E-14  0.00000000000E+00  0.91188000000E+02  0.91188000000E+02 0.  0.
    9900012    2    3    3    0    0  0.21305576140E+02  0.17894707168E+02  0.24116887372E+02  0.54367185563E+02  0.40000231127E+02 0.  0.
        -12    1    3    3    0    0 -0.21305576140E+02 -0.17894707168E+02 -0.24116887372E+02  0.36820814437E+02  0.00000000000E+00 0.  1.
         11    1    4    4    0    0  0.16233365129E+02  0.13089150037E+02  0.13833029742E+02  0.25024002562E+02  0.51100000000E-03 0. -1.
        -11    1    4    4    0    0  0.48179066493E+00  0.15640371839E+02  0.48513801114E+01  0.16382589623E+02  0.51100000000E-03 0.  1.
         12    1    4    4    0    0  0.45904203462E+01 -0.10834814708E+02  0.54324775178E+01  0.12960593377E+02  0.00000000000E+00 0. -1.
</event>
<event>
 8    1  0.1240174E-006  0.9118800E+02  0.7816164E-02  0.1184000E+00
        -11   -1    0    0    0    0  0.00000000000E+00  0.00000000000E+00  0.45593999997E+02  0.45594000000E+02  0.51100000000E-03 0.  1.
         11   -1    0    0    0    0 -0.00000000000E+00 -0.00000000000E+00 -0.45593999997E+02  0.45594000000E+02  0.51100000000E-03 0. -1.
         23    2    1    2    0    0  0.17763568394E-14  0.00000000000E+00 -0.88817841970E-15  0.91188000000E+02  0.91188000000E+02 0.  0.
    9900012    2    3    3    0    0 -0.11651603330E+02  0.34320539294E+02  0.64900743043E+01  0.54367077388E+02  0.39999984520E+02 0.  0.
         12    1    3    3    0    0  0.11651603330E+02 -0.34320539294E+02 -0.64900743043E+01  0.36820922612E+02  0.00000000000E+00 0. -1.
         11    1    4    4    0    0 -0.47551473723E+01 -0.88555878869E-01 -0.42139011138E+01  0.63542294209E+01  0.51100000000E-03 0. -1.
        -11    1    4    4    0    0 -0.13136304077E+02  0.29680688299E+02  0.18167509663E+02  0.37196292159E+02  0.51100000000E-03 0.  1.
        -12    1    4    4    0    0  0.62398481195E+01  0.47284068730E+01 -0.74635342454E+01  0.10816555808E+02  0.00000000000E+00 0.  1.
</event>
<event>
 8    1  0.1240174E-006  0.9118800E+02  0.7816164E-02  0.1184000E+00
        -11   -1    0    0    0    0  0.00000000000E+00  0.00000000000E+00  0.45593999997E+02  0.45594000000E+02  0.51100000000E-03 0. -1.
         11   -1    0    0    0    0 -0.00000000000E+00 -0.00000000000E+00 -0.45593999997E+02  0.45594000000E+02  0.51100000000E-03 0.  1.
         23    2    1    2    0    0  0.00000000000E+00  0.88817841970E-15  0.00000000000E+00  0.91188000000E+02  0.91188000000E+02 0.  0.
    9900012    2    3    3    0    0 -0.16686833673E+02  0.25651037356E+01  0.32722319998E+02  0.54367076583E+02  0.39999982686E+02 0.  0.
        -12    1    3    3    0    0  0.16686833673E+02 -0.25651037356E+01 -0.32722319998E+02  0.36820923417E+02  0.00000000000E+00 0.  1.
         11    1    4    4    0    0 -0.47321651333E+01  0.13058834434E+02  0.22704198627E+02  0.26615919657E+02  0.51100000000E-03 0. -1.
        -11    1    4    4    0    0  0.13260278826E+01 -0.65852587641E+01  0.12013693458E+02  0.13764185907E+02  0.51100000000E-03 0.  1.
        -12    1    4    4    0    0 -0.13280696422E+02 -0.39084719347E+01 -0.19955720864E+01  0.13986971019E+02  0.00000000000E+00 0.  1.
</event>
<event>
 8    1  0.1240174E-006  0.9118800E+02  0.7816164E-02  0.1184000E+00
        -11   -1    0    0    0    0  0.00000000000E+00  0.00000000000E+00  0.45593999997E+02  0.45594000000E+02  0.51100000000E-03 0.  1.
         11   -1    0    0    0    0 -0.00000000000E+00 -0.00000000000E+00 -0.45593999997E+02  0.45594000000E+02  0.51100000000E-03 0. -1.
         23    2    1    2    0    0  0.00000000000E+00  0.17763568394E-14  0.00000000000E+00  0.91188000000E+02  0.91188000000E+02 0.  0.
    9900012    2    3    3    0    0 -0.33159821609E+02  0.82784735299E+01 -0.13699391783E+02  0.54367078932E+02  0.39999988041E+02 0.  0.
        -12    1    3    3    0    0  0.33159821609E+02 -0.82784735299E+01  0.13699391783E+02  0.36820921068E+02  0.00000000000E+00 0.  1.
         11    1    4    4    0    0 -0.10826034157E+02 -0.37851016604E+01 -0.86571379070E+01  0.14369274413E+02  0.51100000000E-03 0. -1.
        -11    1    4    4    0    0 -0.16599726110E+02  0.10581980000E+02 -0.17413332317E+02  0.26282186939E+02  0.51100000000E-03 0.  1.
        -12    1    4    4    0    0 -0.57340613416E+01  0.14815951901E+01  0.12371078442E+02  0.13715617580E+02  0.00000000000E+00 0.  1.
</event>
<event>
 8    1  0.1240174E-006  0.9118800E+02  0.7816164E-02  0.1184000E+00
        -11   -1    0    0    0    0  0.00000000000E+00  0.00000000000E+00  0.45593999997E+02  0.45594000000E+02  0.51100000000E-03 0. -1.
         11   -1    0    0    0    0 -0.00000000000E+00 -0.00000000000E+00 -0.45593999997E+02  0.45594000000E+02  0.51100000000E-03 0.  1.
         23    2    1    2    0    0  0.35527136788E-14 -0.35527136788E-14  0.35527136788E-14  0.91188000000E+02  0.91188000000E+02 0.  0.
    9900012    2    3    3    0    0 -0.20453519129E+02  0.15039078721E+02 -0.26669426088E+02  0.54367100753E+02  0.40000037786E+02 0.  0.
         12    1    3    3    0    0  0.20453519129E+02 -0.15039078721E+02  0.26669426088E+02  0.36820899247E+02  0.00000000000E+00 0. -1.
         11    1    4    4    0    0  0.80503433600E+00 -0.10434642520E+02 -0.37174071418E+01  0.11106257737E+02  0.51100000000E-03 0. -1.
        -11    1    4    4    0    0 -0.12421304315E+02  0.62076833953E+01 -0.15457356625E+02  0.20778691203E+02  0.51100000000E-03 0.  1.
         12    1    4    4    0    0 -0.88372491503E+01  0.19266037845E+02 -0.74946623209E+01  0.22482151812E+02  0.00000000000E+00 0. -1.
</event>
<event>
 8    1  0.1240174E-006  0.9118800E+02  0.7816164E-02  0.1184000E+00
        -11   -1    0    0    0    0  0.00000000000E+00  0.00000000000E+00  0.45593999997E+02  0.45594000000E+02  0.51100000000E-03 0. -1.
         11   -1    0    0    0    0 -0.00000000000E+00 -0.00000000000E+00 -0.45593999997E+02  0.45594000000E+02  0.51100000000E-03 0.  1.
         23    2    1    2    0    0  0.17763568394E-14 -0.35527136788E-14 -0.35527136788E-14  0.91188000000E+02  0.91188000000E+02 0.  0.
    9900012    2    3    3    0    0 -0.14239937217E+02  0.28426198347E+02 -0.18572919607E+02  0.54367110452E+02  0.40000059898E+02 0.  0.
        -12    1    3    3    0    0  0.14239937217E+02 -0.28426198347E+02  0.18572919607E+02  0.36820889548E+02  0.00000000000E+00 0.  1.
         11    1    4    4    0    0 -0.17599495795E+01  0.22936234445E+02  0.66262143751E+01  0.23938984737E+02  0.51100000000E-03 0. -1.
        -11    1    4    4    0    0 -0.46666998367E+01 -0.29061521534E+01 -0.67630710892E+01  0.87156720064E+01  0.51100000000E-03 0.  1.
         12    1    4    4    0    0 -0.78132878005E+01  0.83961160551E+01 -0.18436062893E+02  0.21712453708E+02  0.00000000000E+00 0. -1.
</event>
<event>
 8    1  0.1240174E-006  0.9118800E+02  0.7816164E-02  0.1184000E+00
        -11   -1    0    0    0    0  0.00000000000E+00  0.00000000000E+00  0.45593999997E+02  0.45594000000E+02  0.51100000000E-03 0. -1.
         11   -1    0    0    0    0 -0.00000000000E+00 -0.00000000000E+00 -0.45593999997E+02  0.45594000000E+02  0.51100000000E-03 0.  1.
         23    2    1    2    0    0  0.17763568394E-14  0.00000000000E+00  0.00000000000E+00  0.91188000000E+02  0.91188000000E+02 0.  0.
    9900012    2    3    3    0    0 -0.76771083881E+01  0.25560327954E+02  0.25367583807E+02  0.54367045823E+02  0.39999912562E+02 0.  0.
        -12    1    3    3    0    0  0.76771083881E+01 -0.25560327954E+02 -0.25367583807E+02  0.36820954177E+02  0.00000000000E+00 0.  1.
         11    1    4    4    0    0  0.24807771118E+01  0.18657020353E+02  0.26677539541E+02  0.32648580057E+02  0.51100000000E-03 0. -1.
        -11    1    4    4    0    0 -0.90669323737E+00 -0.49977606246E+01  0.31769191116E+01  0.59910365706E+01  0.51100000000E-03 0.  1.
        -12    1    4    4    0    0 -0.92511922626E+01  0.11901068226E+02 -0.44868748457E+01  0.15727429195E+02  0.00000000000E+00 0.  1.
</event>
<event>
 8    1  0.1240174E-006  0.9118800E+02  0.7816164E-02  0.1184000E+00
        -11   -1    0    0    0    0  0.00000000000E+00  0.00000000000E+00  0.45593999997E+02  0.45594000000E+02  0.51100000000E-03 0.  1.
         11   -1    0    0    0    0 -0.00000000000E+00 -0.00000000000E+00 -0.45593999997E+02  0.45594000000E+02  0.51100000000E-03 0. -1.
         23    2    1    2    0    0  0.35527136788E-14  0.00000000000E+00  0.00000000000E+00  0.91188000000E+02  0.91188000000E+02 0.  0.
    9900012    2    3    3    0    0 -0.28897743606E+02 -0.22022032713E+02 -0.59778544013E+01  0.54367024271E+02  0.39999863431E+02 0.  0.
        -12    1    3    3    0    0  0.28897743606E+02  0.22022032713E+02  0.59778544013E+01  0.36820975729E+02  0.00000000000E+00 0.  1.
         11    1    4    4    0    0 -0.64929980481E+01 -0.16187836364E+02 -0.36631423580E+01  0.17821999944E+02  0.51100000000E-03 0.  1.
        -11    1    4    4    0    0 -0.11284879645E+02 -0.83031669921E+01 -0.14293652038E+02  0.20014983876E+02  0.51100000000E-03 0. -1.
        -12    1    4    4    0    0 -0.11119865913E+02  0.24689706429E+01  0.11978939994E+02  0.16530040452E+02  0.00000000000E+00 0.  1.
</event>
<event>
 8    1  0.1240174E-006  0.9118800E+02  0.7816164E-02  0.1184000E+00
        -11   -1    0    0    0    0  0.00000000000E+00  0.00000000000E+00  0.45593999997E+02  0.45594000000E+02  0.51100000000E-03 0.  1.
         11   -1    0    0    0    0 -0.00000000000E+00 -0.00000000000E+00 -0.45593999997E+02  0.45594000000E+02  0.51100000000E-03 0. -1.
         23    2    1    2    0    0 -0.17763568394E-14  0.00000000000E+00  0.00000000000E+00  0.91188000000E+02  0.91188000000E+02 0.  0.
    9900012    2    3    3    0    0  0.81688730785E+01  0.35717799777E+02 -0.36452583454E+01  0.54367087237E+02  0.40000006975E+02 0.  0.
        -12    1    3    3    0    0 -0.81688730785E+01 -0.35717799777E+02  0.36452583454E+01  0.36820912763E+02  0.00000000000E+00 0.  1.
         11    1    4    4    0    0 -0.86129020067E+01  0.10309964208E+02 -0.42343995836E+00  0.13440861007E+02  0.51100000000E-03 0. -1.
        -11    1    4    4    0    0  0.51365001734E+01 -0.56456288539E+01 -0.47018259384E+00  0.76470799080E+01  0.51100000000E-03 0.  1.
        -12    1    4    4    0    0  0.11645274912E+02  0.31053464422E+02 -0.27516357932E+01  0.33279146322E+02  0.00000000000E+00 0.  1.
</event>
<event>
 8    1  0.1240174E-006  0.9118800E+02  0.7816164E-02  0.1184000E+00
        -11   -1    0    0    0    0  0.00000000000E+00  0.00000000000E+00  0.45593999997E+02  0.45594000000E+02  0.51100000000E-03 0.  1.
         11   -1    0    0    0    0 -0.00000000000E+00 -0.00000000000E+00 -0.45593999997E+02  0.45594000000E+02  0.51100000000E-03 0. -1.
         23    2    1    2    0    0  0.00000000000E+00  0.00000000000E+00  0.00000000000E+00  0.91188000000E+02  0.91188000000E+02 0.  0.
    9900012    2    3    3    0    0  0.11323492935E+02  0.12189803879E+02 -0.32847559105E+02  0.54367150607E+02  0.40000151439E+02 0.  0.
        -12    1    3    3    0    0 -0.11323492935E+02 -0.12189803879E+02  0.32847559105E+02  0.36820849393E+02  0.00000000000E+00 0.  1.
         11    1    4    4    0    0 -0.47116914567E+01  0.11767821898E+01 -0.11359149369E+02  0.12353749526E+02  0.51100000000E-03 0. -1.
        -11    1    4    4    0    0  0.21822244726E+02  0.16690516882E+02 -0.19427988860E+02  0.33648632514E+02  0.51100000000E-03 0.  1.
        -12    1    4    4    0    0 -0.57870603351E+01 -0.56774951934E+01 -0.20604208766E+01  0.83647685672E+01  0.00000000000E+00 0.  1.
</event>
<event>
 8    1  0.1240174E-006  0.9118800E+02  0.7816164E-02  0.1184000E+00
        -11   -1    0    0    0    0  0.00000000000E+00  0.00000000000E+00  0.45593999997E+02  0.45594000000E+02  0.51100000000E-03 0. -1.
         11   -1    0    0    0    0 -0.00000000000E+00 -0.00000000000E+00 -0.45593999997E+02  0.45594000000E+02  0.51100000000E-03 0.  1.
         23    2    1    2    0    0  0.00000000000E+00  0.00000000000E+00  0.26645352591E-14  0.91188000000E+02  0.91188000000E+02 0.  0.
    9900012    2    3    3    0    0  0.36154033531E+02 -0.53443195421E+00  0.69558462892E+01  0.54367033749E+02  0.39999885036E+02 0.  0.
        -12    1    3    3    0    0 -0.36154033531E+02  0.53443195421E+00 -0.69558462892E+01  0.36820966251E+02  0.00000000000E+00 0.  1.
         11    1    4    4    0    0  0.23149185921E+01  0.24897910801E+01 -0.93219384393E+01  0.99225220704E+01  0.51100000000E-03 0.  1.
        -11    1    4    4    0    0  0.14292929981E+02  0.90477450510E+01  0.12791665318E+02  0.21207928702E+02  0.51100000000E-03 0. -1.
         12    1    4    4    0    0  0.19546184958E+02 -0.12071968085E+02  0.34861194100E+01  0.23236582976E+02  0.00000000000E+00 0. -1.
</event>
<event>
 8    1  0.1240174E-006  0.9118800E+02  0.7816164E-02  0.1184000E+00
        -11   -1    0    0    0    0  0.00000000000E+00  0.00000000000E+00  0.45593999997E+02  0.45594000000E+02  0.51100000000E-03 0. -1.
         11   -1    0    0    0    0 -0.00000000000E+00 -0.00000000000E+00 -0.45593999997E+02  0.45594000000E+02  0.51100000000E-03 0.  1.
         23    2    1    2    0    0  0.00000000000E+00  0.00000000000E+00  0.88817841970E-15  0.91188000000E+02  0.91188000000E+02 0.  0.
    9900012    2    3    3    0    0  0.32453938064E+02 -0.15831294298E+02  0.72035795195E+01  0.54367088375E+02  0.40000009569E+02 0.  0.
         12    1    3    3    0    0 -0.32453938064E+02  0.15831294298E+02 -0.72035795195E+01  0.36820911625E+02  0.00000000000E+00 0. -1.
         11    1    4    4    0    0  0.20689286219E+02 -0.16552000528E+02  0.66012587379E+01  0.27305528798E+02  0.51100000000E-03 0. -1.
        -11    1    4    4    0    0  0.12270442863E+02 -0.95800536311E+01  0.42252775207E+01  0.16130535206E+02  0.51100000000E-03 0.  1.
         12    1    4    4    0    0 -0.50579101880E+00  0.10300759861E+02 -0.36229567392E+01  0.10931024372E+02  0.00000000000E+00 0. -1.
</event>
<event>
 8    1  0.1240174E-006  0.9118800E+02  0.7816164E-02  0.1184000E+00
        -11   -1    0    0    0    0  0.00000000000E+00  0.00000000000E+00  0.45593999997E+02  0.45594000000E+02  0.51100000000E-03 0.  1.
         11   -1    0    0    0    0 -0.00000000000E+00 -0.00000000000E+00 -0.45593999997E+02  0.45594000000E+02  0.51100000000E-03 0. -1.
         23    2    1    2    0    0  0.00000000000E+00  0.35527136788E-14 -0.33306690739E-14  0.91188000000E+02  0.91188000000E+02 0.  0.
    9900012    2    3    3    0    0 -0.20467727524E+02  0.30596008121E+02 -0.85911619379E+00  0.54367059442E+02  0.39999943610E+02 0.  0.
         12    1    3    3    0    0  0.20467727524E+02 -0.30596008121E+02  0.85911619379E+00  0.36820940558E+02  0.00000000000E+00 0. -1.
         11    1    4    4    0    0 -0.86657948931E+01  0.14568947150E+02 -0.17299852855E+02  0.24220551836E+02  0.51100000000E-03 0. -1.
        -11    1    4    4    0    0  0.11063412708E+01  0.11369369218E+01 -0.24038250469E+01  0.28801027219E+01  0.51100000000E-03 0.  1.
        -12    1    4    4    0    0 -0.12908273901E+02  0.14890124050E+02  0.18844561708E+02  0.27266404884E+02  0.00000000000E+00 0.  1.
</event>
<event>
 8    1  0.1240174E-006  0.9118800E+02  0.7816164E-02  0.1184000E+00
        -11   -1    0    0    0    0  0.00000000000E+00  0.00000000000E+00  0.45593999997E+02  0.45594000000E+02  0.51100000000E-03 0. -1.
         11   -1    0    0    0    0 -0.00000000000E+00 -0.00000000000E+00 -0.45593999997E+02  0.45594000000E+02  0.51100000000E-03 0.  1.
         23    2    1    2    0    0  0.00000000000E+00  0.00000000000E+00  0.00000000000E+00  0.91188000000E+02  0.91188000000E+02 0.  0.
    9900012    2    3    3    0    0 -0.33093918573E+02 -0.77586583884E+01  0.14155387061E+02  0.54367092768E+02  0.40000019583E+02 0.  0.
         12    1    3    3    0    0  0.33093918573E+02  0.77586583884E+01 -0.14155387061E+02  0.36820907232E+02  0.00000000000E+00 0. -1.
         11    1    4    4    0    0  0.38566051511E+01 -0.36140445999E+01  0.57709641831E+01  0.78255191218E+01  0.51100000000E-03 0. -1.
        -11    1    4    4    0    0 -0.66171137642E+01 -0.12646959380E+02  0.29062375392E+01  0.14566330802E+02  0.51100000000E-03 0.  1.
         12    1    4    4    0    0 -0.30333409960E+02  0.85023455913E+01  0.54781853387E+01  0.31975242845E+02  0.00000000000E+00 0. -1.
</event>
<event>
 8    1  0.1240174E-006  0.9118800E+02  0.7816164E-02  0.1184000E+00
        -11   -1    0    0    0    0  0.00000000000E+00  0.00000000000E+00  0.45593999997E+02  0.45594000000E+02  0.51100000000E-03 0. -1.
         11   -1    0    0    0    0 -0.00000000000E+00 -0.00000000000E+00 -0.45593999997E+02  0.45594000000E+02  0.51100000000E-03 0.  1.
         23    2    1    2    0    0  0.35527136788E-14 -0.17763568394E-14 -0.35527136788E-14  0.91188000000E+02  0.91188000000E+02 0.  0.
    9900012    2    3    3    0    0 -0.27470889286E+02  0.79179486220E+01  0.23204209731E+02  0.54367095370E+02  0.40000025514E+02 0.  0.
        -12    1    3    3    0    0  0.27470889286E+02 -0.79179486220E+01 -0.23204209731E+02  0.36820904630E+02  0.00000000000E+00 0.  1.
         11    1    4    4    0    0 -0.19361702656E+02  0.95235928387E+01  0.24856132115E+02  0.32915067284E+02  0.51100000000E-03 0. -1.
        -11    1    4    4    0    0  0.15358597734E+01  0.62936039140E+01  0.41578673416E+01  0.76978033595E+01  0.51100000000E-03 0.  1.
        -12    1    4    4    0    0 -0.96450464040E+01 -0.78992481307E+01 -0.58097897261E+01  0.13754224727E+02  0.00000000000E+00 0.  1.
</event>
<event>
 8    1  0.1240174E-006  0.9118800E+02  0.7816164E-02  0.1184000E+00
        -11   -1    0    0    0    0  0.00000000000E+00  0.00000000000E+00  0.45593999997E+02  0.45594000000E+02  0.51100000000E-03 0. -1.
         11   -1    0    0    0    0 -0.00000000000E+00 -0.00000000000E+00 -0.45593999997E+02  0.45594000000E+02  0.51100000000E-03 0.  1.
         23    2    1    2    0    0  0.53290705182E-14  0.00000000000E+00 -0.35527136788E-14  0.91188000000E+02  0.91188000000E+02 0.  0.
    9900012    2    3    3    0    0  0.13425088756E+02  0.13060497387E+02  0.31701414710E+02  0.54366955817E+02  0.39999707374E+02 0.  0.
        -12    1    3    3    0    0 -0.13425088756E+02 -0.13060497387E+02 -0.31701414710E+02  0.36821044183E+02  0.00000000000E+00 0.  1.
         11    1    4    4    0    0 -0.23559214506E+01  0.33056258981E+01  0.53467818218E+01  0.67130920276E+01  0.51100000000E-03 0.  1.
        -11    1    4    4    0    0  0.12087446488E+02  0.14367313208E+02  0.33487137585E+02  0.38391593290E+02  0.51100000000E-03 0. -1.
         12    1    4    4    0    0  0.36935637189E+01 -0.46124417189E+01 -0.71325046967E+01  0.92622704994E+01  0.00000000000E+00 0. -1.
</event>
<event>
 8    1  0.1240174E-006  0.9118800E+02  0.7816164E-02  0.1184000E+00
        -11   -1    0    0    0    0  0.00000000000E+00  0.00000000000E+00  0.45593999997E+02  0.45594000000E+02  0.51100000000E-03 0. -1.
         11   -1    0    0    0    0 -0.00000000000E+00 -0.00000000000E+00 -0.45593999997E+02  0.45594000000E+02  0.51100000000E-03 0.  1.
         23    2    1    2    0    0  0.00000000000E+00  0.00000000000E+00  0.00000000000E+00  0.91188000000E+02  0.91188000000E+02 0.  0.
    9900012    2    3    3    0    0 -0.19635631245E+02  0.26547368337E+02 -0.16292908063E+02  0.54367087013E+02  0.40000006465E+02 0.  0.
        -12    1    3    3    0    0  0.19635631245E+02 -0.26547368337E+02  0.16292908063E+02  0.36820912987E+02  0.00000000000E+00 0.  1.
         11    1    4    4    0    0 -0.11341161358E+02  0.23627203992E+02 -0.10251590731E+02  0.28141816256E+02  0.51100000000E-03 0. -1.
        -11    1    4    4    0    0 -0.36673504677E+01  0.10740716535E+02  0.45874704800E+01  0.12241623128E+02  0.51100000000E-03 0.  1.
        -12    1    4    4    0    0 -0.46271194196E+01 -0.78205521897E+01 -0.10628787812E+02  0.13983647630E+02  0.00000000000E+00 0.  1.
</event>
<event>
 8    1  0.1240174E-006  0.9118800E+02  0.7816164E-02  0.1184000E+00
        -11   -1    0    0    0    0  0.00000000000E+00  0.00000000000E+00  0.45593999997E+02  0.45594000000E+02  0.51100000000E-03 0.  1.
         11   -1    0    0    0    0 -0.00000000000E+00 -0.00000000000E+00 -0.45593999997E+02  0.45594000000E+02  0.51100000000E-03 0. -1.
         23    2    1    2    0    0 -0.35527136788E-14  0.00000000000E+00  0.00000000000E+00  0.91188000000E+02  0.91188000000E+02 0.  0.
    9900012    2    3    3    0    0  0.26723479811E+02 -0.91387852548E+00 -0.25313993849E+02  0.54367111475E+02  0.40000062229E+02 0.  0.
        -12    1    3    3    0    0 -0.26723479811E+02  0.91387852548E+00  0.25313993849E+02  0.36820888525E+02  0.00000000000E+00 0.  1.
         11    1    4    4    0    0  0.31756552932E+01  0.65119127304E+01 -0.67757278308E+01  0.99196916205E+01  0.51100000000E-03 0. -1.
        -11    1    4    4    0    0 -0.64174653867E+01 -0.65149848490E+01 -0.93811610150E+01  0.13100956905E+02  0.51100000000E-03 0.  1.
         12    1    4    4    0    0  0.29965289905E+02 -0.91080640684E+00 -0.91571050032E+01  0.31346462949E+02  0.00000000000E+00 0. -1.
</event>
<event>
 8    1  0.1240174E-006  0.9118800E+02  0.7816164E-02  0.1184000E+00
        -11   -1    0    0    0    0  0.00000000000E+00  0.00000000000E+00  0.45593999997E+02  0.45594000000E+02  0.51100000000E-03 0.  1.
         11   -1    0    0    0    0 -0.00000000000E+00 -0.00000000000E+00 -0.45593999997E+02  0.45594000000E+02  0.51100000000E-03 0. -1.
         23    2    1    2    0    0  0.00000000000E+00 -0.88817841970E-15  0.00000000000E+00  0.91188000000E+02  0.91188000000E+02 0.  0.
    9900012    2    3    3    0    0  0.34410598971E+02 -0.48658761087E+01  0.12166075411E+02  0.54367089327E+02  0.40000011739E+02 0.  0.
         12    1    3    3    0    0 -0.34410598971E+02  0.48658761087E+01 -0.12166075411E+02  0.36820910673E+02  0.00000000000E+00 0. -1.
         11    1    4    4    0    0 -0.20778036722E+01 -0.43695871478E+01 -0.28886737094E+01  0.56351571410E+01  0.51100000000E-03 0. -1.
        -11    1    4    4    0    0  0.28789709897E+01 -0.33376787282E+01  0.14332398043E+02  0.14994872697E+02  0.51100000000E-03 0.  1.
        -12    1    4    4    0    0  0.33609431654E+02  0.28413897673E+01  0.72235107733E+00  0.33737059489E+02  0.00000000000E+00 0.  1.
</event>
<event>
 8    1  0.1240174E-006  0.9118800E+02  0.7816164E-02  0.1184000E+00
        -11   -1    0    0    0    0  0.00000000000E+00  0.00000000000E+00  0.45593999997E+02  0.45594000000E+02  0.51100000000E-03 0.  1.
         11   -1    0    0    0    0 -0.00000000000E+00 -0.00000000000E+00 -0.45593999997E+02  0.45594000000E+02  0.51100000000E-03 0. -1.
         23    2    1    2    0    0  0.00000000000E+00  0.00000000000E+00 -0.44408920985E-15  0.91188000000E+02  0.91188000000E+02 0.  0.
    9900012    2    3    3    0    0 -0.26561664462E+02 -0.25311053598E+02  0.31002263541E+01  0.54367043241E+02  0.39999906675E+02 0.  0.
        -12    1    3    3    0    0  0.26561664462E+02  0.25311053598E+02 -0.31002263541E+01  0.36820956759E+02  0.00000000000E+00 0.  1.
         11    1    4    4    0    0 -0.40986838788E+01 -0.12190983293E+02  0.30766303338E+01  0.13224406893E+02  0.51100000000E-03 0. -1.
        -11    1    4    4    0    0  0.67153272845E+01 -0.43964139154E+01 -0.60965448239E+01  0.10079282460E+02  0.51100000000E-03 0.  1.
        -12    1    4    4    0    0 -0.29178307867E+02 -0.87236563895E+01  0.61201408443E+01  0.31063353888E+02  0.00000000000E+00 0.  1.
</event>
<event>
 8    1  0.1240174E-006  0.9118800E+02  0.7816164E-02  0.1184000E+00
        -11   -1    0    0    0    0  0.00000000000E+00  0.00000000000E+00  0.45593999997E+02  0.45594000000E+02  0.51100000000E-03 0.  1.
         11   -1    0    0    0    0 -0.00000000000E+00 -0.00000000000E+00 -0.45593999997E+02  0.45594000000E+02  0.51100000000E-03 0. -1.
         23    2    1    2    0    0 -0.71054273576E-14  0.17763568394E-14  0.00000000000E+00  0.91188000000E+02  0.91188000000E+02 0.  0.
    9900012    2    3    3    0    0 -0.33033618869E+02 -0.97270673965E+01 -0.13036248541E+02  0.54367087576E+02  0.40000007747E+02 0.  0.
        -12    1    3    3    0    0  0.33033618869E+02  0.97270673965E+01  0.13036248541E+02  0.36820912424E+02  0.00000000000E+00 0.  1.
         11    1    4    4    0    0 -0.56616251476E+00  0.41595308322E+01 -0.17320515159E+02  0.17821966288E+02  0.51100000000E-03 0. -1.
        -11    1    4    4    0    0 -0.19024528089E+02 -0.36839846925E+01  0.14447405635E+01  0.19431718600E+02  0.51100000000E-03 0.  1.
         12    1    4    4    0    0 -0.13442928265E+02 -0.10202613536E+02  0.28395260547E+01  0.17113402687E+02  0.00000000000E+00 0. -1.
</event>
<event>
 8    1  0.1240174E-006  0.9118800E+02  0.7816164E-02  0.1184000E+00
        -11   -1    0    0    0    0  0.00000000000E+00  0.00000000000E+00  0.45593999997E+02  0.45594000000E+02  0.51100000000E-03 0.  1.
         11   -1    0    0    0    0 -0.00000000000E+00 -0.00000000000E+00 -0.45593999997E+02  0.45594000000E+02  0.51100000000E-03 0. -1.
         23    2    1    2    0    0 -0.44408920985E-15  0.00000000000E+00  0.88817841970E-15  0.91188000000E+02  0.91188000000E+02 0.  0.
    9900012    2    3    3    0    0  0.27579781343E+01  0.36371872834E+02  0.50258771764E+01  0.54367095364E+02  0.40000025501E+02 0.  0.
        -12    1    3    3    0    0 -0.27579781343E+01 -0.36371872834E+02 -0.50258771764E+01  0.36820904636E+02  0.00000000000E+00 0.  1.
         11    1    4    4    0    0  0.66166841373E+01  0.23869479173E+02  0.82065686280E+01  0.26093683410E+02  0.51100000000E-03 0. -1.
        -11    1    4    4    0    0 -0.84325340238E+01  0.17830364299E+02  0.15843732900E+01  0.19787363647E+02  0.51100000000E-03 0.  1.
        -12    1    4    4    0    0  0.45738280208E+01 -0.53279706385E+01 -0.47650647416E+01  0.84860483077E+01  0.00000000000E+00 0.  1.
</event>
<event>
 8    1  0.1240174E-006  0.9118800E+02  0.7816164E-02  0.1184000E+00
        -11   -1    0    0    0    0  0.00000000000E+00  0.00000000000E+00  0.45593999997E+02  0.45594000000E+02  0.51100000000E-03 0.  1.
         11   -1    0    0    0    0 -0.00000000000E+00 -0.00000000000E+00 -0.45593999997E+02  0.45594000000E+02  0.51100000000E-03 0. -1.
         23    2    1    2    0    0  0.17763568394E-14  0.00000000000E+00 -0.88817841970E-15  0.91188000000E+02  0.91188000000E+02 0.  0.
    9900012    2    3    3    0    0 -0.10235985082E+02  0.34847217495E+02  0.60561150464E+01  0.54367075416E+02  0.39999980026E+02 0.  0.
        -12    1    3    3    0    0  0.10235985082E+02 -0.34847217495E+02 -0.60561150464E+01  0.36820924584E+02  0.00000000000E+00 0.  1.
         11    1    4    4    0    0 -0.12883637826E+02  0.57615124094E+01 -0.43903194685E+01  0.14780326593E+02  0.51100000000E-03 0. -1.
        -11    1    4    4    0    0 -0.49000698665E+01  0.31120779497E+01  0.11105047168E+02  0.12530673834E+02  0.51100000000E-03 0.  1.
         12    1    4    4    0    0  0.75477226104E+01  0.25973627136E+02 -0.65861265353E+00  0.27056074989E+02  0.00000000000E+00 0. -1.
</event>
<event>
 8    1  0.1240174E-006  0.9118800E+02  0.7816164E-02  0.1184000E+00
        -11   -1    0    0    0    0  0.00000000000E+00  0.00000000000E+00  0.45593999997E+02  0.45594000000E+02  0.51100000000E-03 0.  1.
         11   -1    0    0    0    0 -0.00000000000E+00 -0.00000000000E+00 -0.45593999997E+02  0.45594000000E+02  0.51100000000E-03 0. -1.
         23    2    1    2    0    0  0.00000000000E+00 -0.35527136788E-14  0.17763568394E-14  0.91188000000E+02  0.91188000000E+02 0.  0.
    9900012    2    3    3    0    0  0.24531859289E+02 -0.24908750082E+02 -0.11555165807E+02  0.54367084644E+02  0.40000001063E+02 0.  0.
        -12    1    3    3    0    0 -0.24531859289E+02  0.24908750082E+02  0.11555165807E+02  0.36820915356E+02  0.00000000000E+00 0.  1.
         11    1    4    4    0    0  0.13631314865E+02 -0.29688848709E+02 -0.60733193615E+01  0.33228386824E+02  0.51100000000E-03 0. -1.
        -11    1    4    4    0    0  0.10666779303E+02  0.27195079373E+01  0.37866150607E+01  0.11641063440E+02  0.51100000000E-03 0.  1.
         12    1    4    4    0    0  0.23376512159E+00  0.20605906898E+01 -0.92684615065E+01  0.94976343802E+01  0.00000000000E+00 0. -1.
</event>
<event>
 8    1  0.1240174E-006  0.9118800E+02  0.7816164E-02  0.1184000E+00
        -11   -1    0    0    0    0  0.00000000000E+00  0.00000000000E+00  0.45593999997E+02  0.45594000000E+02  0.51100000000E-03 0.  1.
         11   -1    0    0    0    0 -0.00000000000E+00 -0.00000000000E+00 -0.45593999997E+02  0.45594000000E+02  0.51100000000E-03 0. -1.
         23    2    1    2    0    0  0.00000000000E+00  0.35527136788E-14  0.00000000000E+00  0.91188000000E+02  0.91188000000E+02 0.  0.
    9900012    2    3    3    0    0  0.23269838401E+02 -0.21617359237E+02  0.18627535333E+02  0.54367072905E+02  0.39999974302E+02 0.  0.
         12    1    3    3    0    0 -0.23269838401E+02  0.21617359237E+02 -0.18627535333E+02  0.36820927095E+02  0.00000000000E+00 0. -1.
         11    1    4    4    0    0 -0.69803791747E+00 -0.32004785988E+01 -0.43107486490E+01  0.54141365305E+01  0.51100000000E-03 0. -1.
        -11    1    4    4    0    0  0.11887284782E+02  0.65856595300E+01  0.11147013855E+01  0.13635285489E+02  0.51100000000E-03 0.  1.
        -12    1    4    4    0    0  0.12080591536E+02 -0.25002540168E+02  0.21823582596E+02  0.35317650885E+02  0.00000000000E+00 0.  1.
</event>
<event>
 8    1  0.1240174E-006  0.9118800E+02  0.7816164E-02  0.1184000E+00
        -11   -1    0    0    0    0  0.00000000000E+00  0.00000000000E+00  0.45593999997E+02  0.45594000000E+02  0.51100000000E-03 0. -1.
         11   -1    0    0    0    0 -0.00000000000E+00 -0.00000000000E+00 -0.45593999997E+02  0.45594000000E+02  0.51100000000E-03 0.  1.
         23    2    1    2    0    0  0.00000000000E+00  0.00000000000E+00 -0.17763568394E-14  0.91188000000E+02  0.91188000000E+02 0.  0.
    9900012    2    3    3    0    0 -0.35388223660E+02  0.49357512016E+01  0.88940344747E+01  0.54366920942E+02  0.39999627870E+02 0.  0.
         12    1    3    3    0    0  0.35388223660E+02 -0.49357512016E+01 -0.88940344747E+01  0.36821079058E+02  0.00000000000E+00 0. -1.
         11    1    4    4    0    0 -0.33245810837E+02 -0.58145447028E+01 -0.37531633374E+01  0.33958490891E+02  0.51100000000E-03 0. -1.
        -11    1    4    4    0    0  0.26834767094E+01  0.32898613024E+01 -0.77115993524E+00  0.43149649530E+01  0.51100000000E-03 0.  1.
        -12    1    4    4    0    0 -0.48258895330E+01  0.74604346019E+01  0.13418357747E+02  0.16093465098E+02  0.00000000000E+00 0.  1.
</event>
<event>
 8    1  0.1240174E-006  0.9118800E+02  0.7816164E-02  0.1184000E+00
        -11   -1    0    0    0    0  0.00000000000E+00  0.00000000000E+00  0.45593999997E+02  0.45594000000E+02  0.51100000000E-03 0. -1.
         11   -1    0    0    0    0 -0.00000000000E+00 -0.00000000000E+00 -0.45593999997E+02  0.45594000000E+02  0.51100000000E-03 0.  1.
         23    2    1    2    0    0  0.35527136788E-14 -0.17763568394E-14  0.00000000000E+00  0.91188000000E+02  0.91188000000E+02 0.  0.
    9900012    2    3    3    0    0 -0.30364799847E+02 -0.12135795827E+02  0.16925759997E+02  0.54367082554E+02  0.39999996298E+02 0.  0.
        -12    1    3    3    0    0  0.30364799847E+02  0.12135795827E+02 -0.16925759997E+02  0.36820917446E+02  0.00000000000E+00 0.  1.
         11    1    4    4    0    0 -0.48984062654E+01 -0.59239682161E+01  0.12111729075E+02  0.14345095497E+02  0.51100000000E-03 0. -1.
        -11    1    4    4    0    0  0.65940385137E+01  0.14752557752E+01  0.57501120906E+00  0.67814719401E+01  0.51100000000E-03 0.  1.
        -12    1    4    4    0    0 -0.32060432095E+02 -0.76870833862E+01  0.42390197135E+01  0.33240515117E+02  0.00000000000E+00 0.  1.
</event>
<event>
 8    1  0.1240174E-006  0.9118800E+02  0.7816164E-02  0.1184000E+00
        -11   -1    0    0    0    0  0.00000000000E+00  0.00000000000E+00  0.45593999997E+02  0.45594000000E+02  0.51100000000E-03 0.  1.
         11   -1    0    0    0    0 -0.00000000000E+00 -0.00000000000E+00 -0.45593999997E+02  0.45594000000E+02  0.51100000000E-03 0. -1.
         23    2    1    2    0    0  0.35527136788E-14  0.00000000000E+00 -0.35527136788E-14  0.91188000000E+02  0.91188000000E+02 0.  0.
    9900012    2    3    3    0    0  0.29050988764E+02  0.12293455832E+02 -0.18991883742E+02  0.54367073172E+02  0.39999974909E+02 0.  0.
        -12    1    3    3    0    0 -0.29050988764E+02 -0.12293455832E+02  0.18991883742E+02  0.36820926828E+02  0.00000000000E+00 0.  1.
         11    1    4    4    0    0 -0.44191651623E+01  0.14085001661E+01 -0.10800085843E+02  0.11753924788E+02  0.51100000000E-03 0. -1.
        -11    1    4    4    0    0  0.10584922832E+02 -0.59465306108E+01  0.22480213147E+01  0.12347283821E+02  0.51100000000E-03 0.  1.
        -12    1    4    4    0    0  0.22885231094E+02  0.16831486276E+02 -0.10439819213E+02  0.30265864562E+02  0.00000000000E+00 0.  1.
</event>
<event>
 8    1  0.1240174E-006  0.9118800E+02  0.7816164E-02  0.1184000E+00
        -11   -1    0    0    0    0  0.00000000000E+00  0.00000000000E+00  0.45593999997E+02  0.45594000000E+02  0.51100000000E-03 0.  1.
         11   -1    0    0    0    0 -0.00000000000E+00 -0.00000000000E+00 -0.45593999997E+02  0.45594000000E+02  0.51100000000E-03 0. -1.
         23    2    1    2    0    0  0.00000000000E+00  0.35527136788E-14  0.13322676296E-14  0.91188000000E+02  0.91188000000E+02 0.  0.
    9900012    2    3    3    0    0  0.21170852685E+02 -0.29918137418E+02 -0.35326366977E+01  0.54367089202E+02  0.40000011454E+02 0.  0.
         12    1    3    3    0    0 -0.21170852685E+02  0.29918137418E+02  0.35326366977E+01  0.36820910798E+02  0.00000000000E+00 0. -1.
         11    1    4    4    0    0  0.53084731550E+01 -0.48998884924E+01  0.33622774902E+01  0.79682937105E+01  0.51100000000E-03 0. -1.
        -11    1    4    4    0    0  0.26006289668E+02 -0.24417644625E+02 -0.62546217585E+01  0.36216967915E+02  0.51100000000E-03 0.  1.
         12    1    4    4    0    0 -0.10143910138E+02 -0.60060430018E+00 -0.64029242944E+00  0.10181827577E+02  0.00000000000E+00 0. -1.
</event>
<event>
 8    1  0.1240174E-006  0.9118800E+02  0.7816164E-02  0.1184000E+00
        -11   -1    0    0    0    0  0.00000000000E+00  0.00000000000E+00  0.45593999997E+02  0.45594000000E+02  0.51100000000E-03 0. -1.
         11   -1    0    0    0    0 -0.00000000000E+00 -0.00000000000E+00 -0.45593999997E+02  0.45594000000E+02  0.51100000000E-03 0.  1.
         23    2    1    2    0    0 -0.35527136788E-14  0.00000000000E+00 -0.35527136788E-14  0.91188000000E+02  0.91188000000E+02 0.  0.
    9900012    2    3    3    0    0 -0.23849439751E+02 -0.84290526195E+01 -0.26756961899E+02  0.54367085908E+02  0.40000003945E+02 0.  0.
         12    1    3    3    0    0  0.23849439751E+02  0.84290526195E+01  0.26756961899E+02  0.36820914092E+02  0.00000000000E+00 0. -1.
         11    1    4    4    0    0  0.15347166158E+01  0.91941755440E+00 -0.32076891022E+01  0.36728671862E+01  0.51100000000E-03 0. -1.
        -11    1    4    4    0    0  0.32040013162E+01 -0.11637373407E+02 -0.17700406840E+02  0.21424249971E+02  0.51100000000E-03 0.  1.
         12    1    4    4    0    0 -0.28588157683E+02  0.22889032331E+01 -0.58488659567E+01  0.29269968751E+02  0.00000000000E+00 0. -1.
</event>
<event>
 8    1  0.1240174E-006  0.9118800E+02  0.7816164E-02  0.1184000E+00
        -11   -1    0    0    0    0  0.00000000000E+00  0.00000000000E+00  0.45593999997E+02  0.45594000000E+02  0.51100000000E-03 0. -1.
         11   -1    0    0    0    0 -0.00000000000E+00 -0.00000000000E+00 -0.45593999997E+02  0.45594000000E+02  0.51100000000E-03 0.  1.
         23    2    1    2    0    0  0.00000000000E+00  0.00000000000E+00  0.00000000000E+00  0.91188000000E+02  0.91188000000E+02 0.  0.
    9900012    2    3    3    0    0 -0.90617929894E+01  0.29694796477E+02  0.19796050723E+02  0.54367073148E+02  0.39999974856E+02 0.  0.
        -12    1    3    3    0    0  0.90617929894E+01 -0.29694796477E+02 -0.19796050723E+02  0.36820926852E+02  0.00000000000E+00 0.  1.
         11    1    4    4    0    0  0.53123343347E+01  0.77439695348E+01  0.14255951878E+02  0.17071090312E+02  0.51100000000E-03 0. -1.
        -11    1    4    4    0    0 -0.10674883096E+02  0.11112849229E+02  0.15691460021E+02  0.21992509292E+02  0.51100000000E-03 0.  1.
        -12    1    4    4    0    0 -0.36992442283E+01  0.10837977713E+02 -0.10151361176E+02  0.15303473544E+02  0.00000000000E+00 0.  1.
</event>
<event>
 8    1  0.1240174E-006  0.9118800E+02  0.7816164E-02  0.1184000E+00
        -11   -1    0    0    0    0  0.00000000000E+00  0.00000000000E+00  0.45593999997E+02  0.45594000000E+02  0.51100000000E-03 0.  1.
         11   -1    0    0    0    0 -0.00000000000E+00 -0.00000000000E+00 -0.45593999997E+02  0.45594000000E+02  0.51100000000E-03 0. -1.
         23    2    1    2    0    0  0.00000000000E+00  0.22204460493E-14  0.00000000000E+00  0.91188000000E+02  0.91188000000E+02 0.  0.
    9900012    2    3    3    0    0  0.32503804143E+02  0.30338532144E+01  0.17031161935E+02  0.54367326107E+02  0.40000551521E+02 0.  0.
        -12    1    3    3    0    0 -0.32503804143E+02 -0.30338532144E+01 -0.17031161935E+02  0.36820673893E+02  0.00000000000E+00 0.  1.
         11    1    4    4    0    0  0.13770167723E+02  0.14322481635E+02 -0.75758149634E+01  0.21263677291E+02  0.51100000000E-03 0. -1.
        -11    1    4    4    0    0  0.24958789992E+01 -0.13554063048E+01  0.51672666688E+01  0.58963703511E+01  0.51100000000E-03 0.  1.
         12    1    4    4    0    0  0.16237757420E+02 -0.99332221153E+01  0.19439710230E+02  0.27207278465E+02  0.00000000000E+00 0. -1.
</event>
<event>
 8    1  0.1240174E-006  0.9118800E+02  0.7816164E-02  0.1184000E+00
        -11   -1    0    0    0    0  0.00000000000E+00  0.00000000000E+00  0.45593999997E+02  0.45594000000E+02  0.51100000000E-03 0. -1.
         11   -1    0    0    0    0 -0.00000000000E+00 -0.00000000000E+00 -0.45593999997E+02  0.45594000000E+02  0.51100000000E-03 0.  1.
         23    2    1    2    0    0  0.00000000000E+00  0.17763568394E-14 -0.13322676296E-14  0.91188000000E+02  0.91188000000E+02 0.  0.
    9900012    2    3    3    0    0 -0.35763101775E+02 -0.82173000712E+01  0.30421290890E+01  0.54367108940E+02  0.40000056451E+02 0.  0.
        -12    1    3    3    0    0  0.35763101775E+02  0.82173000712E+01 -0.30421290890E+01  0.36820891060E+02  0.00000000000E+00 0.  1.
         11    1    4    4    0    0  0.21804813663E+01  0.24223570432E+00  0.62410815137E+01  0.66154573422E+01  0.51100000000E-03 0. -1.
        -11    1    4    4    0    0 -0.14425039259E+02 -0.11998349176E+02 -0.12134964105E+02  0.22345010509E+02  0.51100000000E-03 0.  1.
         12    1    4    4    0    0 -0.23518543883E+02  0.35388134009E+01  0.89360116803E+01  0.25406641089E+02  0.00000000000E+00 0. -1.
</event>
<event>
 8    1  0.1240174E-006  0.9118800E+02  0.7816164E-02  0.1184000E+00
        -11   -1    0    0    0    0  0.00000000000E+00  0.00000000000E+00  0.45593999997E+02  0.45594000000E+02  0.51100000000E-03 0.  1.
         11   -1    0    0    0    0 -0.00000000000E+00 -0.00000000000E+00 -0.45593999997E+02  0.45594000000E+02  0.51100000000E-03 0. -1.
         23    2    1    2    0    0 -0.17763568394E-14  0.71054273576E-14  0.00000000000E+00  0.91188000000E+02  0.91188000000E+02 0.  0.
    9900012    2    3    3    0    0  0.51172114791E+01 -0.32719077989E+02 -0.16095188151E+02  0.54367095620E+02  0.40000026085E+02 0.  0.
        -12    1    3    3    0    0 -0.51172114791E+01  0.32719077989E+02  0.16095188151E+02  0.36820904380E+02  0.00000000000E+00 0.  1.
         11    1    4    4    0    0 -0.58397798695E+01 -0.87799418060E+00 -0.53073409598E+01  0.79398848247E+01  0.51100000000E-03 0.  1.
        -11    1    4    4    0    0 -0.45761253439E+01 -0.99923667193E+01  0.80839304064E+01  0.13643249133E+02  0.51100000000E-03 0. -1.
         12    1    4    4    0    0  0.15533116693E+02 -0.21848717089E+02 -0.18871777597E+02  0.32783961663E+02  0.00000000000E+00 0. -1.
</event>
<event>
 8    1  0.1240174E-006  0.9118800E+02  0.7816164E-02  0.1184000E+00
        -11   -1    0    0    0    0  0.00000000000E+00  0.00000000000E+00  0.45593999997E+02  0.45594000000E+02  0.51100000000E-03 0.  1.
         11   -1    0    0    0    0 -0.00000000000E+00 -0.00000000000E+00 -0.45593999997E+02  0.45594000000E+02  0.51100000000E-03 0. -1.
         23    2    1    2    0    0 -0.17763568394E-14  0.24424906542E-14  0.00000000000E+00  0.91188000000E+02  0.91188000000E+02 0.  0.
    9900012    2    3    3    0    0  0.91177977318E+01 -0.73070231154E+00 -0.35666654187E+02  0.54367104000E+02  0.40000045188E+02 0.  0.
        -12    1    3    3    0    0 -0.91177977318E+01  0.73070231154E+00  0.35666654187E+02  0.36820896000E+02  0.00000000000E+00 0.  1.
         11    1    4    4    0    0 -0.83163580245E+01 -0.13753236759E+02 -0.13609003501E+02  0.21059874375E+02  0.51100000000E-03 0. -1.
        -11    1    4    4    0    0  0.14899716438E+02  0.83762178917E+01 -0.92189187163E+01  0.19420376893E+02  0.51100000000E-03 0.  1.
         12    1    4    4    0    0  0.25344393185E+01  0.46463165558E+01 -0.12838731970E+02  0.13886852731E+02  0.00000000000E+00 0. -1.
</event>
<event>
 8    1  0.1240174E-006  0.9118800E+02  0.7816164E-02  0.1184000E+00
        -11   -1    0    0    0    0  0.00000000000E+00  0.00000000000E+00  0.45593999997E+02  0.45594000000E+02  0.51100000000E-03 0.  1.
         11   -1    0    0    0    0 -0.00000000000E+00 -0.00000000000E+00 -0.45593999997E+02  0.45594000000E+02  0.51100000000E-03 0. -1.
         23    2    1    2    0    0  0.00000000000E+00  0.00000000000E+00  0.00000000000E+00  0.91188000000E+02  0.91188000000E+02 0.  0.
    9900012    2    3    3    0    0  0.49841988326E+01 -0.49392527300E+01  0.36146086682E+02  0.54367108675E+02  0.40000055847E+02 0.  0.
         12    1    3    3    0    0 -0.49841988326E+01  0.49392527300E+01 -0.36146086682E+02  0.36820891325E+02  0.00000000000E+00 0. -1.
         11    1    4    4    0    0  0.33684744530E+01  0.43822682079E+01  0.11146931355E+02  0.12442064687E+02  0.51100000000E-03 0. -1.
        -11    1    4    4    0    0 -0.13345571477E+02  0.16797396872E+01  0.17069414950E+02  0.21732250930E+02  0.51100000000E-03 0.  1.
        -12    1    4    4    0    0  0.14961295857E+02 -0.11001260625E+02  0.79297403768E+01  0.20192793058E+02  0.00000000000E+00 0.  1.
</event>
<event>
 8    1  0.1240174E-006  0.9118800E+02  0.7816164E-02  0.1184000E+00
        -11   -1    0    0    0    0  0.00000000000E+00  0.00000000000E+00  0.45593999997E+02  0.45594000000E+02  0.51100000000E-03 0.  1.
         11   -1    0    0    0    0 -0.00000000000E+00 -0.00000000000E+00 -0.45593999997E+02  0.45594000000E+02  0.51100000000E-03 0. -1.
         23    2    1    2    0    0 -0.13322676296E-14 -0.17763568394E-14  0.71054273576E-14  0.91188000000E+02  0.91188000000E+02 0.  0.
    9900012    2    3    3    0    0 -0.19678331148E+01  0.83641698248E+01  0.35804290335E+02  0.54367096828E+02  0.40000028839E+02 0.  0.
         12    1    3    3    0    0  0.19678331148E+01 -0.83641698248E+01 -0.35804290335E+02  0.36820903172E+02  0.00000000000E+00 0. -1.
         11    1    4    4    0    0 -0.96252547420E+01 -0.56327238534E+01  0.59871087862E+01  0.12657747775E+02  0.51100000000E-03 0. -1.
        -11    1    4    4    0    0 -0.32266875917E+01 -0.50704737509E+01  0.12050365554E+02  0.13465976650E+02  0.51100000000E-03 0.  1.
        -12    1    4    4    0    0  0.10884109219E+02  0.19067367429E+02  0.17766815994E+02  0.28243372404E+02  0.00000000000E+00 0.  1.
</event>
<event>
 8    1  0.1240174E-006  0.9118800E+02  0.7816164E-02  0.1184000E+00
        -11   -1    0    0    0    0  0.00000000000E+00  0.00000000000E+00  0.45593999997E+02  0.45594000000E+02  0.51100000000E-03 0. -1.
         11   -1    0    0    0    0 -0.00000000000E+00 -0.00000000000E+00 -0.45593999997E+02  0.45594000000E+02  0.51100000000E-03 0.  1.
         23    2    1    2    0    0  0.00000000000E+00  0.00000000000E+00  0.00000000000E+00  0.91188000000E+02  0.91188000000E+02 0.  0.
    9900012    2    3    3    0    0 -0.23249066656E+02  0.20169163570E+02 -0.20210534643E+02  0.54367082439E+02  0.39999996036E+02 0.  0.
         12    1    3    3    0    0  0.23249066656E+02 -0.20169163570E+02  0.20210534643E+02  0.36820917561E+02  0.00000000000E+00 0. -1.
         11    1    4    4    0    0 -0.32925742442E+01 -0.60528096092E+01  0.57593719005E+01  0.89804183794E+01  0.51100000000E-03 0. -1.
        -11    1    4    4    0    0 -0.15087578298E+01  0.64661868974E+01  0.15438873582E+01  0.68170016589E+01  0.51100000000E-03 0.  1.
         12    1    4    4    0    0 -0.18447734582E+02  0.19755786282E+02 -0.27513793902E+02  0.38569662401E+02  0.00000000000E+00 0. -1.
</event>
<event>
 8    1  0.1240174E-006  0.9118800E+02  0.7816164E-02  0.1184000E+00
        -11   -1    0    0    0    0  0.00000000000E+00  0.00000000000E+00  0.45593999997E+02  0.45594000000E+02  0.51100000000E-03 0. -1.
         11   -1    0    0    0    0 -0.00000000000E+00 -0.00000000000E+00 -0.45593999997E+02  0.45594000000E+02  0.51100000000E-03 0.  1.
         23    2    1    2    0    0  0.35527136788E-14  0.88817841970E-15  0.71054273576E-14  0.91188000000E+02  0.91188000000E+02 0.  0.
    9900012    2    3    3    0    0 -0.18459763374E+02  0.41019216667E+01 -0.31594129723E+02  0.54367113833E+02  0.40000067605E+02 0.  0.
         12    1    3    3    0    0  0.18459763374E+02 -0.41019216667E+01  0.31594129723E+02  0.36820886167E+02  0.00000000000E+00 0. -1.
         11    1    4    4    0    0 -0.79487225862E+01  0.15036878654E+02 -0.68353455271E+00  0.17022253968E+02  0.51100000000E-03 0. -1.
        -11    1    4    4    0    0 -0.54482361994E+01 -0.72072239649E+01 -0.29565914013E+02  0.30915540213E+02  0.51100000000E-03 0.  1.
         12    1    4    4    0    0 -0.50628045878E+01 -0.37277330219E+01 -0.13446811578E+01  0.64293196525E+01  0.00000000000E+00 0. -1.
</event>
<event>
 8    1  0.1240174E-006  0.9118800E+02  0.7816164E-02  0.1184000E+00
        -11   -1    0    0    0    0  0.00000000000E+00  0.00000000000E+00  0.45593999997E+02  0.45594000000E+02  0.51100000000E-03 0.  1.
         11   -1    0    0    0    0 -0.00000000000E+00 -0.00000000000E+00 -0.45593999997E+02  0.45594000000E+02  0.51100000000E-03 0. -1.
         23    2    1    2    0    0  0.00000000000E+00  0.88817841970E-15  0.17763568394E-14  0.91188000000E+02  0.91188000000E+02 0.  0.
    9900012    2    3    3    0    0  0.34099712257E+02  0.16149238343E+01  0.13797863805E+02  0.54367090172E+02  0.40000013664E+02 0.  0.
         12    1    3    3    0    0 -0.34099712257E+02 -0.16149238343E+01 -0.13797863805E+02  0.36820909828E+02  0.00000000000E+00 0. -1.
         11    1    4    4    0    0  0.22630341153E+01 -0.13232724168E+02  0.80809955267E+01  0.15669358675E+02  0.51100000000E-03 0. -1.
        -11    1    4    4    0    0  0.87449526154E+01  0.89109794059E+01  0.78691154203E+01  0.14758141075E+02  0.51100000000E-03 0.  1.
         12    1    4    4    0    0  0.23091725527E+02  0.59366685963E+01 -0.21522471425E+01  0.23939590422E+02  0.00000000000E+00 0. -1.
</event>
<event>
 8    1  0.1240174E-006  0.9118800E+02  0.7816164E-02  0.1184000E+00
        -11   -1    0    0    0    0  0.00000000000E+00  0.00000000000E+00  0.45593999997E+02  0.45594000000E+02  0.51100000000E-03 0. -1.
         11   -1    0    0    0    0 -0.00000000000E+00 -0.00000000000E+00 -0.45593999997E+02  0.45594000000E+02  0.51100000000E-03 0.  1.
         23    2    1    2    0    0  0.00000000000E+00  0.00000000000E+00 -0.35527136788E-14  0.91188000000E+02  0.91188000000E+02 0.  0.
    9900012    2    3    3    0    0 -0.27730923863E+02 -0.24091947404E+02  0.25209729726E+01  0.54367063392E+02  0.39999952614E+02 0.  0.
        -12    1    3    3    0    0  0.27730923863E+02  0.24091947404E+02 -0.25209729726E+01  0.36820936608E+02  0.00000000000E+00 0.  1.
         11    1    4    4    0    0 -0.24596661440E+02 -0.13273982013E+02  0.58816329568E+01  0.28562002012E+02  0.51100000000E-03 0. -1.
        -11    1    4    4    0    0 -0.27687950064E+01 -0.10900432685E+02 -0.12410012138E+02  0.16747956891E+02  0.51100000000E-03 0.  1.
        -12    1    4    4    0    0 -0.36546741691E+00  0.82467294083E-01  0.90493521543E+01  0.90571044876E+01  0.00000000000E+00 0.  1.
</event>
<event>
 8    1  0.1240174E-006  0.9118800E+02  0.7816164E-02  0.1184000E+00
        -11   -1    0    0    0    0  0.00000000000E+00  0.00000000000E+00  0.45593999997E+02  0.45594000000E+02  0.51100000000E-03 0.  1.
         11   -1    0    0    0    0 -0.00000000000E+00 -0.00000000000E+00 -0.45593999997E+02  0.45594000000E+02  0.51100000000E-03 0. -1.
         23    2    1    2    0    0 -0.35527136788E-14  0.00000000000E+00 -0.17763568394E-14  0.91188000000E+02  0.91188000000E+02 0.  0.
    9900012    2    3    3    0    0 -0.19994751051E+02  0.29626926253E+02  0.88450621654E+01  0.54367082664E+02  0.39999996549E+02 0.  0.
        -12    1    3    3    0    0  0.19994751051E+02 -0.29626926253E+02 -0.88450621654E+01  0.36820917336E+02  0.00000000000E+00 0.  1.
         11    1    4    4    0    0 -0.35760119139E+01  0.15486312909E+02 -0.24741342290E+01  0.16085244455E+02  0.51100000000E-03 0. -1.
        -11    1    4    4    0    0  0.18986800791E+01 -0.59359319030E+01  0.90794756460E+01  0.11012590607E+02  0.51100000000E-03 0.  1.
        -12    1    4    4    0    0 -0.18317419216E+02  0.20076545246E+02  0.22397207483E+01  0.27269247602E+02  0.00000000000E+00 0.  1.
</event>
<event>
 8    1  0.1240174E-006  0.9118800E+02  0.7816164E-02  0.1184000E+00
        -11   -1    0    0    0    0  0.00000000000E+00  0.00000000000E+00  0.45593999997E+02  0.45594000000E+02  0.51100000000E-03 0. -1.
         11   -1    0    0    0    0 -0.00000000000E+00 -0.00000000000E+00 -0.45593999997E+02  0.45594000000E+02  0.51100000000E-03 0.  1.
         23    2    1    2    0    0  0.00000000000E+00  0.00000000000E+00  0.88817841970E-15  0.91188000000E+02  0.91188000000E+02 0.  0.
    9900012    2    3    3    0    0 -0.22511282996E+02 -0.28577082273E+02  0.56896563769E+01  0.54367086336E+02  0.40000004920E+02 0.  0.
        -12    1    3    3    0    0  0.22511282996E+02  0.28577082273E+02 -0.56896563769E+01  0.36820913664E+02  0.00000000000E+00 0.  1.
         11    1    4    4    0    0 -0.10035019704E+02 -0.69665982848E+00  0.61255975395E+01  0.11777516753E+02  0.51100000000E-03 0.  1.
        -11    1    4    4    0    0 -0.15197523857E+02 -0.18720797391E+02 -0.12531698127E+02  0.27174923083E+02  0.51100000000E-03 0. -1.
         12    1    4    4    0    0  0.27212605648E+01 -0.91596250534E+01  0.12095756965E+02  0.15414646500E+02  0.00000000000E+00 0. -1.
</event>
<event>
 8    1  0.1240174E-006  0.9118800E+02  0.7816164E-02  0.1184000E+00
        -11   -1    0    0    0    0  0.00000000000E+00  0.00000000000E+00  0.45593999997E+02  0.45594000000E+02  0.51100000000E-03 0.  1.
         11   -1    0    0    0    0 -0.00000000000E+00 -0.00000000000E+00 -0.45593999997E+02  0.45594000000E+02  0.51100000000E-03 0. -1.
         23    2    1    2    0    0 -0.17763568394E-14  0.00000000000E+00  0.35527136788E-14  0.91188000000E+02  0.91188000000E+02 0.  0.
    9900012    2    3    3    0    0 -0.12229312661E+02 -0.22058645458E+02  0.26826118782E+02  0.54367074203E+02  0.39999977261E+02 0.  0.
         12    1    3    3    0    0  0.12229312661E+02  0.22058645458E+02 -0.26826118782E+02  0.36820925797E+02  0.00000000000E+00 0. -1.
         11    1    4    4    0    0 -0.83541617047E+01 -0.22615046519E+01  0.17571179771E+01  0.88314146616E+01  0.51100000000E-03 0. -1.
        -11    1    4    4    0    0 -0.16671156805E+02 -0.17400320482E+02  0.20806031917E+02  0.31836921750E+02  0.51100000000E-03 0.  1.
         12    1    4    4    0    0  0.12796005849E+02 -0.23968203244E+01  0.42629688878E+01  0.13698737792E+02  0.00000000000E+00 0. -1.
</event>
<event>
 8    1  0.1240174E-006  0.9118800E+02  0.7816164E-02  0.1184000E+00
        -11   -1    0    0    0    0  0.00000000000E+00  0.00000000000E+00  0.45593999997E+02  0.45594000000E+02  0.51100000000E-03 0.  1.
         11   -1    0    0    0    0 -0.00000000000E+00 -0.00000000000E+00 -0.45593999997E+02  0.45594000000E+02  0.51100000000E-03 0. -1.
         23    2    1    2    0    0 -0.88817841970E-15 -0.17763568394E-14  0.00000000000E+00  0.91188000000E+02  0.91188000000E+02 0.  0.
    9900012    2    3    3    0    0  0.40957811145E+01 -0.11406876157E+02 -0.34769071312E+02  0.54367074340E+02  0.39999977572E+02 0.  0.
        -12    1    3    3    0    0 -0.40957811145E+01  0.11406876157E+02  0.34769071312E+02  0.36820925660E+02  0.00000000000E+00 0.  1.
         11    1    4    4    0    0  0.85830791532E+01 -0.24700631936E+02 -0.21214415984E+02  0.33672569126E+02  0.51100000000E-03 0. -1.
        -11    1    4    4    0    0  0.14807372836E+01  0.61573535330E+01 -0.53409504428E+01  0.82844032571E+01  0.51100000000E-03 0.  1.
         12    1    4    4    0    0 -0.59680353223E+01  0.71364022460E+01 -0.82137048853E+01  0.12410101956E+02  0.00000000000E+00 0. -1.
</event>
<event>
 8    1  0.1240174E-006  0.9118800E+02  0.7816164E-02  0.1184000E+00
        -11   -1    0    0    0    0  0.00000000000E+00  0.00000000000E+00  0.45593999997E+02  0.45594000000E+02  0.51100000000E-03 0.  1.
         11   -1    0    0    0    0 -0.00000000000E+00 -0.00000000000E+00 -0.45593999997E+02  0.45594000000E+02  0.51100000000E-03 0. -1.
         23    2    1    2    0    0 -0.35527136788E-14  0.17763568394E-14  0.00000000000E+00  0.91188000000E+02  0.91188000000E+02 0.  0.
    9900012    2    3    3    0    0  0.24731873943E+02  0.57393921201E+01 -0.26667748130E+02  0.54367149915E+02  0.40000149861E+02 0.  0.
        -12    1    3    3    0    0 -0.24731873943E+02 -0.57393921201E+01  0.26667748130E+02  0.36820850085E+02  0.00000000000E+00 0.  1.
         11    1    4    4    0    0  0.22077911133E+02 -0.12206321007E+02 -0.20549301100E+02  0.32537704414E+02  0.51100000000E-03 0. -1.
        -11    1    4    4    0    0  0.37319165390E+01  0.86490864886E+01  0.17757370362E+01  0.95857780292E+01  0.51100000000E-03 0.  1.
        -12    1    4    4    0    0 -0.10779537289E+01  0.92966266389E+01 -0.78941840657E+01  0.12243667472E+02  0.00000000000E+00 0.  1.
</event>
<event>
 8    1  0.1240174E-006  0.9118800E+02  0.7816164E-02  0.1184000E+00
        -11   -1    0    0    0    0  0.00000000000E+00  0.00000000000E+00  0.45593999997E+02  0.45594000000E+02  0.51100000000E-03 0. -1.
         11   -1    0    0    0    0 -0.00000000000E+00 -0.00000000000E+00 -0.45593999997E+02  0.45594000000E+02  0.51100000000E-03 0.  1.
         23    2    1    2    0    0  0.88817841970E-15  0.00000000000E+00  0.00000000000E+00  0.91188000000E+02  0.91188000000E+02 0.  0.
    9900012    2    3    3    0    0  0.68795472621E+01 -0.34831751904E+02 -0.97570895832E+01  0.54367083276E+02  0.39999997945E+02 0.  0.
        -12    1    3    3    0    0 -0.68795472621E+01  0.34831751904E+02  0.97570895832E+01  0.36820916724E+02  0.00000000000E+00 0.  1.
         11    1    4    4    0    0 -0.31966361080E+01  0.23867361797E+01 -0.45617726441E+01  0.60600958669E+01  0.51100000000E-03 0. -1.
        -11    1    4    4    0    0  0.91955461604E+01 -0.11053299383E+01  0.53236350430E+01  0.10682739059E+02  0.51100000000E-03 0.  1.
         12    1    4    4    0    0  0.88063720964E+00 -0.36113158146E+02 -0.10518951982E+02  0.37624248351E+02  0.00000000000E+00 0. -1.
</event>
<event>
 8    1  0.1240174E-006  0.9118800E+02  0.7816164E-02  0.1184000E+00
        -11   -1    0    0    0    0  0.00000000000E+00  0.00000000000E+00  0.45593999997E+02  0.45594000000E+02  0.51100000000E-03 0. -1.
         11   -1    0    0    0    0 -0.00000000000E+00 -0.00000000000E+00 -0.45593999997E+02  0.45594000000E+02  0.51100000000E-03 0.  1.
         23    2    1    2    0    0  0.00000000000E+00  0.00000000000E+00  0.00000000000E+00  0.91188000000E+02  0.91188000000E+02 0.  0.
    9900012    2    3    3    0    0 -0.17530865891E+02  0.21433521091E+02 -0.24270417085E+02  0.54367078899E+02  0.39999987967E+02 0.  0.
         12    1    3    3    0    0  0.17530865891E+02 -0.21433521091E+02  0.24270417085E+02  0.36820921101E+02  0.00000000000E+00 0. -1.
         11    1    4    4    0    0  0.11108536177E+01 -0.86942295752E+01 -0.11465365875E+01  0.88395797453E+01  0.51100000000E-03 0.  1.
        -11    1    4    4    0    0 -0.54069300974E+01  0.22124807192E+02 -0.87057933036E+01  0.24383043773E+02  0.51100000000E-03 0. -1.
        -12    1    4    4    0    0 -0.13234789412E+02  0.80029434743E+01 -0.14418087194E+02  0.21144455381E+02  0.00000000000E+00 0.  1.
</event>
<event>
 8    1  0.1240174E-006  0.9118800E+02  0.7816164E-02  0.1184000E+00
        -11   -1    0    0    0    0  0.00000000000E+00  0.00000000000E+00  0.45593999997E+02  0.45594000000E+02  0.51100000000E-03 0. -1.
         11   -1    0    0    0    0 -0.00000000000E+00 -0.00000000000E+00 -0.45593999997E+02  0.45594000000E+02  0.51100000000E-03 0.  1.
         23    2    1    2    0    0  0.00000000000E+00  0.00000000000E+00  0.00000000000E+00  0.91188000000E+02  0.91188000000E+02 0.  0.
    9900012    2    3    3    0    0  0.71306438980E+01  0.36100647266E+02  0.12945172113E+01  0.54367101175E+02  0.40000038750E+02 0.  0.
         12    1    3    3    0    0 -0.71306438980E+01 -0.36100647266E+02 -0.12945172113E+01  0.36820898825E+02  0.00000000000E+00 0. -1.
         11    1    4    4    0    0 -0.18968640913E+01  0.15966318599E+02  0.94926902916E-01  0.16078881626E+02  0.51100000000E-03 0. -1.
        -11    1    4    4    0    0  0.13706275801E+02 -0.73837123294E-01  0.86961601756E+01  0.16232395089E+02  0.51100000000E-03 0.  1.
        -12    1    4    4    0    0 -0.46787678115E+01  0.20208165791E+02 -0.74965698672E+01  0.22055824461E+02  0.00000000000E+00 0.  1.
</event>
<event>
 8    1  0.1240174E-006  0.9118800E+02  0.7816164E-02  0.1184000E+00
        -11   -1    0    0    0    0  0.00000000000E+00  0.00000000000E+00  0.45593999997E+02  0.45594000000E+02  0.51100000000E-03 0.  1.
         11   -1    0    0    0    0 -0.00000000000E+00 -0.00000000000E+00 -0.45593999997E+02  0.45594000000E+02  0.51100000000E-03 0. -1.
         23    2    1    2    0    0  0.35527136788E-14  0.00000000000E+00  0.00000000000E+00  0.91188000000E+02  0.91188000000E+02 0.  0.
    9900012    2    3    3    0    0  0.24651948946E+02 -0.13330476333E+02  0.23882252485E+02  0.54367052567E+02  0.39999927938E+02 0.  0.
         12    1    3    3    0    0 -0.24651948946E+02  0.13330476333E+02 -0.23882252485E+02  0.36820947433E+02  0.00000000000E+00 0. -1.
         11    1    4    4    0    0  0.12097179007E+02  0.71036813346E+01 -0.50434926578E+01  0.14907744527E+02  0.51100000000E-03 0. -1.
        -11    1    4    4    0    0  0.79825381906E+01 -0.19107453870E+02  0.17611391761E+02  0.27184128262E+02  0.51100000000E-03 0.  1.
         12    1    4    4    0    0  0.45722317476E+01 -0.13267037972E+01  0.11314353382E+02  0.12275179778E+02  0.00000000000E+00 0. -1.
</event>
<event>
 8    1  0.1240174E-006  0.9118800E+02  0.7816164E-02  0.1184000E+00
        -11   -1    0    0    0    0  0.00000000000E+00  0.00000000000E+00  0.45593999997E+02  0.45594000000E+02  0.51100000000E-03 0. -1.
         11   -1    0    0    0    0 -0.00000000000E+00 -0.00000000000E+00 -0.45593999997E+02  0.45594000000E+02  0.51100000000E-03 0.  1.
         23    2    1    2    0    0  0.35527136788E-14 -0.35527136788E-14 -0.88817841970E-15  0.91188000000E+02  0.91188000000E+02 0.  0.
    9900012    2    3    3    0    0 -0.19280308712E+02  0.31185600376E+02  0.33924888926E+01  0.54367069054E+02  0.39999965522E+02 0.  0.
         12    1    3    3    0    0  0.19280308712E+02 -0.31185600376E+02 -0.33924888926E+01  0.36820930946E+02  0.00000000000E+00 0. -1.
         11    1    4    4    0    0 -0.14204707829E+02 -0.15609150822E+01  0.55483351264E+01  0.15329520650E+02  0.51100000000E-03 0. -1.
        -11    1    4    4    0    0 -0.92108453263E+01  0.72389902044E+01 -0.55711223826E+01  0.12972280280E+02  0.51100000000E-03 0.  1.
         12    1    4    4    0    0  0.41352444439E+01  0.25507525254E+02  0.34152761489E+01  0.26065268124E+02  0.00000000000E+00 0. -1.
</event>
<event>
 8    1  0.1240174E-006  0.9118800E+02  0.7816164E-02  0.1184000E+00
        -11   -1    0    0    0    0  0.00000000000E+00  0.00000000000E+00  0.45593999997E+02  0.45594000000E+02  0.51100000000E-03 0.  1.
         11   -1    0    0    0    0 -0.00000000000E+00 -0.00000000000E+00 -0.45593999997E+02  0.45594000000E+02  0.51100000000E-03 0. -1.
         23    2    1    2    0    0 -0.13322676296E-14  0.00000000000E+00  0.00000000000E+00  0.91188000000E+02  0.91188000000E+02 0.  0.
    9900012    2    3    3    0    0 -0.11544785490E+01 -0.25210155713E+02  0.26812213533E+02  0.54367087922E+02  0.40000008535E+02 0.  0.
         12    1    3    3    0    0  0.11544785490E+01  0.25210155713E+02 -0.26812213533E+02  0.36820912078E+02  0.00000000000E+00 0. -1.
         11    1    4    4    0    0 -0.67059979371E+00 -0.23188000616E+02  0.16621697814E+02  0.28537938172E+02  0.51100000000E-03 0.  1.
        -11    1    4    4    0    0 -0.81652985346E+01 -0.80229394156E+01 -0.37584026414E+00  0.11453423645E+02  0.51100000000E-03 0. -1.
        -12    1    4    4    0    0  0.76814197793E+01  0.60007843190E+01  0.10566355983E+02  0.14375726104E+02  0.00000000000E+00 0.  1.
</event>
<event>
 8    1  0.1240174E-006  0.9118800E+02  0.7816164E-02  0.1184000E+00
        -11   -1    0    0    0    0  0.00000000000E+00  0.00000000000E+00  0.45593999997E+02  0.45594000000E+02  0.51100000000E-03 0. -1.
         11   -1    0    0    0    0 -0.00000000000E+00 -0.00000000000E+00 -0.45593999997E+02  0.45594000000E+02  0.51100000000E-03 0.  1.
         23    2    1    2    0    0 -0.35527136788E-14 -0.17763568394E-14  0.71054273576E-14  0.91188000000E+02  0.91188000000E+02 0.  0.
    9900012    2    3    3    0    0  0.29109195967E+02 -0.88504888697E+01 -0.20738927890E+02  0.54367087829E+02  0.40000008324E+02 0.  0.
         12    1    3    3    0    0 -0.29109195967E+02  0.88504888697E+01  0.20738927890E+02  0.36820912171E+02  0.00000000000E+00 0. -1.
         11    1    4    4    0    0  0.78042578643E+01  0.41951607911E+01 -0.17455051373E+02  0.19575102390E+02  0.51100000000E-03 0. -1.
        -11    1    4    4    0    0  0.18926656572E+02 -0.17838820574E+02  0.34004032810E+01  0.26229841616E+02  0.51100000000E-03 0.  1.
        -12    1    4    4    0    0  0.23782815305E+01  0.47931709129E+01 -0.66842797973E+01  0.85621438231E+01  0.00000000000E+00 0.  1.
</event>
<event>
 8    1  0.1240174E-006  0.9118800E+02  0.7816164E-02  0.1184000E+00
        -11   -1    0    0    0    0  0.00000000000E+00  0.00000000000E+00  0.45593999997E+02  0.45594000000E+02  0.51100000000E-03 0.  1.
         11   -1    0    0    0    0 -0.00000000000E+00 -0.00000000000E+00 -0.45593999997E+02  0.45594000000E+02  0.51100000000E-03 0. -1.
         23    2    1    2    0    0  0.00000000000E+00  0.35527136788E-14  0.00000000000E+00  0.91188000000E+02  0.91188000000E+02 0.  0.
    9900012    2    3    3    0    0 -0.13057387443E+02 -0.29797715907E+02  0.17244730306E+02  0.54367082529E+02  0.39999996240E+02 0.  0.
        -12    1    3    3    0    0  0.13057387443E+02  0.29797715907E+02 -0.17244730306E+02  0.36820917471E+02  0.00000000000E+00 0.  1.
         11    1    4    4    0    0  0.58354405153E+01 -0.20087775852E+02 -0.61064480635E+01  0.21791278368E+02  0.51100000000E-03 0.  1.
        -11    1    4    4    0    0 -0.12431016926E+02 -0.21402728688E+01  0.14872098031E+02  0.19501032021E+02  0.51100000000E-03 0. -1.
        -12    1    4    4    0    0 -0.64618110328E+01 -0.75696671858E+01  0.84790803387E+01  0.13074772140E+02  0.00000000000E+00 0.  1.
</event>
<event>
 8    1  0.1240174E-006  0.9118800E+02  0.7816164E-02  0.1184000E+00
        -11   -1    0    0    0    0  0.00000000000E+00  0.00000000000E+00  0.45593999997E+02  0.45594000000E+02  0.51100000000E-03 0. -1.
         11   -1    0    0    0    0 -0.00000000000E+00 -0.00000000000E+00 -0.45593999997E+02  0.45594000000E+02  0.51100000000E-03 0.  1.
         23    2    1    2    0    0  0.00000000000E+00  0.00000000000E+00 -0.17763568394E-14  0.91188000000E+02  0.91188000000E+02 0.  0.
    9900012    2    3    3    0    0 -0.33072945253E+02  0.10378708041E+02  0.12419515075E+02  0.54367059721E+02  0.39999944246E+02 0.  0.
        -12    1    3    3    0    0  0.33072945253E+02 -0.10378708041E+02 -0.12419515075E+02  0.36820940279E+02  0.00000000000E+00 0.  1.
         11    1    4    4    0    0 -0.17530393696E+02  0.17474279604E+02  0.12002721386E+02  0.27508734463E+02  0.51100000000E-03 0. -1.
        -11    1    4    4    0    0 -0.95667707848E+01 -0.75308649544E+01  0.98651832955E+01  0.15670318182E+02  0.51100000000E-03 0.  1.
         12    1    4    4    0    0 -0.59757807725E+01  0.43529339074E+00 -0.94483896065E+01  0.11188007076E+02  0.00000000000E+00 0. -1.
</event>
<event>
 8    1  0.1240174E-006  0.9118800E+02  0.7816164E-02  0.1184000E+00
        -11   -1    0    0    0    0  0.00000000000E+00  0.00000000000E+00  0.45593999997E+02  0.45594000000E+02  0.51100000000E-03 0. -1.
         11   -1    0    0    0    0 -0.00000000000E+00 -0.00000000000E+00 -0.45593999997E+02  0.45594000000E+02  0.51100000000E-03 0.  1.
         23    2    1    2    0    0 -0.44408920985E-15 -0.71054273576E-14  0.00000000000E+00  0.91188000000E+02  0.91188000000E+02 0.  0.
    9900012    2    3    3    0    0 -0.28327397762E+01  0.36225761865E+02 -0.59538941407E+01  0.54367094352E+02  0.40000023194E+02 0.  0.
         12    1    3    3    0    0  0.28327397762E+01 -0.36225761865E+02  0.59538941407E+01  0.36820905648E+02  0.00000000000E+00 0. -1.
         11    1    4    4    0    0 -0.10421570783E+02  0.38589345701E+01  0.12017501610E+02  0.16368288206E+02  0.51100000000E-03 0. -1.
        -11    1    4    4    0    0  0.69923521923E+01  0.22293583280E+02 -0.13220631310E+02  0.26845519871E+02  0.51100000000E-03 0.  1.
         12    1    4    4    0    0  0.59647881427E+00  0.10073244014E+02 -0.47507644405E+01  0.11153286274E+02  0.00000000000E+00 0. -1.
</event>
<event>
 8    1  0.1240174E-006  0.9118800E+02  0.7816164E-02  0.1184000E+00
        -11   -1    0    0    0    0  0.00000000000E+00  0.00000000000E+00  0.45593999997E+02  0.45594000000E+02  0.51100000000E-03 0.  1.
         11   -1    0    0    0    0 -0.00000000000E+00 -0.00000000000E+00 -0.45593999997E+02  0.45594000000E+02  0.51100000000E-03 0. -1.
         23    2    1    2    0    0  0.17763568394E-14  0.71054273576E-14 -0.44408920985E-15  0.91188000000E+02  0.91188000000E+02 0.  0.
    9900012    2    3    3    0    0  0.71291341934E+01 -0.36089463837E+02  0.15825041828E+01  0.54367105472E+02  0.40000048544E+02 0.  0.
         12    1    3    3    0    0 -0.71291341934E+01  0.36089463837E+02 -0.15825041828E+01  0.36820894528E+02  0.00000000000E+00 0. -1.
         11    1    4    4    0    0  0.38083178567E+00  0.14539646206E+01 -0.19203780966E+01  0.24386263063E+01  0.51100000000E-03 0. -1.
        -11    1    4    4    0    0  0.18649848726E+02 -0.33616732718E+02 -0.14050420453E+01  0.38469152831E+02  0.51100000000E-03 0.  1.
        -12    1    4    4    0    0 -0.11901546318E+02 -0.39266957392E+01  0.49079243247E+01  0.13459326334E+02  0.00000000000E+00 0.  1.
</event>
<event>
 8    1  0.1240174E-006  0.9118800E+02  0.7816164E-02  0.1184000E+00
        -11   -1    0    0    0    0  0.00000000000E+00  0.00000000000E+00  0.45593999997E+02  0.45594000000E+02  0.51100000000E-03 0.  1.
         11   -1    0    0    0    0 -0.00000000000E+00 -0.00000000000E+00 -0.45593999997E+02  0.45594000000E+02  0.51100000000E-03 0. -1.
         23    2    1    2    0    0  0.17763568394E-14 -0.35527136788E-14  0.00000000000E+00  0.91188000000E+02  0.91188000000E+02 0.  0.
    9900012    2    3    3    0    0  0.15940046540E+02  0.23041161662E+02  0.23891402770E+02  0.54367090984E+02  0.40000015517E+02 0.  0.
         12    1    3    3    0    0 -0.15940046540E+02 -0.23041161662E+02 -0.23891402770E+02  0.36820909016E+02  0.00000000000E+00 0. -1.
         11    1    4    4    0    0  0.29603996548E+01 -0.61617564623E+00 -0.79975001779E+01  0.85500671284E+01  0.51100000000E-03 0. -1.
        -11    1    4    4    0    0  0.15215161381E+02  0.18431865467E+02  0.32228049146E+02  0.40123334264E+02  0.51100000000E-03 0.  1.
        -12    1    4    4    0    0 -0.22355144958E+01  0.52254718410E+01 -0.33914619855E+00  0.56936895917E+01  0.00000000000E+00 0.  1.
</event>
<event>
 8    1  0.1240174E-006  0.9118800E+02  0.7816164E-02  0.1184000E+00
        -11   -1    0    0    0    0  0.00000000000E+00  0.00000000000E+00  0.45593999997E+02  0.45594000000E+02  0.51100000000E-03 0. -1.
         11   -1    0    0    0    0 -0.00000000000E+00 -0.00000000000E+00 -0.45593999997E+02  0.45594000000E+02  0.51100000000E-03 0.  1.
         23    2    1    2    0    0  0.17763568394E-14  0.35527136788E-14  0.00000000000E+00  0.91188000000E+02  0.91188000000E+02 0.  0.
    9900012    2    3    3    0    0 -0.10434488169E+02  0.31304173322E+02  0.16338549843E+02  0.54367108895E+02  0.40000056349E+02 0.  0.
        -12    1    3    3    0    0  0.10434488169E+02 -0.31304173322E+02 -0.16338549843E+02  0.36820891105E+02  0.00000000000E+00 0.  1.
         11    1    4    4    0    0 -0.80812297484E+01  0.10433665029E+01 -0.57577928949E+01  0.99773276576E+01  0.51100000000E-03 0. -1.
        -11    1    4    4    0    0 -0.12966757320E+02  0.14078963983E+02  0.11412758921E+02  0.22284637952E+02  0.51100000000E-03 0.  1.
         12    1    4    4    0    0  0.10613498900E+02  0.16181842837E+02  0.10683583818E+02  0.22105143286E+02  0.00000000000E+00 0. -1.
</event>
<event>
 8    1  0.1240174E-006  0.9118800E+02  0.7816164E-02  0.1184000E+00
        -11   -1    0    0    0    0  0.00000000000E+00  0.00000000000E+00  0.45593999997E+02  0.45594000000E+02  0.51100000000E-03 0. -1.
         11   -1    0    0    0    0 -0.00000000000E+00 -0.00000000000E+00 -0.45593999997E+02  0.45594000000E+02  0.51100000000E-03 0.  1.
         23    2    1    2    0    0  0.00000000000E+00  0.00000000000E+00 -0.35527136788E-14  0.91188000000E+02  0.91188000000E+02 0.  0.
    9900012    2    3    3    0    0 -0.20023586252E+02 -0.12364104397E+02  0.28318959633E+02  0.54367101605E+02  0.40000039729E+02 0.  0.
        -12    1    3    3    0    0  0.20023586252E+02  0.12364104397E+02 -0.28318959633E+02  0.36820898395E+02  0.00000000000E+00 0.  1.
         11    1    4    4    0    0  0.16129531262E+01 -0.40587602953E+01 -0.11327195748E+01  0.45120069612E+01  0.51100000000E-03 0. -1.
        -11    1    4    4    0    0  0.78295521047E+01 -0.45678844861E+01  0.13155675766E+02  0.15976209187E+02  0.51100000000E-03 0.  1.
         12    1    4    4    0    0 -0.29466091483E+02 -0.37374596160E+01  0.16296003441E+02  0.33878885457E+02  0.00000000000E+00 0. -1.
</event>
<event>
 8    1  0.1240174E-006  0.9118800E+02  0.7816164E-02  0.1184000E+00
        -11   -1    0    0    0    0  0.00000000000E+00  0.00000000000E+00  0.45593999997E+02  0.45594000000E+02  0.51100000000E-03 0.  1.
         11   -1    0    0    0    0 -0.00000000000E+00 -0.00000000000E+00 -0.45593999997E+02  0.45594000000E+02  0.51100000000E-03 0. -1.
         23    2    1    2    0    0  0.00000000000E+00  0.00000000000E+00  0.00000000000E+00  0.91188000000E+02  0.91188000000E+02 0.  0.
    9900012    2    3    3    0    0  0.23125092922E+02 -0.14454259838E+02 -0.24740323582E+02  0.54367093425E+02  0.40000021080E+02 0.  0.
        -12    1    3    3    0    0 -0.23125092922E+02  0.14454259838E+02  0.24740323582E+02  0.36820906575E+02  0.00000000000E+00 0.  1.
         11    1    4    4    0    0  0.88772684772E+01 -0.10649019595E+02 -0.18022122217E+02  0.22737730832E+02  0.51100000000E-03 0. -1.
        -11    1    4    4    0    0  0.13972265311E+02  0.99377156043E+01 -0.32225898782E+01  0.17446130664E+02  0.51100000000E-03 0.  1.
        -12    1    4    4    0    0  0.27555913308E+00 -0.13742955848E+02 -0.34956114865E+01  0.14183231928E+02  0.00000000000E+00 0.  1.
</event>
<event>
 8    1  0.1240174E-006  0.9118800E+02  0.7816164E-02  0.1184000E+00
        -11   -1    0    0    0    0  0.00000000000E+00  0.00000000000E+00  0.45593999997E+02  0.45594000000E+02  0.51100000000E-03 0. -1.
         11   -1    0    0    0    0 -0.00000000000E+00 -0.00000000000E+00 -0.45593999997E+02  0.45594000000E+02  0.51100000000E-03 0.  1.
         23    2    1    2    0    0  0.00000000000E+00  0.13322676296E-14  0.00000000000E+00  0.91188000000E+02  0.91188000000E+02 0.  0.
    9900012    2    3    3    0    0 -0.92153957757E+01  0.31093176058E+01  0.35513212793E+02  0.54367086674E+02  0.40000005691E+02 0.  0.
        -12    1    3    3    0    0  0.92153957757E+01 -0.31093176058E+01 -0.35513212793E+02  0.36820913326E+02  0.00000000000E+00 0.  1.
         11    1    4    4    0    0 -0.14068147146E+02 -0.49609900538E+01  0.16271375378E+02  0.22074461339E+02  0.51100000000E-03 0. -1.
        -11    1    4    4    0    0  0.23526925364E+01  0.14261418066E+02  0.30420409891E+01  0.14770823303E+02  0.51100000000E-03 0.  1.
         12    1    4    4    0    0  0.25000588335E+01 -0.61911104062E+01  0.16199796426E+02  0.17521802032E+02  0.00000000000E+00 0. -1.
</event>
<event>
 8    1  0.1240174E-006  0.9118800E+02  0.7816164E-02  0.1184000E+00
        -11   -1    0    0    0    0  0.00000000000E+00  0.00000000000E+00  0.45593999997E+02  0.45594000000E+02  0.51100000000E-03 0.  1.
         11   -1    0    0    0    0 -0.00000000000E+00 -0.00000000000E+00 -0.45593999997E+02  0.45594000000E+02  0.51100000000E-03 0. -1.
         23    2    1    2    0    0  0.00000000000E+00  0.00000000000E+00 -0.17763568394E-14  0.91188000000E+02  0.91188000000E+02 0.  0.
    9900012    2    3    3    0    0  0.32903343741E+02 -0.12375800197E+02 -0.10953971848E+02  0.54367082588E+02  0.39999996375E+02 0.  0.
        -12    1    3    3    0    0 -0.32903343741E+02  0.12375800197E+02  0.10953971848E+02  0.36820917412E+02  0.00000000000E+00 0.  1.
         11    1    4    4    0    0  0.17447829232E+02  0.22230821574E+01 -0.91091160651E+01  0.19807696356E+02  0.51100000000E-03 0. -1.
        -11    1    4    4    0    0  0.10522878943E+02 -0.22700222757E+02 -0.15904893755E+01  0.25071113880E+02  0.51100000000E-03 0.  1.
        -12    1    4    4    0    0  0.49326355664E+01  0.81013404029E+01 -0.25436640712E+00  0.94882723519E+01  0.00000000000E+00 0.  1.
</event>
<event>
 8    1  0.1240174E-006  0.9118800E+02  0.7816164E-02  0.1184000E+00
        -11   -1    0    0    0    0  0.00000000000E+00  0.00000000000E+00  0.45593999997E+02  0.45594000000E+02  0.51100000000E-03 0. -1.
         11   -1    0    0    0    0 -0.00000000000E+00 -0.00000000000E+00 -0.45593999997E+02  0.45594000000E+02  0.51100000000E-03 0.  1.
         23    2    1    2    0    0  0.00000000000E+00  0.17763568394E-14  0.00000000000E+00  0.91188000000E+02  0.91188000000E+02 0.  0.
    9900012    2    3    3    0    0 -0.35743642439E+01  0.12347639366E+02  0.34504218466E+02  0.54367063434E+02  0.39999952710E+02 0.  0.
        -12    1    3    3    0    0  0.35743642439E+01 -0.12347639366E+02 -0.34504218466E+02  0.36820936566E+02  0.00000000000E+00 0.  1.
         11    1    4    4    0    0  0.21951867589E+01  0.23726656876E+02  0.11381506101E+02  0.26406661523E+02  0.51100000000E-03 0.  1.
        -11    1    4    4    0    0 -0.67787066252E+01 -0.37139492281E+01  0.14089915404E+02  0.16070780900E+02  0.51100000000E-03 0. -1.
        -12    1    4    4    0    0  0.10091556224E+01 -0.76650682820E+01  0.90327969611E+01  0.11889621011E+02  0.00000000000E+00 0.  1.
</event>
<event>
 8    1  0.1240174E-006  0.9118800E+02  0.7816164E-02  0.1184000E+00
        -11   -1    0    0    0    0  0.00000000000E+00  0.00000000000E+00  0.45593999997E+02  0.45594000000E+02  0.51100000000E-03 0.  1.
         11   -1    0    0    0    0 -0.00000000000E+00 -0.00000000000E+00 -0.45593999997E+02  0.45594000000E+02  0.51100000000E-03 0. -1.
         23    2    1    2    0    0  0.00000000000E+00  0.88817841970E-15  0.17763568394E-14  0.91188000000E+02  0.91188000000E+02 0.  0.
    9900012    2    3    3    0    0  0.33906717794E+02  0.79639980439E+01 -0.11945249236E+02  0.54367085350E+02  0.40000002672E+02 0.  0.
        -12    1    3    3    0    0 -0.33906717794E+02 -0.79639980439E+01  0.11945249236E+02  0.36820914650E+02  0.00000000000E+00 0.  1.
         11    1    4    4    0    0 -0.47653873681E+01  0.39539066287E+01 -0.39875651972E+01  0.73649827467E+01  0.51100000000E-03 0.  1.
        -11    1    4    4    0    0  0.89651980670E+01 -0.86075701605E+01  0.32323560964E+01  0.12841852150E+02  0.51100000000E-03 0. -1.
         12    1    4    4    0    0  0.29706907095E+02  0.12617661576E+02 -0.11190040135E+02  0.34160250453E+02  0.00000000000E+00 0. -1.
</event>
<event>
 8    1  0.1240174E-006  0.9118800E+02  0.7816164E-02  0.1184000E+00
        -11   -1    0    0    0    0  0.00000000000E+00  0.00000000000E+00  0.45593999997E+02  0.45594000000E+02  0.51100000000E-03 0. -1.
         11   -1    0    0    0    0 -0.00000000000E+00 -0.00000000000E+00 -0.45593999997E+02  0.45594000000E+02  0.51100000000E-03 0.  1.
         23    2    1    2    0    0  0.00000000000E+00  0.35527136788E-14  0.00000000000E+00  0.91188000000E+02  0.91188000000E+02 0.  0.
    9900012    2    3    3    0    0 -0.11646873741E+02 -0.28363605569E+02  0.20387178296E+02  0.54367070793E+02  0.39999969487E+02 0.  0.
        -12    1    3    3    0    0  0.11646873741E+02  0.28363605569E+02 -0.20387178296E+02  0.36820929207E+02  0.00000000000E+00 0.  1.
         11    1    4    4    0    0 -0.10528069440E+02  0.52576562224E+01  0.98553627547E+01  0.15349637467E+02  0.51100000000E-03 0.  1.
        -11    1    4    4    0    0 -0.49795111206E+01 -0.27920175416E+02  0.25483737698E+01  0.28475005450E+02  0.51100000000E-03 0. -1.
         12    1    4    4    0    0  0.38607068197E+01 -0.57010863754E+01  0.79834417711E+01  0.10542427876E+02  0.00000000000E+00 0. -1.
</event>
<event>
 8    1  0.1240174E-006  0.9118800E+02  0.7816164E-02  0.1184000E+00
        -11   -1    0    0    0    0  0.00000000000E+00  0.00000000000E+00  0.45593999997E+02  0.45594000000E+02  0.51100000000E-03 0. -1.
         11   -1    0    0    0    0 -0.00000000000E+00 -0.00000000000E+00 -0.45593999997E+02  0.45594000000E+02  0.51100000000E-03 0.  1.
         23    2    1    2    0    0  0.88817841970E-15  0.00000000000E+00  0.19428902931E-15  0.91188000000E+02  0.91188000000E+02 0.  0.
    9900012    2    3    3    0    0 -0.43412374505E+01 -0.36563790781E+02 -0.15245363227E+00  0.54367076858E+02  0.39999983314E+02 0.  0.
        -12    1    3    3    0    0  0.43412374505E+01  0.36563790781E+02  0.15245363227E+00  0.36820923142E+02  0.00000000000E+00 0.  1.
         11    1    4    4    0    0  0.78857542184E+00  0.84343385287E+00 -0.31758336584E+01  0.33792235124E+01  0.51100000000E-03 0. -1.
        -11    1    4    4    0    0 -0.14879997675E+02 -0.73916062312E+01 -0.67739103789E+01  0.17942576058E+02  0.51100000000E-03 0.  1.
         12    1    4    4    0    0  0.97501848031E+01 -0.30015618403E+02  0.97972904050E+01  0.33045277288E+02  0.00000000000E+00 0. -1.
</event>
<event>
 8    1  0.1240174E-006  0.9118800E+02  0.7816164E-02  0.1184000E+00
        -11   -1    0    0    0    0  0.00000000000E+00  0.00000000000E+00  0.45593999997E+02  0.45594000000E+02  0.51100000000E-03 0.  1.
         11   -1    0    0    0    0 -0.00000000000E+00 -0.00000000000E+00 -0.45593999997E+02  0.45594000000E+02  0.51100000000E-03 0. -1.
         23    2    1    2    0    0 -0.35527136788E-14  0.00000000000E+00 -0.35527136788E-14  0.91188000000E+02  0.91188000000E+02 0.  0.
    9900012    2    3    3    0    0  0.21581510627E+02 -0.10706023302E+02  0.27845998883E+02  0.54367079457E+02  0.39999989237E+02 0.  0.
         12    1    3    3    0    0 -0.21581510627E+02  0.10706023302E+02 -0.27845998883E+02  0.36820920543E+02  0.00000000000E+00 0. -1.
         11    1    4    4    0    0  0.16103869736E+02 -0.74159944655E+01  0.20809122214E+02  0.27337724155E+02  0.51100000000E-03 0. -1.
        -11    1    4    4    0    0  0.13629981320E+02 -0.77518542318E+01  0.53875395150E+00  0.15689419712E+02  0.51100000000E-03 0.  1.
         12    1    4    4    0    0 -0.81523404291E+01  0.44618253951E+01  0.64981227172E+01  0.11339935590E+02  0.00000000000E+00 0. -1.
</event>
<event>
 8    1  0.1240174E-006  0.9118800E+02  0.7816164E-02  0.1184000E+00
        -11   -1    0    0    0    0  0.00000000000E+00  0.00000000000E+00  0.45593999997E+02  0.45594000000E+02  0.51100000000E-03 0.  1.
         11   -1    0    0    0    0 -0.00000000000E+00 -0.00000000000E+00 -0.45593999997E+02  0.45594000000E+02  0.51100000000E-03 0. -1.
         23    2    1    2    0    0  0.00000000000E+00 -0.35527136788E-14  0.00000000000E+00  0.91188000000E+02  0.91188000000E+02 0.  0.
    9900012    2    3    3    0    0  0.29948716662E+02  0.19997787393E+02 -0.76774382465E+01  0.54367079475E+02  0.39999989279E+02 0.  0.
         12    1    3    3    0    0 -0.29948716662E+02 -0.19997787393E+02  0.76774382465E+01  0.36820920525E+02  0.00000000000E+00 0. -1.
         11    1    4    4    0    0 -0.89483405001E+01  0.27184061233E+01 -0.11734814237E+01  0.94254755036E+01  0.51100000000E-03 0. -1.
        -11    1    4    4    0    0  0.35060484021E+01  0.38694545412E+01 -0.47431725347E+01  0.70542710324E+01  0.51100000000E-03 0.  1.
        -12    1    4    4    0    0  0.35391008760E+02  0.13409926728E+02 -0.17607842881E+01  0.37887332939E+02  0.00000000000E+00 0.  1.
</event>
<event>
 8    1  0.1240174E-006  0.9118800E+02  0.7816164E-02  0.1184000E+00
        -11   -1    0    0    0    0  0.00000000000E+00  0.00000000000E+00  0.45593999997E+02  0.45594000000E+02  0.51100000000E-03 0. -1.
         11   -1    0    0    0    0 -0.00000000000E+00 -0.00000000000E+00 -0.45593999997E+02  0.45594000000E+02  0.51100000000E-03 0.  1.
         23    2    1    2    0    0  0.35527136788E-14  0.00000000000E+00 -0.88817841970E-15  0.91188000000E+02  0.91188000000E+02 0.  0.
    9900012    2    3    3    0    0  0.27326691003E+02 -0.23400445127E+02 -0.78388023830E+01  0.54367140476E+02  0.40000128343E+02 0.  0.
         12    1    3    3    0    0 -0.27326691003E+02  0.23400445127E+02  0.78388023830E+01  0.36820859524E+02  0.00000000000E+00 0. -1.
         11    1    4    4    0    0  0.55759669156E+01 -0.20938626835E+02  0.42500319478E+01  0.22081219908E+02  0.51100000000E-03 0. -1.
        -11    1    4    4    0    0  0.97597905591E+01 -0.11357290120E+02 -0.53031410250E+01  0.15885995582E+02  0.51100000000E-03 0.  1.
        -12    1    4    4    0    0  0.11990933528E+02  0.88954718283E+01 -0.67856933058E+01  0.16399924986E+02  0.00000000000E+00 0.  1.
</event>
<event>
 8    1  0.1240174E-006  0.9118800E+02  0.7816164E-02  0.1184000E+00
        -11   -1    0    0    0    0  0.00000000000E+00  0.00000000000E+00  0.45593999997E+02  0.45594000000E+02  0.51100000000E-03 0.  1.
         11   -1    0    0    0    0 -0.00000000000E+00 -0.00000000000E+00 -0.45593999997E+02  0.45594000000E+02  0.51100000000E-03 0. -1.
         23    2    1    2    0    0  0.35527136788E-14  0.17763568394E-14  0.00000000000E+00  0.91188000000E+02  0.91188000000E+02 0.  0.
    9900012    2    3    3    0    0 -0.13086928785E+02 -0.96493726903E+01  0.33036357821E+02  0.54367095117E+02  0.40000024937E+02 0.  0.
         12    1    3    3    0    0  0.13086928785E+02  0.96493726903E+01 -0.33036357821E+02  0.36820904883E+02  0.00000000000E+00 0. -1.
         11    1    4    4    0    0  0.47006904915E+01 -0.27509974051E+01 -0.20845343695E+01  0.58317888866E+01  0.51100000000E-03 0. -1.
        -11    1    4    4    0    0  0.10295073042E+01  0.86067191234E+01  0.59363853467E+01  0.10506006406E+02  0.51100000000E-03 0.  1.
        -12    1    4    4    0    0 -0.18817126581E+02 -0.15505094409E+02  0.29184506844E+02  0.38029299824E+02  0.00000000000E+00 0.  1.
</event>
<event>
 8    1  0.1240174E-006  0.9118800E+02  0.7816164E-02  0.1184000E+00
        -11   -1    0    0    0    0  0.00000000000E+00  0.00000000000E+00  0.45593999997E+02  0.45594000000E+02  0.51100000000E-03 0.  1.
         11   -1    0    0    0    0 -0.00000000000E+00 -0.00000000000E+00 -0.45593999997E+02  0.45594000000E+02  0.51100000000E-03 0. -1.
         23    2    1    2    0    0  0.35527136788E-14  0.35527136788E-14  0.00000000000E+00  0.91188000000E+02  0.91188000000E+02 0.  0.
    9900012    2    3    3    0    0 -0.18485794118E+02 -0.30572217382E+02  0.89103936289E+01  0.54367079663E+02  0.39999989708E+02 0.  0.
        -12    1    3    3    0    0  0.18485794118E+02  0.30572217382E+02 -0.89103936289E+01  0.36820920337E+02  0.00000000000E+00 0.  1.
         11    1    4    4    0    0 -0.15528541980E+02 -0.35494365751E+02 -0.31834546149E+01  0.38873126960E+02  0.51100000000E-03 0. -1.
        -11    1    4    4    0    0 -0.47848403299E+01  0.63505209396E+00  0.77066153195E+01  0.90933991493E+01  0.51100000000E-03 0.  1.
        -12    1    4    4    0    0  0.18275881915E+01  0.42870962752E+01  0.43872329243E+01  0.64005535543E+01  0.00000000000E+00 0.  1.
</event>
<event>
 8    1  0.1240174E-006  0.9118800E+02  0.7816164E-02  0.1184000E+00
        -11   -1    0    0    0    0  0.00000000000E+00  0.00000000000E+00  0.45593999997E+02  0.45594000000E+02  0.51100000000E-03 0. -1.
         11   -1    0    0    0    0 -0.00000000000E+00 -0.00000000000E+00 -0.45593999997E+02  0.45594000000E+02  0.51100000000E-03 0.  1.
         23    2    1    2    0    0  0.00000000000E+00  0.00000000000E+00  0.00000000000E+00  0.91188000000E+02  0.91188000000E+02 0.  0.
    9900012    2    3    3    0    0 -0.16321959371E+02  0.78471627290E+01  0.32059197815E+02  0.54367129761E+02  0.40000103917E+02 0.  0.
         12    1    3    3    0    0  0.16321959371E+02 -0.78471627290E+01 -0.32059197815E+02  0.36820870239E+02  0.00000000000E+00 0. -1.
         11    1    4    4    0    0 -0.98864615684E+01  0.47024906505E+01  0.25641879429E+02  0.27881203732E+02  0.51100000000E-03 0. -1.
        -11    1    4    4    0    0 -0.13270011731E+02 -0.13269441313E+01  0.10850785406E+02  0.17192833864E+02  0.51100000000E-03 0.  1.
        -12    1    4    4    0    0  0.68345139292E+01  0.44716162098E+01 -0.44334670198E+01  0.92930921652E+01  0.00000000000E+00 0.  1.
</event>
<event>
 8    1  0.1240174E-006  0.9118800E+02  0.7816164E-02  0.1184000E+00
        -11   -1    0    0    0    0  0.00000000000E+00  0.00000000000E+00  0.45593999997E+02  0.45594000000E+02  0.51100000000E-03 0. -1.
         11   -1    0    0    0    0 -0.00000000000E+00 -0.00000000000E+00 -0.45593999997E+02  0.45594000000E+02  0.51100000000E-03 0.  1.
         23    2    1    2    0    0  0.00000000000E+00  0.22204460493E-15 -0.88817841970E-15  0.91188000000E+02  0.91188000000E+02 0.  0.
    9900012    2    3    3    0    0  0.36111763990E+02 -0.13314442343E+01  0.70673423941E+01  0.54367087861E+02  0.40000008398E+02 0.  0.
        -12    1    3    3    0    0 -0.36111763990E+02  0.13314442343E+01 -0.70673423941E+01  0.36820912139E+02  0.00000000000E+00 0.  1.
         11    1    4    4    0    0  0.39905206086E+02 -0.50878684957E+01  0.58129156096E+01  0.40646055980E+02  0.51100000000E-03 0. -1.
        -11    1    4    4    0    0  0.31377177970E+01  0.29222332618E+01  0.43288014289E+01  0.60928845616E+01  0.51100000000E-03 0.  1.
        -12    1    4    4    0    0 -0.69311598928E+01  0.83419099955E+00 -0.30743746444E+01  0.76281473201E+01  0.00000000000E+00 0.  1.
</event>
<event>
 8    1  0.1240174E-006  0.9118800E+02  0.7816164E-02  0.1184000E+00
        -11   -1    0    0    0    0  0.00000000000E+00  0.00000000000E+00  0.45593999997E+02  0.45594000000E+02  0.51100000000E-03 0. -1.
         11   -1    0    0    0    0 -0.00000000000E+00 -0.00000000000E+00 -0.45593999997E+02  0.45594000000E+02  0.51100000000E-03 0.  1.
         23    2    1    2    0    0  0.00000000000E+00 -0.17763568394E-14  0.00000000000E+00  0.91188000000E+02  0.91188000000E+02 0.  0.
    9900012    2    3    3    0    0 -0.10356719913E+02  0.99563527514E+01  0.33902641578E+02  0.54367085923E+02  0.40000003979E+02 0.  0.
        -12    1    3    3    0    0  0.10356719913E+02 -0.99563527514E+01 -0.33902641578E+02  0.36820914077E+02  0.00000000000E+00 0.  1.
         11    1    4    4    0    0 -0.10523042185E+02  0.71772886964E+00  0.34844091258E+02  0.36405497489E+02  0.51100000000E-03 0. -1.
        -11    1    4    4    0    0  0.34934860107E+01  0.42922148957E+01 -0.73555692405E+01  0.92049960527E+01  0.51100000000E-03 0.  1.
         12    1    4    4    0    0 -0.33271637387E+01  0.49464089861E+01  0.64141195609E+01  0.87565923819E+01  0.00000000000E+00 0. -1.
</event>
<event>
 8    1  0.1240174E-006  0.9118800E+02  0.7816164E-02  0.1184000E+00
        -11   -1    0    0    0    0  0.00000000000E+00  0.00000000000E+00  0.45593999997E+02  0.45594000000E+02  0.51100000000E-03 0.  1.
         11   -1    0    0    0    0 -0.00000000000E+00 -0.00000000000E+00 -0.45593999997E+02  0.45594000000E+02  0.51100000000E-03 0. -1.
         23    2    1    2    0    0 -0.88817841970E-15 -0.71054273576E-14  0.17763568394E-14  0.91188000000E+02  0.91188000000E+02 0.  0.
    9900012    2    3    3    0    0  0.64972024565E+01  0.33313117520E+02 -0.14275925961E+02  0.54367088812E+02  0.40000010564E+02 0.  0.
        -12    1    3    3    0    0 -0.64972024565E+01 -0.33313117520E+02  0.14275925961E+02  0.36820911188E+02  0.00000000000E+00 0.  1.
         11    1    4    4    0    0  0.10141266084E+02  0.11557480823E+02 -0.23007045030E+02  0.27672093561E+02  0.51100000000E-03 0. -1.
        -11    1    4    4    0    0 -0.78382762293E+01  0.10487960600E+02  0.33034622792E+01  0.13503657100E+02  0.51100000000E-03 0.  1.
         12    1    4    4    0    0  0.41942126013E+01  0.11267676097E+02  0.54276567891E+01  0.13191338150E+02  0.00000000000E+00 0. -1.
</event>
<event>
 8    1  0.1240174E-006  0.9118800E+02  0.7816164E-02  0.1184000E+00
        -11   -1    0    0    0    0  0.00000000000E+00  0.00000000000E+00  0.45593999997E+02  0.45594000000E+02  0.51100000000E-03 0.  1.
         11   -1    0    0    0    0 -0.00000000000E+00 -0.00000000000E+00 -0.45593999997E+02  0.45594000000E+02  0.51100000000E-03 0. -1.
         23    2    1    2    0    0 -0.35527136788E-14  0.00000000000E+00  0.00000000000E+00  0.91188000000E+02  0.91188000000E+02 0.  0.
    9900012    2    3    3    0    0  0.29892214891E+02  0.13669373496E+02  0.16594639479E+02  0.54367104542E+02  0.40000046425E+02 0.  0.
         12    1    3    3    0    0 -0.29892214891E+02 -0.13669373496E+02 -0.16594639479E+02  0.36820895458E+02  0.00000000000E+00 0. -1.
         11    1    4    4    0    0  0.34957164147E+02  0.31995682355E+01  0.81543979037E+01  0.36037962865E+02  0.51100000000E-03 0. -1.
        -11    1    4    4    0    0 -0.77052966682E+01  0.44837630127E+01  0.19748743363E+01  0.91310380792E+01  0.51100000000E-03 0.  1.
         12    1    4    4    0    0  0.26403474132E+01  0.59860422480E+01  0.64653672387E+01  0.91981035974E+01  0.00000000000E+00 0. -1.
</event>
<event>
 8    1  0.1240174E-006  0.9118800E+02  0.7816164E-02  0.1184000E+00
        -11   -1    0    0    0    0  0.00000000000E+00  0.00000000000E+00  0.45593999997E+02  0.45594000000E+02  0.51100000000E-03 0.  1.
         11   -1    0    0    0    0 -0.00000000000E+00 -0.00000000000E+00 -0.45593999997E+02  0.45594000000E+02  0.51100000000E-03 0. -1.
         23    2    1    2    0    0  0.00000000000E+00  0.00000000000E+00  0.35527136788E-14  0.91188000000E+02  0.91188000000E+02 0.  0.
    9900012    2    3    3    0    0 -0.16824462471E+02 -0.12269167058E+02 -0.30367448521E+02  0.54367123755E+02  0.40000090225E+02 0.  0.
        -12    1    3    3    0    0  0.16824462471E+02  0.12269167058E+02  0.30367448521E+02  0.36820876245E+02  0.00000000000E+00 0.  1.
         11    1    4    4    0    0 -0.47350550318E+01  0.21740611138E+01 -0.23381473900E+02  0.23954970463E+02  0.51100000000E-03 0. -1.
        -11    1    4    4    0    0 -0.22663633512E+01  0.60991774068E+01 -0.34636743380E+01  0.73711198648E+01  0.51100000000E-03 0.  1.
        -12    1    4    4    0    0 -0.98230440882E+01 -0.20542405579E+02 -0.35223002827E+01  0.23041033428E+02  0.00000000000E+00 0.  1.
</event>
<event>
 8    1  0.1240174E-006  0.9118800E+02  0.7816164E-02  0.1184000E+00
        -11   -1    0    0    0    0  0.00000000000E+00  0.00000000000E+00  0.45593999997E+02  0.45594000000E+02  0.51100000000E-03 0. -1.
         11   -1    0    0    0    0 -0.00000000000E+00 -0.00000000000E+00 -0.45593999997E+02  0.45594000000E+02  0.51100000000E-03 0.  1.
         23    2    1    2    0    0  0.44408920985E-15 -0.35527136788E-14  0.35527136788E-14  0.91188000000E+02  0.91188000000E+02 0.  0.
    9900012    2    3    3    0    0 -0.20322014646E+01 -0.29713967900E+02 -0.21650189185E+02  0.54367076289E+02  0.39999982016E+02 0.  0.
         12    1    3    3    0    0  0.20322014646E+01  0.29713967900E+02  0.21650189185E+02  0.36820923711E+02  0.00000000000E+00 0. -1.
         11    1    4    4    0    0 -0.12349003825E+01 -0.12038857802E+01 -0.26470285505E+00  0.17448174085E+01  0.51100000000E-03 0. -1.
        -11    1    4    4    0    0  0.11902541685E+02 -0.28209727491E+02 -0.24874211915E+02  0.39448518887E+02  0.51100000000E-03 0.  1.
         12    1    4    4    0    0 -0.12699842767E+02 -0.30035462891E+00  0.34887255847E+01  0.13173739994E+02  0.00000000000E+00 0. -1.
</event>
<event>
 8    1  0.1240174E-006  0.9118800E+02  0.7816164E-02  0.1184000E+00
        -11   -1    0    0    0    0  0.00000000000E+00  0.00000000000E+00  0.45593999997E+02  0.45594000000E+02  0.51100000000E-03 0. -1.
         11   -1    0    0    0    0 -0.00000000000E+00 -0.00000000000E+00 -0.45593999997E+02  0.45594000000E+02  0.51100000000E-03 0.  1.
         23    2    1    2    0    0 -0.13322676296E-14  0.35527136788E-14  0.71054273576E-14  0.91188000000E+02  0.91188000000E+02 0.  0.
    9900012    2    3    3    0    0  0.84830135510E+00 -0.18883807673E+02 -0.31598450623E+02  0.54367083536E+02  0.39999998538E+02 0.  0.
         12    1    3    3    0    0 -0.84830135510E+00  0.18883807673E+02  0.31598450623E+02  0.36820916464E+02  0.00000000000E+00 0. -1.
         11    1    4    4    0    0 -0.10178951887E+02 -0.13017509912E+02 -0.97468108507E+01  0.19185070963E+02  0.51100000000E-03 0. -1.
        -11    1    4    4    0    0  0.33728701987E+01 -0.18013862166E+01 -0.25495301769E+02  0.25780451087E+02  0.51100000000E-03 0.  1.
         12    1    4    4    0    0  0.76543830435E+01 -0.40649115443E+01  0.36436619964E+01  0.94015614864E+01  0.00000000000E+00 0. -1.
</event>
<event>
 8    1  0.1240174E-006  0.9118800E+02  0.7816164E-02  0.1184000E+00
        -11   -1    0    0    0    0  0.00000000000E+00  0.00000000000E+00  0.45593999997E+02  0.45594000000E+02  0.51100000000E-03 0. -1.
         11   -1    0    0    0    0 -0.00000000000E+00 -0.00000000000E+00 -0.45593999997E+02  0.45594000000E+02  0.51100000000E-03 0.  1.
         23    2    1    2    0    0 -0.97144514655E-15  0.00000000000E+00  0.00000000000E+00  0.91188000000E+02  0.91188000000E+02 0.  0.
    9900012    2    3    3    0    0 -0.19920470278E+00  0.17127027305E+02  0.32594766319E+02  0.54366898194E+02  0.39999576010E+02 0.  0.
        -12    1    3    3    0    0  0.19920470278E+00 -0.17127027305E+02 -0.32594766319E+02  0.36821101806E+02  0.00000000000E+00 0.  1.
         11    1    4    4    0    0 -0.70807551539E+01  0.35765955355E+01  0.28116892626E+01  0.84163368483E+01  0.51100000000E-03 0. -1.
        -11    1    4    4    0    0 -0.17004446085E+01  0.92094881557E+01 -0.44669090779E+01  0.10375907716E+02  0.51100000000E-03 0.  1.
        -12    1    4    4    0    0  0.85819950597E+01  0.43409436142E+01  0.34249986134E+02  0.35574653630E+02  0.00000000000E+00 0.  1.
</event>
<event>
 8    1  0.1240174E-006  0.9118800E+02  0.7816164E-02  0.1184000E+00
        -11   -1    0    0    0    0  0.00000000000E+00  0.00000000000E+00  0.45593999997E+02  0.45594000000E+02  0.51100000000E-03 0. -1.
         11   -1    0    0    0    0 -0.00000000000E+00 -0.00000000000E+00 -0.45593999997E+02  0.45594000000E+02  0.51100000000E-03 0.  1.
         23    2    1    2    0    0  0.00000000000E+00 -0.12767564783E-14  0.17763568394E-14  0.91188000000E+02  0.91188000000E+02 0.  0.
    9900012    2    3    3    0    0  0.35781112876E+02  0.35001290873E+00  0.86816624844E+01  0.54367057437E+02  0.39999939040E+02 0.  0.
        -12    1    3    3    0    0 -0.35781112876E+02 -0.35001290873E+00 -0.86816624844E+01  0.36820942563E+02  0.00000000000E+00 0.  1.
         11    1    4    4    0    0  0.21990597769E+02  0.88645502843E+01  0.85847816290E+01  0.25216366071E+02  0.51100000000E-03 0. -1.
        -11    1    4    4    0    0  0.11657096169E+02  0.51863014619E+01  0.59771367925E+01  0.14089420799E+02  0.51100000000E-03 0.  1.
         12    1    4    4    0    0  0.21334189388E+01 -0.13700838837E+02 -0.58802559370E+01  0.15061270567E+02  0.00000000000E+00 0. -1.
</event>
<event>
 8    1  0.1240174E-006  0.9118800E+02  0.7816164E-02  0.1184000E+00
        -11   -1    0    0    0    0  0.00000000000E+00  0.00000000000E+00  0.45593999997E+02  0.45594000000E+02  0.51100000000E-03 0. -1.
         11   -1    0    0    0    0 -0.00000000000E+00 -0.00000000000E+00 -0.45593999997E+02  0.45594000000E+02  0.51100000000E-03 0.  1.
         23    2    1    2    0    0 -0.17763568394E-14  0.00000000000E+00  0.00000000000E+00  0.91188000000E+02  0.91188000000E+02 0.  0.
    9900012    2    3    3    0    0  0.14890638554E+02 -0.17597929035E+02  0.28711672369E+02  0.54367104396E+02  0.40000046091E+02 0.  0.
        -12    1    3    3    0    0 -0.14890638554E+02  0.17597929035E+02 -0.28711672369E+02  0.36820895604E+02  0.00000000000E+00 0.  1.
         11    1    4    4    0    0  0.17802048501E+02 -0.79627220971E+01 -0.11515234013E+01  0.19535707830E+02  0.51100000000E-03 0. -1.
        -11    1    4    4    0    0 -0.32594819653E+01  0.10518370189E+01  0.35229426730E+00  0.34430648133E+01  0.51100000000E-03 0.  1.
         12    1    4    4    0    0  0.34807201882E+00 -0.10687043957E+02  0.29510901503E+02  0.31388331752E+02  0.00000000000E+00 0. -1.
</event>
<event>
 8    1  0.1240174E-006  0.9118800E+02  0.7816164E-02  0.1184000E+00
        -11   -1    0    0    0    0  0.00000000000E+00  0.00000000000E+00  0.45593999997E+02  0.45594000000E+02  0.51100000000E-03 0. -1.
         11   -1    0    0    0    0 -0.00000000000E+00 -0.00000000000E+00 -0.45593999997E+02  0.45594000000E+02  0.51100000000E-03 0.  1.
         23    2    1    2    0    0  0.00000000000E+00 -0.35527136788E-14  0.00000000000E+00  0.91188000000E+02  0.91188000000E+02 0.  0.
    9900012    2    3    3    0    0  0.25912900054E+02  0.18619530668E+02 -0.18374292567E+02  0.54367082863E+02  0.39999997002E+02 0.  0.
         12    1    3    3    0    0 -0.25912900054E+02 -0.18619530668E+02  0.18374292567E+02  0.36820917137E+02  0.00000000000E+00 0. -1.
         11    1    4    4    0    0  0.21569253286E+02 -0.67690412165E+01 -0.14858689146E+02  0.27052416708E+02  0.51100000000E-03 0. -1.
        -11    1    4    4    0    0  0.82320620888E+00  0.86484779724E+00 -0.22018361897E+01  0.25047381184E+01  0.51100000000E-03 0.  1.
         12    1    4    4    0    0  0.35204405584E+01  0.24523724088E+02 -0.13137672307E+01  0.24809928037E+02  0.00000000000E+00 0. -1.
</event>
<event>
 8    1  0.1240174E-006  0.9118800E+02  0.7816164E-02  0.1184000E+00
        -11   -1    0    0    0    0  0.00000000000E+00  0.00000000000E+00  0.45593999997E+02  0.45594000000E+02  0.51100000000E-03 0.  1.
         11   -1    0    0    0    0 -0.00000000000E+00 -0.00000000000E+00 -0.45593999997E+02  0.45594000000E+02  0.51100000000E-03 0. -1.
         23    2    1    2    0    0  0.00000000000E+00  0.00000000000E+00  0.00000000000E+00  0.91188000000E+02  0.91188000000E+02 0.  0.
    9900012    2    3    3    0    0  0.11416828183E+02 -0.27504101697E+02 -0.21655507147E+02  0.54367074350E+02  0.39999977596E+02 0.  0.
        -12    1    3    3    0    0 -0.11416828183E+02  0.27504101697E+02  0.21655507147E+02  0.36820925650E+02  0.00000000000E+00 0.  1.
         11    1    4    4    0    0  0.22816108828E+01 -0.19712073343E+02 -0.28521740405E+02  0.34745665337E+02  0.51100000000E-03 0. -1.
        -11    1    4    4    0    0  0.43376784803E+01  0.13251520686E+01 -0.29343512201E+01  0.54020273924E+01  0.51100000000E-03 0.  1.
        -12    1    4    4    0    0  0.47975388200E+01 -0.91171804223E+01  0.98005844777E+01  0.14219381621E+02  0.00000000000E+00 0.  1.
</event>
<event>
 8    1  0.1240174E-006  0.9118800E+02  0.7816164E-02  0.1184000E+00
        -11   -1    0    0    0    0  0.00000000000E+00  0.00000000000E+00  0.45593999997E+02  0.45594000000E+02  0.51100000000E-03 0. -1.
         11   -1    0    0    0    0 -0.00000000000E+00 -0.00000000000E+00 -0.45593999997E+02  0.45594000000E+02  0.51100000000E-03 0.  1.
         23    2    1    2    0    0 -0.88817841970E-15  0.88817841970E-15 -0.71054273576E-14  0.91188000000E+02  0.91188000000E+02 0.  0.
    9900012    2    3    3    0    0  0.28502565723E+01  0.19389424568E+01 -0.36659190751E+02  0.54367085740E+02  0.40000003562E+02 0.  0.
         12    1    3    3    0    0 -0.28502565723E+01 -0.19389424568E+01  0.36659190751E+02  0.36820914260E+02  0.00000000000E+00 0. -1.
         11    1    4    4    0    0  0.23205871356E+01 -0.17746865880E+01  0.45144035872E+01  0.53772183468E+01  0.51100000000E-03 0. -1.
        -11    1    4    4    0    0  0.55200737412E+01 -0.97885906603E+01 -0.11894950314E+02  0.16363910426E+02  0.51100000000E-03 0.  1.
        -12    1    4    4    0    0 -0.49904043045E+01  0.13502219705E+02 -0.29278644025E+02  0.32625956967E+02  0.00000000000E+00 0.  1.
</event>
<event>
 8    1  0.1240174E-006  0.9118800E+02  0.7816164E-02  0.1184000E+00
        -11   -1    0    0    0    0  0.00000000000E+00  0.00000000000E+00  0.45593999997E+02  0.45594000000E+02  0.51100000000E-03 0. -1.
         11   -1    0    0    0    0 -0.00000000000E+00 -0.00000000000E+00 -0.45593999997E+02  0.45594000000E+02  0.51100000000E-03 0.  1.
         23    2    1    2    0    0 -0.77715611724E-15  0.35527136788E-14 -0.35527136788E-14  0.91188000000E+02  0.91188000000E+02 0.  0.
    9900012    2    3    3    0    0 -0.93898567171E+00 -0.29532971476E+02  0.21970533949E+02  0.54367048623E+02  0.39999918947E+02 0.  0.
        -12    1    3    3    0    0  0.93898567171E+00  0.29532971476E+02 -0.21970533949E+02  0.36820951377E+02  0.00000000000E+00 0.  1.
         11    1    4    4    0    0  0.49624564000E+01 -0.68835665783E+01  0.14841913214E+02  0.17096544986E+02  0.51100000000E-03 0. -1.
        -11    1    4    4    0    0 -0.14170981663E+02 -0.19435275380E+02  0.12285061740E+02  0.27008691057E+02  0.51100000000E-03 0.  1.
        -12    1    4    4    0    0  0.82695395911E+01 -0.32141295172E+01 -0.51564410048E+01  0.10261812581E+02  0.00000000000E+00 0.  1.
</event>
<event>
 8    1  0.1240174E-006  0.9118800E+02  0.7816164E-02  0.1184000E+00
        -11   -1    0    0    0    0  0.00000000000E+00  0.00000000000E+00  0.45593999997E+02  0.45594000000E+02  0.51100000000E-03 0.  1.
         11   -1    0    0    0    0 -0.00000000000E+00 -0.00000000000E+00 -0.45593999997E+02  0.45594000000E+02  0.51100000000E-03 0. -1.
         23    2    1    2    0    0  0.00000000000E+00  0.35527136788E-14  0.00000000000E+00  0.91188000000E+02  0.91188000000E+02 0.  0.
    9900012    2    3    3    0    0  0.21202797819E+02  0.21730686726E+02  0.20832627105E+02  0.54367085657E+02  0.40000003373E+02 0.  0.
         12    1    3    3    0    0 -0.21202797819E+02 -0.21730686726E+02 -0.20832627105E+02  0.36820914343E+02  0.00000000000E+00 0. -1.
         11    1    4    4    0    0  0.11426204195E+02  0.11301838266E+01  0.18931654421E+01  0.11636989879E+02  0.51100000000E-03 0. -1.
        -11    1    4    4    0    0  0.19268354462E+02  0.19552922625E+02  0.18628948439E+02  0.33175653528E+02  0.51100000000E-03 0.  1.
         12    1    4    4    0    0 -0.94917608384E+01  0.10475802747E+01  0.31051322434E+00  0.95544422499E+01  0.00000000000E+00 0. -1.
</event>
<event>
 8    1  0.1240174E-006  0.9118800E+02  0.7816164E-02  0.1184000E+00
        -11   -1    0    0    0    0  0.00000000000E+00  0.00000000000E+00  0.45593999997E+02  0.45594000000E+02  0.51100000000E-03 0.  1.
         11   -1    0    0    0    0 -0.00000000000E+00 -0.00000000000E+00 -0.45593999997E+02  0.45594000000E+02  0.51100000000E-03 0. -1.
         23    2    1    2    0    0  0.00000000000E+00  0.00000000000E+00  0.00000000000E+00  0.91188000000E+02  0.91188000000E+02 0.  0.
    9900012    2    3    3    0    0 -0.40034143695E+01  0.34716157917E+02 -0.11599166004E+02  0.54367087476E+02  0.40000007518E+02 0.  0.
         12    1    3    3    0    0  0.40034143695E+01 -0.34716157917E+02  0.11599166004E+02  0.36820912524E+02  0.00000000000E+00 0. -1.
         11    1    4    4    0    0 -0.84649641797E+01  0.60491353226E+01 -0.95863513906E+01  0.14147289138E+02  0.51100000000E-03 0. -1.
        -11    1    4    4    0    0  0.86625317475E+00  0.20028825515E+02  0.12004285795E+02  0.23366795326E+02  0.51100000000E-03 0.  1.
         12    1    4    4    0    0  0.35952966354E+01  0.86381970792E+01 -0.14017100408E+02  0.16853003012E+02  0.00000000000E+00 0. -1.
</event>
<event>
 8    1  0.1240174E-006  0.9118800E+02  0.7816164E-02  0.1184000E+00
        -11   -1    0    0    0    0  0.00000000000E+00  0.00000000000E+00  0.45593999997E+02  0.45594000000E+02  0.51100000000E-03 0. -1.
         11   -1    0    0    0    0 -0.00000000000E+00 -0.00000000000E+00 -0.45593999997E+02  0.45594000000E+02  0.51100000000E-03 0.  1.
         23    2    1    2    0    0  0.00000000000E+00  0.00000000000E+00 -0.17763568394E-14  0.91188000000E+02  0.91188000000E+02 0.  0.
    9900012    2    3    3    0    0  0.35184012751E+02 -0.60342036330E+01 -0.90251082759E+01  0.54367096343E+02  0.40000027733E+02 0.  0.
         12    1    3    3    0    0 -0.35184012751E+02  0.60342036330E+01  0.90251082759E+01  0.36820903657E+02  0.00000000000E+00 0. -1.
         11    1    4    4    0    0  0.75667357274E+01  0.75813102960E+01 -0.28278455060E+01  0.11078288037E+02  0.51100000000E-03 0. -1.
        -11    1    4    4    0    0  0.24911372649E+02 -0.19175738511E+02 -0.13068193053E+02  0.34045015856E+02  0.51100000000E-03 0.  1.
        -12    1    4    4    0    0  0.27059043747E+01  0.55602245822E+01  0.68709302835E+01  0.92437924496E+01  0.00000000000E+00 0.  1.
</event>
<event>
 8    1  0.1240174E-006  0.9118800E+02  0.7816164E-02  0.1184000E+00
        -11   -1    0    0    0    0  0.00000000000E+00  0.00000000000E+00  0.45593999997E+02  0.45594000000E+02  0.51100000000E-03 0. -1.
         11   -1    0    0    0    0 -0.00000000000E+00 -0.00000000000E+00 -0.45593999997E+02  0.45594000000E+02  0.51100000000E-03 0.  1.
         23    2    1    2    0    0  0.71054273576E-14  0.00000000000E+00 -0.17763568394E-14  0.91188000000E+02  0.91188000000E+02 0.  0.
    9900012    2    3    3    0    0 -0.27193765299E+02  0.23435826526E+02 -0.81878883387E+01  0.54367077259E+02  0.39999984227E+02 0.  0.
         12    1    3    3    0    0  0.27193765299E+02 -0.23435826526E+02  0.81878883387E+01  0.36820922741E+02  0.00000000000E+00 0. -1.
         11    1    4    4    0    0  0.26302699243E+01  0.22691793379E+00  0.26771017277E+01  0.37598783950E+01  0.51100000000E-03 0. -1.
        -11    1    4    4    0    0  0.21475854842E+01 -0.57687776967E+01 -0.19855992799E+00  0.61587617126E+01  0.51100000000E-03 0.  1.
        -12    1    4    4    0    0 -0.31971620707E+02  0.28977686289E+02 -0.10666430138E+02  0.44448437151E+02  0.00000000000E+00 0.  1.
</event>
<event>
 8    1  0.1240174E-006  0.9118800E+02  0.7816164E-02  0.1184000E+00
        -11   -1    0    0    0    0  0.00000000000E+00  0.00000000000E+00  0.45593999997E+02  0.45594000000E+02  0.51100000000E-03 0. -1.
         11   -1    0    0    0    0 -0.00000000000E+00 -0.00000000000E+00 -0.45593999997E+02  0.45594000000E+02  0.51100000000E-03 0.  1.
         23    2    1    2    0    0  0.71054273576E-14  0.35527136788E-14  0.17763568394E-14  0.91188000000E+02  0.91188000000E+02 0.  0.
    9900012    2    3    3    0    0 -0.23881428940E+02 -0.27480835091E+02 -0.55009659770E+01  0.54367087841E+02  0.40000008352E+02 0.  0.
         12    1    3    3    0    0  0.23881428940E+02  0.27480835091E+02  0.55009659770E+01  0.36820912159E+02  0.00000000000E+00 0. -1.
         11    1    4    4    0    0  0.23789166348E+00 -0.15753349028E+02  0.77639823712E+01  0.17564282523E+02  0.51100000000E-03 0. -1.
        -11    1    4    4    0    0  0.11651332467E+01 -0.75888453770E+01  0.54488226083E+00  0.76970777947E+01  0.51100000000E-03 0.  1.
        -12    1    4    4    0    0 -0.25284453850E+02 -0.41386406862E+01 -0.13809830609E+02  0.29105727523E+02  0.00000000000E+00 0.  1.
</event>
<event>
 8    1  0.1240174E-006  0.9118800E+02  0.7816164E-02  0.1184000E+00
        -11   -1    0    0    0    0  0.00000000000E+00  0.00000000000E+00  0.45593999997E+02  0.45594000000E+02  0.51100000000E-03 0.  1.
         11   -1    0    0    0    0 -0.00000000000E+00 -0.00000000000E+00 -0.45593999997E+02  0.45594000000E+02  0.51100000000E-03 0. -1.
         23    2    1    2    0    0  0.35527136788E-14  0.35527136788E-14  0.00000000000E+00  0.91188000000E+02  0.91188000000E+02 0.  0.
    9900012    2    3    3    0    0 -0.25976271111E+02 -0.23628690191E+02 -0.11077027221E+02  0.54367052252E+02  0.39999927219E+02 0.  0.
         12    1    3    3    0    0  0.25976271111E+02  0.23628690191E+02  0.11077027221E+02  0.36820947748E+02  0.00000000000E+00 0. -1.
         11    1    4    4    0    0  0.51549227987E+01 -0.60162179586E+00 -0.24462872570E+01  0.57375516948E+01  0.51100000000E-03 0. -1.
        -11    1    4    4    0    0 -0.25743805634E+02 -0.35205743193E+01  0.14441381047E+01  0.26023518347E+02  0.51100000000E-03 0.  1.
        -12    1    4    4    0    0 -0.53873882762E+01 -0.19506494076E+02 -0.10074878069E+02  0.22605982210E+02  0.00000000000E+00 0.  1.
</event>
<event>
 8    1  0.1240174E-006  0.9118800E+02  0.7816164E-02  0.1184000E+00
        -11   -1    0    0    0    0  0.00000000000E+00  0.00000000000E+00  0.45593999997E+02  0.45594000000E+02  0.51100000000E-03 0.  1.
         11   -1    0    0    0    0 -0.00000000000E+00 -0.00000000000E+00 -0.45593999997E+02  0.45594000000E+02  0.51100000000E-03 0. -1.
         23    2    1    2    0    0  0.88817841970E-15 -0.10658141036E-13 -0.71054273576E-14  0.91188000000E+02  0.91188000000E+02 0.  0.
    9900012    2    3    3    0    0  0.60772736852E+01 -0.31694005188E+02 -0.17729541481E+02  0.54367083914E+02  0.39999999398E+02 0.  0.
        -12    1    3    3    0    0 -0.60772736852E+01  0.31694005188E+02  0.17729541481E+02  0.36820916086E+02  0.00000000000E+00 0.  1.
         11    1    4    4    0    0 -0.24169068682E+01 -0.28800363748E+02 -0.24975470996E+02  0.38197860444E+02  0.51100000000E-03 0. -1.
        -11    1    4    4    0    0  0.81127711484E+01 -0.16814463283E+01 -0.51858890824E+00  0.83014006155E+01  0.51100000000E-03 0.  1.
        -12    1    4    4    0    0  0.38140940496E+00 -0.12121951119E+01  0.77645184228E+01  0.78678228540E+01  0.00000000000E+00 0.  1.
</event>
<event>
 8    1  0.1240174E-006  0.9118800E+02  0.7816164E-02  0.1184000E+00
        -11   -1    0    0    0    0  0.00000000000E+00  0.00000000000E+00  0.45593999997E+02  0.45594000000E+02  0.51100000000E-03 0. -1.
         11   -1    0    0    0    0 -0.00000000000E+00 -0.00000000000E+00 -0.45593999997E+02  0.45594000000E+02  0.51100000000E-03 0.  1.
         23    2    1    2    0    0  0.00000000000E+00  0.17763568394E-14 -0.35527136788E-14  0.91188000000E+02  0.91188000000E+02 0.  0.
    9900012    2    3    3    0    0  0.26450304110E+02  0.13026816394E+02 -0.22055866937E+02  0.54367111917E+02  0.40000063237E+02 0.  0.
         12    1    3    3    0    0 -0.26450304110E+02 -0.13026816394E+02  0.22055866937E+02  0.36820888083E+02  0.00000000000E+00 0. -1.
         11    1    4    4    0    0  0.21474708279E+01  0.12414158319E+02  0.33591546187E+01  0.13038668557E+02  0.51100000000E-03 0. -1.
        -11    1    4    4    0    0  0.69887354308E+00  0.57052822277E+01  0.66495001876E+00  0.57862620331E+01  0.51100000000E-03 0.  1.
        -12    1    4    4    0    0  0.23603959739E+02 -0.50926241535E+01 -0.26079971574E+02  0.35542181327E+02  0.00000000000E+00 0.  1.
</event>
<event>
 8    1  0.1240174E-006  0.9118800E+02  0.7816164E-02  0.1184000E+00
        -11   -1    0    0    0    0  0.00000000000E+00  0.00000000000E+00  0.45593999997E+02  0.45594000000E+02  0.51100000000E-03 0. -1.
         11   -1    0    0    0    0 -0.00000000000E+00 -0.00000000000E+00 -0.45593999997E+02  0.45594000000E+02  0.51100000000E-03 0.  1.
         23    2    1    2    0    0  0.00000000000E+00  0.00000000000E+00  0.35527136788E-14  0.91188000000E+02  0.91188000000E+02 0.  0.
    9900012    2    3    3    0    0 -0.10136276706E+02 -0.16872325566E+02 -0.31118490049E+02  0.54367083411E+02  0.39999998253E+02 0.  0.
         12    1    3    3    0    0  0.10136276706E+02  0.16872325566E+02  0.31118490049E+02  0.36820916589E+02  0.00000000000E+00 0. -1.
         11    1    4    4    0    0 -0.64286526367E+01  0.38583396995E+01  0.16649118142E+01  0.76802533533E+01  0.51100000000E-03 0. -1.
        -11    1    4    4    0    0  0.54244337640E+01 -0.19818726390E+02 -0.11588388602E+02  0.23590191776E+02  0.51100000000E-03 0.  1.
        -12    1    4    4    0    0 -0.91320578335E+01 -0.91193887611E+00 -0.21195013261E+02  0.23096638282E+02  0.00000000000E+00 0.  1.
</event>
<event>
 8    1  0.1240174E-006  0.9118800E+02  0.7816164E-02  0.1184000E+00
        -11   -1    0    0    0    0  0.00000000000E+00  0.00000000000E+00  0.45593999997E+02  0.45594000000E+02  0.51100000000E-03 0.  1.
         11   -1    0    0    0    0 -0.00000000000E+00 -0.00000000000E+00 -0.45593999997E+02  0.45594000000E+02  0.51100000000E-03 0. -1.
         23    2    1    2    0    0 -0.17763568394E-14  0.00000000000E+00  0.35527136788E-14  0.91188000000E+02  0.91188000000E+02 0.  0.
    9900012    2    3    3    0    0  0.48493618967E+01  0.24090411857E+02  0.27421069715E+02  0.54367091286E+02  0.40000016204E+02 0.  0.
         12    1    3    3    0    0 -0.48493618967E+01 -0.24090411857E+02 -0.27421069715E+02  0.36820908714E+02  0.00000000000E+00 0. -1.
         11    1    4    4    0    0  0.94004406580E+01  0.21238299631E+02  0.10669644760E+02  0.25559244420E+02  0.51100000000E-03 0. -1.
        -11    1    4    4    0    0  0.37634282593E+01  0.20253884179E+01  0.19537960133E+02  0.19999936923E+02  0.51100000000E-03 0.  1.
         12    1    4    4    0    0 -0.83145070206E+01  0.82672380789E+00 -0.27865351780E+01  0.88079099421E+01  0.00000000000E+00 0. -1.
</event>
<event>
 8    1  0.1240174E-006  0.9118800E+02  0.7816164E-02  0.1184000E+00
        -11   -1    0    0    0    0  0.00000000000E+00  0.00000000000E+00  0.45593999997E+02  0.45594000000E+02  0.51100000000E-03 0.  1.
         11   -1    0    0    0    0 -0.00000000000E+00 -0.00000000000E+00 -0.45593999997E+02  0.45594000000E+02  0.51100000000E-03 0. -1.
         23    2    1    2    0    0  0.44408920985E-15  0.00000000000E+00  0.00000000000E+00  0.91188000000E+02  0.91188000000E+02 0.  0.
    9900012    2    3    3    0    0 -0.28145433278E+01  0.32924266045E+02  0.16243513908E+02  0.54367072624E+02  0.39999973660E+02 0.  0.
         12    1    3    3    0    0  0.28145433278E+01 -0.32924266045E+02 -0.16243513908E+02  0.36820927376E+02  0.00000000000E+00 0. -1.
         11    1    4    4    0    0  0.18985643472E+01 -0.95969043631E+00  0.98828261555E+01  0.10109194102E+02  0.51100000000E-03 0. -1.
        -11    1    4    4    0    0 -0.12933416162E+02  0.27039437324E+02  0.11854853623E+02  0.32232622901E+02  0.51100000000E-03 0.  1.
         12    1    4    4    0    0  0.82203084872E+01  0.68445191576E+01 -0.54941658699E+01  0.12025255620E+02  0.00000000000E+00 0. -1.
</event>
<event>
 8    1  0.1240174E-006  0.9118800E+02  0.7816164E-02  0.1184000E+00
        -11   -1    0    0    0    0  0.00000000000E+00  0.00000000000E+00  0.45593999997E+02  0.45594000000E+02  0.51100000000E-03 0.  1.
         11   -1    0    0    0    0 -0.00000000000E+00 -0.00000000000E+00 -0.45593999997E+02  0.45594000000E+02  0.51100000000E-03 0. -1.
         23    2    1    2    0    0  0.00000000000E+00  0.66613381478E-15  0.00000000000E+00  0.91188000000E+02  0.91188000000E+02 0.  0.
    9900012    2    3    3    0    0 -0.27557333332E+02 -0.84266263733E+00  0.24406215380E+02  0.54367081355E+02  0.39999993565E+02 0.  0.
         12    1    3    3    0    0  0.27557333332E+02  0.84266263733E+00 -0.24406215380E+02  0.36820918645E+02  0.00000000000E+00 0. -1.
         11    1    4    4    0    0 -0.16168042375E+01 -0.18585645408E+01  0.86130428059E+00  0.26096289812E+01  0.51100000000E-03 0. -1.
        -11    1    4    4    0    0 -0.34110078286E+01 -0.11874715230E+02  0.22632059646E+02  0.25784762172E+02  0.51100000000E-03 0.  1.
         12    1    4    4    0    0 -0.22529521266E+02  0.12890617133E+02  0.91285145283E+00  0.25972690202E+02  0.00000000000E+00 0. -1.
</event>
<event>
 8    1  0.1240174E-006  0.9118800E+02  0.7816164E-02  0.1184000E+00
        -11   -1    0    0    0    0  0.00000000000E+00  0.00000000000E+00  0.45593999997E+02  0.45594000000E+02  0.51100000000E-03 0. -1.
         11   -1    0    0    0    0 -0.00000000000E+00 -0.00000000000E+00 -0.45593999997E+02  0.45594000000E+02  0.51100000000E-03 0.  1.
         23    2    1    2    0    0  0.00000000000E+00  0.00000000000E+00  0.35527136788E-14  0.91188000000E+02  0.91188000000E+02 0.  0.
    9900012    2    3    3    0    0 -0.14277967414E+02 -0.18266559487E+02 -0.28605097451E+02  0.54367093586E+02  0.40000021448E+02 0.  0.
         12    1    3    3    0    0  0.14277967414E+02  0.18266559487E+02  0.28605097451E+02  0.36820906414E+02  0.00000000000E+00 0. -1.
         11    1    4    4    0    0 -0.16359672834E+02 -0.30780596546E+01 -0.13192293703E+02  0.21240290956E+02  0.51100000000E-03 0. -1.
        -11    1    4    4    0    0  0.44039147418E+01 -0.59357097763E+01 -0.20867466387E+02  0.22137711473E+02  0.51100000000E-03 0.  1.
         12    1    4    4    0    0 -0.23222093214E+01 -0.92527900560E+01  0.54546626391E+01  0.10989091157E+02  0.00000000000E+00 0. -1.
</event>
<event>
 8    1  0.1240174E-006  0.9118800E+02  0.7816164E-02  0.1184000E+00
        -11   -1    0    0    0    0  0.00000000000E+00  0.00000000000E+00  0.45593999997E+02  0.45594000000E+02  0.51100000000E-03 0.  1.
         11   -1    0    0    0    0 -0.00000000000E+00 -0.00000000000E+00 -0.45593999997E+02  0.45594000000E+02  0.51100000000E-03 0. -1.
         23    2    1    2    0    0  0.00000000000E+00 -0.88817841970E-15  0.00000000000E+00  0.91188000000E+02  0.91188000000E+02 0.  0.
    9900012    2    3    3    0    0 -0.98483637760E+01  0.60459578768E+01  0.34960484857E+02  0.54367090490E+02  0.40000014390E+02 0.  0.
         12    1    3    3    0    0  0.98483637760E+01 -0.60459578768E+01 -0.34960484857E+02  0.36820909510E+02  0.00000000000E+00 0. -1.
         11    1    4    4    0    0 -0.18577033044E+01  0.12585335695E+02  0.14757052531E+02  0.19483642775E+02  0.51100000000E-03 0. -1.
        -11    1    4    4    0    0 -0.85161763736E+01  0.67914807578E+01  0.18452741133E+02  0.21427858654E+02  0.51100000000E-03 0.  1.
        -12    1    4    4    0    0  0.52551590195E+00 -0.13330858576E+02  0.17506911932E+01  0.13455589061E+02  0.00000000000E+00 0.  1.
</event>
<event>
 8    1  0.1240174E-006  0.9118800E+02  0.7816164E-02  0.1184000E+00
        -11   -1    0    0    0    0  0.00000000000E+00  0.00000000000E+00  0.45593999997E+02  0.45594000000E+02  0.51100000000E-03 0. -1.
         11   -1    0    0    0    0 -0.00000000000E+00 -0.00000000000E+00 -0.45593999997E+02  0.45594000000E+02  0.51100000000E-03 0.  1.
         23    2    1    2    0    0 -0.35527136788E-14  0.35527136788E-14 -0.35527136788E-14  0.91188000000E+02  0.91188000000E+02 0.  0.
    9900012    2    3    3    0    0 -0.25298402873E+02  0.15562070474E+02 -0.21762220403E+02  0.54367062176E+02  0.39999949842E+02 0.  0.
         12    1    3    3    0    0  0.25298402873E+02 -0.15562070474E+02  0.21762220403E+02  0.36820937824E+02  0.00000000000E+00 0. -1.
         11    1    4    4    0    0  0.41696077879E+00 -0.91739843667E+01  0.16766914430E+01  0.93352632479E+01  0.51100000000E-03 0. -1.
        -11    1    4    4    0    0 -0.18744953756E+02  0.96480619452E+01 -0.86616567644E+01  0.22792162881E+02  0.51100000000E-03 0.  1.
        -12    1    4    4    0    0 -0.69704098959E+01  0.15087992896E+02 -0.14777255082E+02  0.22239636047E+02  0.00000000000E+00 0.  1.
</event>
<event>
 8    1  0.1240174E-006  0.9118800E+02  0.7816164E-02  0.1184000E+00
        -11   -1    0    0    0    0  0.00000000000E+00  0.00000000000E+00  0.45593999997E+02  0.45594000000E+02  0.51100000000E-03 0.  1.
         11   -1    0    0    0    0 -0.00000000000E+00 -0.00000000000E+00 -0.45593999997E+02  0.45594000000E+02  0.51100000000E-03 0. -1.
         23    2    1    2    0    0  0.88817841970E-15  0.00000000000E+00 -0.35527136788E-14  0.91188000000E+02  0.91188000000E+02 0.  0.
    9900012    2    3    3    0    0 -0.53889836371E+01  0.17999241950E+02  0.31666485525E+02  0.54367079847E+02  0.39999990128E+02 0.  0.
         12    1    3    3    0    0  0.53889836371E+01 -0.17999241950E+02 -0.31666485525E+02  0.36820920153E+02  0.00000000000E+00 0. -1.
         11    1    4    4    0    0 -0.43731774227E+01  0.11506295283E+01  0.19484495484E+01  0.49239298316E+01  0.51100000000E-03 0. -1.
        -11    1    4    4    0    0 -0.89864045570E+01 -0.45545297308E+01  0.23807817392E+02  0.25851719036E+02  0.51100000000E-03 0.  1.
        -12    1    4    4    0    0  0.79705983427E+01  0.21403142152E+02  0.59102185846E+01  0.23591430979E+02  0.00000000000E+00 0.  1.
</event>
<event>
 8    1  0.1240174E-006  0.9118800E+02  0.7816164E-02  0.1184000E+00
        -11   -1    0    0    0    0  0.00000000000E+00  0.00000000000E+00  0.45593999997E+02  0.45594000000E+02  0.51100000000E-03 0. -1.
         11   -1    0    0    0    0 -0.00000000000E+00 -0.00000000000E+00 -0.45593999997E+02  0.45594000000E+02  0.51100000000E-03 0.  1.
         23    2    1    2    0    0  0.00000000000E+00  0.00000000000E+00 -0.17763568394E-14  0.91188000000E+02  0.91188000000E+02 0.  0.
    9900012    2    3    3    0    0  0.11525409984E+02 -0.32382944722E+02  0.13201897203E+02  0.54367078312E+02  0.39999986629E+02 0.  0.
        -12    1    3    3    0    0 -0.11525409984E+02  0.32382944722E+02 -0.13201897203E+02  0.36820921688E+02  0.00000000000E+00 0.  1.
         11    1    4    4    0    0  0.38648621107E+01 -0.29152157955E+02  0.68251271838E+01  0.30188869371E+02  0.51100000000E-03 0. -1.
        -11    1    4    4    0    0 -0.50950980681E+01  0.10634928438E-01 -0.47335445204E+01  0.69546086456E+01  0.51100000000E-03 0.  1.
         12    1    4    4    0    0  0.12755645941E+02 -0.32414216957E+01  0.11110314540E+02  0.17223600296E+02  0.00000000000E+00 0. -1.
</event>
<event>
 8    1  0.1240174E-006  0.9118800E+02  0.7816164E-02  0.1184000E+00
        -11   -1    0    0    0    0  0.00000000000E+00  0.00000000000E+00  0.45593999997E+02  0.45594000000E+02  0.51100000000E-03 0.  1.
         11   -1    0    0    0    0 -0.00000000000E+00 -0.00000000000E+00 -0.45593999997E+02  0.45594000000E+02  0.51100000000E-03 0. -1.
         23    2    1    2    0    0  0.35527136788E-14  0.00000000000E+00  0.00000000000E+00  0.91188000000E+02  0.91188000000E+02 0.  0.
    9900012    2    3    3    0    0  0.18844180253E+02 -0.13062486770E+02  0.28810572421E+02  0.54367071532E+02  0.39999971171E+02 0.  0.
         12    1    3    3    0    0 -0.18844180253E+02  0.13062486770E+02 -0.28810572421E+02  0.36820928468E+02  0.00000000000E+00 0. -1.
         11    1    4    4    0    0  0.64222440424E+01 -0.10430532784E+02 -0.45152222564E+01  0.13054825352E+02  0.51100000000E-03 0. -1.
        -11    1    4    4    0    0  0.17418760877E+02 -0.33767288639E+01  0.18428968118E+02  0.25582071739E+02  0.51100000000E-03 0.  1.
         12    1    4    4    0    0 -0.49968246668E+01  0.74477487770E+00  0.14896826560E+02  0.15730174440E+02  0.00000000000E+00 0. -1.
</event>
<event>
 8    1  0.1240174E-006  0.9118800E+02  0.7816164E-02  0.1184000E+00
        -11   -1    0    0    0    0  0.00000000000E+00  0.00000000000E+00  0.45593999997E+02  0.45594000000E+02  0.51100000000E-03 0. -1.
         11   -1    0    0    0    0 -0.00000000000E+00 -0.00000000000E+00 -0.45593999997E+02  0.45594000000E+02  0.51100000000E-03 0.  1.
         23    2    1    2    0    0  0.00000000000E+00  0.00000000000E+00  0.00000000000E+00  0.91188000000E+02  0.91188000000E+02 0.  0.
    9900012    2    3    3    0    0  0.16631678413E+02  0.21902587387E+02  0.24483547413E+02  0.54367079927E+02  0.39999990309E+02 0.  0.
        -12    1    3    3    0    0 -0.16631678413E+02 -0.21902587387E+02 -0.24483547413E+02  0.36820920073E+02  0.00000000000E+00 0.  1.
         11    1    4    4    0    0  0.13702203481E+02  0.45515502701E+01  0.18905281953E+02  0.23788162520E+02  0.51100000000E-03 0. -1.
        -11    1    4    4    0    0  0.41167098253E+01 -0.17881590104E+01 -0.65125864966E+01  0.79093991914E+01  0.51100000000E-03 0.  1.
         12    1    4    4    0    0 -0.11872348924E+01  0.19139196127E+02  0.12090851957E+02  0.22669518216E+02  0.00000000000E+00 0. -1.
</event>
<event>
 8    1  0.1240174E-006  0.9118800E+02  0.7816164E-02  0.1184000E+00
        -11   -1    0    0    0    0  0.00000000000E+00  0.00000000000E+00  0.45593999997E+02  0.45594000000E+02  0.51100000000E-03 0.  1.
         11   -1    0    0    0    0 -0.00000000000E+00 -0.00000000000E+00 -0.45593999997E+02  0.45594000000E+02  0.51100000000E-03 0. -1.
         23    2    1    2    0    0  0.00000000000E+00  0.00000000000E+00  0.00000000000E+00  0.91188000000E+02  0.91188000000E+02 0.  0.
    9900012    2    3    3    0    0  0.34070742832E+01  0.35547382149E+02 -0.89752569689E+01  0.54367085149E+02  0.40000002215E+02 0.  0.
        -12    1    3    3    0    0 -0.34070742832E+01 -0.35547382149E+02  0.89752569689E+01  0.36820914851E+02  0.00000000000E+00 0.  1.
         11    1    4    4    0    0  0.35637823024E+01  0.25588164813E+02 -0.41742389202E+01  0.26170192846E+02  0.51100000000E-03 0. -1.
        -11    1    4    4    0    0 -0.23945973149E+01 -0.36904662912E+01  0.81415007004E+01  0.92540624410E+01  0.51100000000E-03 0.  1.
         12    1    4    4    0    0  0.22378892957E+01  0.13649683627E+02 -0.12942518749E+02  0.18942829862E+02  0.00000000000E+00 0. -1.
</event>
<event>
 8    1  0.1240174E-006  0.9118800E+02  0.7816164E-02  0.1184000E+00
        -11   -1    0    0    0    0  0.00000000000E+00  0.00000000000E+00  0.45593999997E+02  0.45594000000E+02  0.51100000000E-03 0.  1.
         11   -1    0    0    0    0 -0.00000000000E+00 -0.00000000000E+00 -0.45593999997E+02  0.45594000000E+02  0.51100000000E-03 0. -1.
         23    2    1    2    0    0 -0.17763568394E-14  0.17763568394E-14 -0.71054273576E-14  0.91188000000E+02  0.91188000000E+02 0.  0.
    9900012    2    3    3    0    0  0.12366184008E+02 -0.12469020581E+02  0.32363253580E+02  0.54367093392E+02  0.40000021006E+02 0.  0.
         12    1    3    3    0    0 -0.12366184008E+02  0.12469020581E+02 -0.32363253580E+02  0.36820906608E+02  0.00000000000E+00 0. -1.
         11    1    4    4    0    0  0.16252254182E+02 -0.35467831245E+01 -0.34166022452E+01  0.16982008353E+02  0.51100000000E-03 0. -1.
        -11    1    4    4    0    0 -0.47122237778E+01 -0.85646409817E+01  0.30476345059E+02  0.32005714123E+02  0.51100000000E-03 0.  1.
         12    1    4    4    0    0  0.82615360423E+00 -0.35759647469E+00  0.53035107655E+01  0.53793709164E+01  0.00000000000E+00 0. -1.
</event>
<event>
 8    1  0.1240174E-006  0.9118800E+02  0.7816164E-02  0.1184000E+00
        -11   -1    0    0    0    0  0.00000000000E+00  0.00000000000E+00  0.45593999997E+02  0.45594000000E+02  0.51100000000E-03 0. -1.
         11   -1    0    0    0    0 -0.00000000000E+00 -0.00000000000E+00 -0.45593999997E+02  0.45594000000E+02  0.51100000000E-03 0.  1.
         23    2    1    2    0    0 -0.17763568394E-14 -0.88817841970E-15  0.00000000000E+00  0.91188000000E+02  0.91188000000E+02 0.  0.
    9900012    2    3    3    0    0 -0.10735927469E+02  0.69207805365E+01 -0.34534339907E+02  0.54367109534E+02  0.40000057806E+02 0.  0.
         12    1    3    3    0    0  0.10735927469E+02 -0.69207805365E+01  0.34534339907E+02  0.36820890466E+02  0.00000000000E+00 0. -1.
         11    1    4    4    0    0  0.11211584722E+02 -0.81679859052E+01 -0.12344588414E+02  0.18568911899E+02  0.51100000000E-03 0.  1.
        -11    1    4    4    0    0 -0.12835249160E+02  0.49159865503E+01 -0.15070466534E+02  0.20396801381E+02  0.51100000000E-03 0. -1.
         12    1    4    4    0    0 -0.91122630307E+01  0.10172779891E+02 -0.71192849586E+01  0.15401396254E+02  0.00000000000E+00 0. -1.
</event>
<event>
 8    1  0.1240174E-006  0.9118800E+02  0.7816164E-02  0.1184000E+00
        -11   -1    0    0    0    0  0.00000000000E+00  0.00000000000E+00  0.45593999997E+02  0.45594000000E+02  0.51100000000E-03 0.  1.
         11   -1    0    0    0    0 -0.00000000000E+00 -0.00000000000E+00 -0.45593999997E+02  0.45594000000E+02  0.51100000000E-03 0. -1.
         23    2    1    2    0    0  0.00000000000E+00  0.24424906542E-14  0.00000000000E+00  0.91188000000E+02  0.91188000000E+02 0.  0.
    9900012    2    3    3    0    0  0.36238008027E+02  0.54963447843E+00 -0.65027360102E+01  0.54367069818E+02  0.39999967264E+02 0.  0.
         12    1    3    3    0    0 -0.36238008027E+02 -0.54963447843E+00  0.65027360102E+01  0.36820930182E+02  0.00000000000E+00 0. -1.
         11    1    4    4    0    0  0.15632853729E+02 -0.61363526018E+01 -0.26751972526E+01  0.17005811347E+02  0.51100000000E-03 0. -1.
        -11    1    4    4    0    0  0.22946176137E+02  0.14697241000E+02 -0.74698760372E+01  0.28254821546E+02  0.51100000000E-03 0.  1.
        -12    1    4    4    0    0 -0.23410218392E+01 -0.80112539194E+01  0.36423372796E+01  0.91064369251E+01  0.00000000000E+00 0.  1.
</event>
<event>
 8    1  0.1240174E-006  0.9118800E+02  0.7816164E-02  0.1184000E+00
        -11   -1    0    0    0    0  0.00000000000E+00  0.00000000000E+00  0.45593999997E+02  0.45594000000E+02  0.51100000000E-03 0.  1.
         11   -1    0    0    0    0 -0.00000000000E+00 -0.00000000000E+00 -0.45593999997E+02  0.45594000000E+02  0.51100000000E-03 0. -1.
         23    2    1    2    0    0 -0.26645352591E-14  0.00000000000E+00  0.71054273576E-14  0.91188000000E+02  0.91188000000E+02 0.  0.
    9900012    2    3    3    0    0 -0.45000121673E+01  0.11679368451E+02  0.34628348060E+02  0.54367078688E+02  0.39999987484E+02 0.  0.
         12    1    3    3    0    0  0.45000121673E+01 -0.11679368451E+02 -0.34628348060E+02  0.36820921312E+02  0.00000000000E+00 0. -1.
         11    1    4    4    0    0 -0.31431860842E+01 -0.10450523601E+01 -0.17755667518E+01  0.37582430399E+01  0.51100000000E-03 0. -1.
        -11    1    4    4    0    0  0.15619319931E+02  0.55143625749E+01  0.19556383283E+02  0.25628567597E+02  0.51100000000E-03 0.  1.
         12    1    4    4    0    0 -0.16976146014E+02  0.72100582365E+01  0.16847531529E+02  0.24980268050E+02  0.00000000000E+00 0. -1.
</event>
<event>
 8    1  0.1240174E-006  0.9118800E+02  0.7816164E-02  0.1184000E+00
        -11   -1    0    0    0    0  0.00000000000E+00  0.00000000000E+00  0.45593999997E+02  0.45594000000E+02  0.51100000000E-03 0. -1.
         11   -1    0    0    0    0 -0.00000000000E+00 -0.00000000000E+00 -0.45593999997E+02  0.45594000000E+02  0.51100000000E-03 0.  1.
         23    2    1    2    0    0  0.35527136788E-14  0.00000000000E+00  0.35527136788E-14  0.91188000000E+02  0.91188000000E+02 0.  0.
    9900012    2    3    3    0    0 -0.29575658894E+02 -0.43514616555E+01  0.21497114019E+02  0.54367072137E+02  0.39999972551E+02 0.  0.
        -12    1    3    3    0    0  0.29575658894E+02  0.43514616555E+01 -0.21497114019E+02  0.36820927863E+02  0.00000000000E+00 0.  1.
         11    1    4    4    0    0  0.19563287864E+01 -0.33634142070E+01  0.61064941974E+01  0.72407906400E+01  0.51100000000E-03 0. -1.
        -11    1    4    4    0    0 -0.20001902063E+01 -0.89613575294E+01 -0.49113926634E+01  0.10412899106E+02  0.51100000000E-03 0.  1.
         12    1    4    4    0    0 -0.29531797474E+02  0.79733100810E+01  0.20302012485E+02  0.36713382391E+02  0.00000000000E+00 0. -1.
</event>
<event>
 8    1  0.1240174E-006  0.9118800E+02  0.7816164E-02  0.1184000E+00
        -11   -1    0    0    0    0  0.00000000000E+00  0.00000000000E+00  0.45593999997E+02  0.45594000000E+02  0.51100000000E-03 0. -1.
         11   -1    0    0    0    0 -0.00000000000E+00 -0.00000000000E+00 -0.45593999997E+02  0.45594000000E+02  0.51100000000E-03 0.  1.
         23    2    1    2    0    0 -0.35527136788E-14  0.00000000000E+00  0.00000000000E+00  0.91188000000E+02  0.91188000000E+02 0.  0.
    9900012    2    3    3    0    0 -0.17049412892E+02 -0.32092495771E+02 -0.59303950538E+01  0.54367077275E+02  0.39999984264E+02 0.  0.
        -12    1    3    3    0    0  0.17049412892E+02  0.32092495771E+02  0.59303950538E+01  0.36820922725E+02  0.00000000000E+00 0.  1.
         11    1    4    4    0    0 -0.24888395586E+02 -0.24264977887E+02  0.37320153639E+01  0.34959252361E+02  0.51100000000E-03 0. -1.
        -11    1    4    4    0    0  0.15979199210E+01 -0.13409384238E+01 -0.10179953197E+02  0.10391482632E+02  0.51100000000E-03 0.  1.
         12    1    4    4    0    0  0.62410627727E+01 -0.64865794607E+01  0.51754277920E+00  0.90163422828E+01  0.00000000000E+00 0. -1.
</event>
<event>
 8    1  0.1240174E-006  0.9118800E+02  0.7816164E-02  0.1184000E+00
        -11   -1    0    0    0    0  0.00000000000E+00  0.00000000000E+00  0.45593999997E+02  0.45594000000E+02  0.51100000000E-03 0.  1.
         11   -1    0    0    0    0 -0.00000000000E+00 -0.00000000000E+00 -0.45593999997E+02  0.45594000000E+02  0.51100000000E-03 0. -1.
         23    2    1    2    0    0 -0.17763568394E-14  0.35527136788E-14 -0.35527136788E-14  0.91188000000E+02  0.91188000000E+02 0.  0.
    9900012    2    3    3    0    0 -0.34786209181E+01  0.31411772508E+02 -0.18893903371E+02  0.54367084203E+02  0.40000000057E+02 0.  0.
         12    1    3    3    0    0  0.34786209181E+01 -0.31411772508E+02  0.18893903371E+02  0.36820915797E+02  0.00000000000E+00 0. -1.
         11    1    4    4    0    0 -0.36952306463E+01 -0.45373684396E+01 -0.77239996486E+01  0.96903360478E+01  0.51100000000E-03 0. -1.
        -11    1    4    4    0    0  0.10451501298E+02  0.70985165626E+01 -0.27976005901E+01  0.12940223572E+02  0.51100000000E-03 0.  1.
        -12    1    4    4    0    0 -0.10234891570E+02  0.28850624385E+02 -0.83723031320E+01  0.31736524583E+02  0.00000000000E+00 0.  1.
</event>
<event>
 8    1  0.1240174E-006  0.9118800E+02  0.7816164E-02  0.1184000E+00
        -11   -1    0    0    0    0  0.00000000000E+00  0.00000000000E+00  0.45593999997E+02  0.45594000000E+02  0.51100000000E-03 0. -1.
         11   -1    0    0    0    0 -0.00000000000E+00 -0.00000000000E+00 -0.45593999997E+02  0.45594000000E+02  0.51100000000E-03 0.  1.
         23    2    1    2    0    0 -0.17763568394E-14  0.00000000000E+00 -0.17763568394E-14  0.91188000000E+02  0.91188000000E+02 0.  0.
    9900012    2    3    3    0    0 -0.14822272490E+02  0.31945506949E+02 -0.10750013333E+02  0.54367109697E+02  0.40000058177E+02 0.  0.
        -12    1    3    3    0    0  0.14822272490E+02 -0.31945506949E+02  0.10750013333E+02  0.36820890303E+02  0.00000000000E+00 0.  1.
         11    1    4    4    0    0 -0.74795646700E+01  0.16813453616E+02  0.73156679950E+01  0.19802906570E+02  0.51100000000E-03 0. -1.
        -11    1    4    4    0    0 -0.15578866320E+02  0.54237871275E+01 -0.12360317890E+02  0.20613005633E+02  0.51100000000E-03 0.  1.
         12    1    4    4    0    0  0.82361585002E+01  0.97082662056E+01 -0.57053634383E+01  0.13951197494E+02  0.00000000000E+00 0. -1.
</event>
<event>
 8    1  0.1240174E-006  0.9118800E+02  0.7816164E-02  0.1184000E+00
        -11   -1    0    0    0    0  0.00000000000E+00  0.00000000000E+00  0.45593999997E+02  0.45594000000E+02  0.51100000000E-03 0. -1.
         11   -1    0    0    0    0 -0.00000000000E+00 -0.00000000000E+00 -0.45593999997E+02  0.45594000000E+02  0.51100000000E-03 0.  1.
         23    2    1    2    0    0 -0.88817841970E-15 -0.88817841970E-15  0.00000000000E+00  0.91188000000E+02  0.91188000000E+02 0.  0.
    9900012    2    3    3    0    0 -0.44504920852E+01 -0.52854795118E+01  0.36166747465E+02  0.54367125544E+02  0.40000094303E+02 0.  0.
        -12    1    3    3    0    0  0.44504920852E+01  0.52854795118E+01 -0.36166747465E+02  0.36820874456E+02  0.00000000000E+00 0.  1.
         11    1    4    4    0    0  0.99462540328E+01  0.34344993525E+00  0.16877497761E+02  0.19593260527E+02  0.51100000000E-03 0. -1.
        -11    1    4    4    0    0 -0.59934731544E+01 -0.58908305055E+01 -0.45070160753E+01  0.95360787886E+01  0.51100000000E-03 0.  1.
        -12    1    4    4    0    0 -0.84032729637E+01  0.26190105844E+00  0.23796265779E+02  0.25237786228E+02  0.00000000000E+00 0.  1.
</event>
<event>
 8    1  0.1240174E-006  0.9118800E+02  0.7816164E-02  0.1184000E+00
        -11   -1    0    0    0    0  0.00000000000E+00  0.00000000000E+00  0.45593999997E+02  0.45594000000E+02  0.51100000000E-03 0.  1.
         11   -1    0    0    0    0 -0.00000000000E+00 -0.00000000000E+00 -0.45593999997E+02  0.45594000000E+02  0.51100000000E-03 0. -1.
         23    2    1    2    0    0  0.00000000000E+00  0.00000000000E+00  0.00000000000E+00  0.91188000000E+02  0.91188000000E+02 0.  0.
    9900012    2    3    3    0    0  0.15942279676E+02 -0.69382819666E+01  0.32457418060E+02  0.54367081692E+02  0.39999994333E+02 0.  0.
         12    1    3    3    0    0 -0.15942279676E+02  0.69382819666E+01 -0.32457418060E+02  0.36820918308E+02  0.00000000000E+00 0. -1.
         11    1    4    4    0    0 -0.60790860253E+01  0.53538066578E+01  0.14459002885E+02  0.16573511919E+02  0.51100000000E-03 0. -1.
        -11    1    4    4    0    0  0.53466298325E+01 -0.64915593421E+01 -0.42245062101E+01  0.94113360495E+01  0.51100000000E-03 0.  1.
        -12    1    4    4    0    0  0.16674735869E+02 -0.58005292823E+01  0.22222921385E+02  0.28382233723E+02  0.00000000000E+00 0.  1.
</event>
<event>
 8    1  0.1240174E-006  0.9118800E+02  0.7816164E-02  0.1184000E+00
        -11   -1    0    0    0    0  0.00000000000E+00  0.00000000000E+00  0.45593999997E+02  0.45594000000E+02  0.51100000000E-03 0. -1.
         11   -1    0    0    0    0 -0.00000000000E+00 -0.00000000000E+00 -0.45593999997E+02  0.45594000000E+02  0.51100000000E-03 0.  1.
         23    2    1    2    0    0  0.88817841970E-15  0.00000000000E+00  0.00000000000E+00  0.91188000000E+02  0.91188000000E+02 0.  0.
    9900012    2    3    3    0    0 -0.55888131280E+01 -0.18358981223E+02  0.31424368537E+02  0.54367109711E+02  0.40000058208E+02 0.  0.
        -12    1    3    3    0    0  0.55888131280E+01  0.18358981223E+02 -0.31424368537E+02  0.36820890289E+02  0.00000000000E+00 0.  1.
         11    1    4    4    0    0  0.39600631263E+01 -0.11750356335E+02  0.60397882598E+01  0.13792462305E+02  0.51100000000E-03 0. -1.
        -11    1    4    4    0    0  0.97947317127E+00 -0.15546958401E+02  0.20873857184E+02  0.26045828787E+02  0.51100000000E-03 0.  1.
        -12    1    4    4    0    0 -0.10528349426E+02  0.89383335132E+01  0.45107230940E+01  0.14528818619E+02  0.00000000000E+00 0.  1.
</event>
<event>
 8    1  0.1240174E-006  0.9118800E+02  0.7816164E-02  0.1184000E+00
        -11   -1    0    0    0    0  0.00000000000E+00  0.00000000000E+00  0.45593999997E+02  0.45594000000E+02  0.51100000000E-03 0.  1.
         11   -1    0    0    0    0 -0.00000000000E+00 -0.00000000000E+00 -0.45593999997E+02  0.45594000000E+02  0.51100000000E-03 0. -1.
         23    2    1    2    0    0 -0.35527136788E-14  0.17763568394E-14 -0.35527136788E-14  0.91188000000E+02  0.91188000000E+02 0.  0.
    9900012    2    3    3    0    0  0.29287058132E+02 -0.13842026572E+02  0.17505604962E+02  0.54367086394E+02  0.40000005053E+02 0.  0.
         12    1    3    3    0    0 -0.29287058132E+02  0.13842026572E+02 -0.17505604962E+02  0.36820913606E+02  0.00000000000E+00 0. -1.
         11    1    4    4    0    0  0.12042829329E+01 -0.44062728433E+01 -0.94228065119E+00  0.46640573366E+01  0.51100000000E-03 0. -1.
        -11    1    4    4    0    0  0.16608989371E+02 -0.22556807156E+02  0.15534578738E+02  0.32031097606E+02  0.51100000000E-03 0.  1.
         12    1    4    4    0    0  0.11473785829E+02  0.13121053428E+02  0.29133068760E+01  0.17671931452E+02  0.00000000000E+00 0. -1.
</event>
<event>
 8    1  0.1240174E-006  0.9118800E+02  0.7816164E-02  0.1184000E+00
        -11   -1    0    0    0    0  0.00000000000E+00  0.00000000000E+00  0.45593999997E+02  0.45594000000E+02  0.51100000000E-03 0.  1.
         11   -1    0    0    0    0 -0.00000000000E+00 -0.00000000000E+00 -0.45593999997E+02  0.45594000000E+02  0.51100000000E-03 0. -1.
         23    2    1    2    0    0  0.88817841970E-15  0.00000000000E+00 -0.35527136788E-14  0.91188000000E+02  0.91188000000E+02 0.  0.
    9900012    2    3    3    0    0  0.23467425791E+01  0.24766419164E+02  0.27145825969E+02  0.54367101227E+02  0.40000038867E+02 0.  0.
         12    1    3    3    0    0 -0.23467425791E+01 -0.24766419164E+02 -0.27145825969E+02  0.36820898773E+02  0.00000000000E+00 0. -1.
         11    1    4    4    0    0 -0.10472122286E+02  0.16310886548E+02  0.12993108470E+02  0.23335193017E+02  0.51100000000E-03 0. -1.
        -11    1    4    4    0    0  0.85403714094E+01  0.54053247096E+01 -0.49253901577E+01  0.11243440198E+02  0.51100000000E-03 0.  1.
        -12    1    4    4    0    0  0.42784934560E+01  0.30502079066E+01  0.19078107656E+02  0.19788468012E+02  0.00000000000E+00 0.  1.
</event>
<event>
 8    1  0.1240174E-006  0.9118800E+02  0.7816164E-02  0.1184000E+00
        -11   -1    0    0    0    0  0.00000000000E+00  0.00000000000E+00  0.45593999997E+02  0.45594000000E+02  0.51100000000E-03 0.  1.
         11   -1    0    0    0    0 -0.00000000000E+00 -0.00000000000E+00 -0.45593999997E+02  0.45594000000E+02  0.51100000000E-03 0. -1.
         23    2    1    2    0    0  0.35527136788E-14 -0.35527136788E-14  0.00000000000E+00  0.91188000000E+02  0.91188000000E+02 0.  0.
    9900012    2    3    3    0    0  0.31886447232E+02  0.14842158348E+02 -0.10896664426E+02  0.54367184187E+02  0.40000227990E+02 0.  0.
        -12    1    3    3    0    0 -0.31886447232E+02 -0.14842158348E+02  0.10896664426E+02  0.36820815813E+02  0.00000000000E+00 0.  1.
         11    1    4    4    0    0  0.17175614950E+02 -0.46304356213E+01 -0.19569791125E+01  0.17896157422E+02  0.51100000000E-03 0. -1.
        -11    1    4    4    0    0 -0.45774919896E+01 -0.19136501034E+01 -0.55950422322E+01  0.74779668009E+01  0.51100000000E-03 0.  1.
         12    1    4    4    0    0  0.19288324272E+02  0.21386244072E+02 -0.33446430814E+01  0.28993059964E+02  0.00000000000E+00 0. -1.
</event>
<event>
 8    1  0.1240174E-006  0.9118800E+02  0.7816164E-02  0.1184000E+00
        -11   -1    0    0    0    0  0.00000000000E+00  0.00000000000E+00  0.45593999997E+02  0.45594000000E+02  0.51100000000E-03 0. -1.
         11   -1    0    0    0    0 -0.00000000000E+00 -0.00000000000E+00 -0.45593999997E+02  0.45594000000E+02  0.51100000000E-03 0.  1.
         23    2    1    2    0    0  0.00000000000E+00  0.00000000000E+00  0.00000000000E+00  0.91188000000E+02  0.91188000000E+02 0.  0.
    9900012    2    3    3    0    0  0.19145922953E+02 -0.19386835427E+02 -0.24766191609E+02  0.54367082027E+02  0.39999995096E+02 0.  0.
         12    1    3    3    0    0 -0.19145922953E+02  0.19386835427E+02  0.24766191609E+02  0.36820917973E+02  0.00000000000E+00 0. -1.
         11    1    4    4    0    0 -0.22015680057E+01 -0.67113486219E+00  0.17232722076E+01  0.28752375641E+01  0.51100000000E-03 0. -1.
        -11    1    4    4    0    0  0.27907778029E+02 -0.22318995128E+02 -0.17486327467E+02  0.39783831723E+02  0.51100000000E-03 0.  1.
        -12    1    4    4    0    0 -0.65602870710E+01  0.36032945631E+01 -0.90031363499E+01  0.11708012739E+02  0.00000000000E+00 0.  1.
</event>
<event>
 8    1  0.1240174E-006  0.9118800E+02  0.7816164E-02  0.1184000E+00
        -11   -1    0    0    0    0  0.00000000000E+00  0.00000000000E+00  0.45593999997E+02  0.45594000000E+02  0.51100000000E-03 0.  1.
         11   -1    0    0    0    0 -0.00000000000E+00 -0.00000000000E+00 -0.45593999997E+02  0.45594000000E+02  0.51100000000E-03 0. -1.
         23    2    1    2    0    0  0.00000000000E+00  0.00000000000E+00  0.17763568394E-14  0.91188000000E+02  0.91188000000E+02 0.  0.
    9900012    2    3    3    0    0  0.30354045795E+02 -0.14053091765E+02 -0.15392240910E+02  0.54367101525E+02  0.40000039547E+02 0.  0.
        -12    1    3    3    0    0 -0.30354045795E+02  0.14053091765E+02  0.15392240910E+02  0.36820898475E+02  0.00000000000E+00 0.  1.
         11    1    4    4    0    0  0.16602912090E+02  0.17201206538E+00 -0.10425399346E+02  0.19605489787E+02  0.51100000000E-03 0. -1.
        -11    1    4    4    0    0  0.70468127854E+01 -0.22244666746E+02 -0.64374444362E+01  0.24205855907E+02  0.51100000000E-03 0.  1.
        -12    1    4    4    0    0  0.67043209192E+01  0.80195629154E+01  0.14706028722E+01  0.10555755830E+02  0.00000000000E+00 0.  1.
</event>
<event>
 8    1  0.1240174E-006  0.9118800E+02  0.7816164E-02  0.1184000E+00
        -11   -1    0    0    0    0  0.00000000000E+00  0.00000000000E+00  0.45593999997E+02  0.45594000000E+02  0.51100000000E-03 0.  1.
         11   -1    0    0    0    0 -0.00000000000E+00 -0.00000000000E+00 -0.45593999997E+02  0.45594000000E+02  0.51100000000E-03 0. -1.
         23    2    1    2    0    0  0.00000000000E+00  0.17763568394E-14  0.00000000000E+00  0.91188000000E+02  0.91188000000E+02 0.  0.
    9900012    2    3    3    0    0 -0.13933233589E+02 -0.12809505332E+02  0.31584205501E+02  0.54367075755E+02  0.39999980800E+02 0.  0.
         12    1    3    3    0    0  0.13933233589E+02  0.12809505332E+02 -0.31584205501E+02  0.36820924245E+02  0.00000000000E+00 0. -1.
         11    1    4    4    0    0 -0.14894001257E+02 -0.65557641281E+00  0.93231358147E+01  0.17583569477E+02  0.51100000000E-03 0. -1.
        -11    1    4    4    0    0 -0.62660066612E+01 -0.19804966089E+01  0.23349987699E+02  0.24257104776E+02  0.51100000000E-03 0.  1.
        -12    1    4    4    0    0  0.72267743291E+01 -0.10173432310E+02 -0.10889180127E+01  0.12526401503E+02  0.00000000000E+00 0.  1.
</event>
<event>
 8    1  0.1240174E-006  0.9118800E+02  0.7816164E-02  0.1184000E+00
        -11   -1    0    0    0    0  0.00000000000E+00  0.00000000000E+00  0.45593999997E+02  0.45594000000E+02  0.51100000000E-03 0. -1.
         11   -1    0    0    0    0 -0.00000000000E+00 -0.00000000000E+00 -0.45593999997E+02  0.45594000000E+02  0.51100000000E-03 0.  1.
         23    2    1    2    0    0  0.55511151231E-15  0.00000000000E+00  0.00000000000E+00  0.91188000000E+02  0.91188000000E+02 0.  0.
    9900012    2    3    3    0    0  0.57896768965E+00 -0.46994841895E+01  0.36515212817E+02  0.54367066792E+02  0.39999960365E+02 0.  0.
        -12    1    3    3    0    0 -0.57896768965E+00  0.46994841895E+01 -0.36515212817E+02  0.36820933208E+02  0.00000000000E+00 0.  1.
         11    1    4    4    0    0  0.88438965984E+01 -0.33627745381E+01  0.15757333842E+02  0.18379780458E+02  0.51100000000E-03 0. -1.
        -11    1    4    4    0    0 -0.87592755391E+00  0.10136743107E+02 -0.10844984961E+01  0.10232152615E+02  0.51100000000E-03 0.  1.
         12    1    4    4    0    0 -0.73890013549E+01 -0.11473452758E+02  0.21842377472E+02  0.25755133718E+02  0.00000000000E+00 0. -1.
</event>
<event>
 8    1  0.1240174E-006  0.9118800E+02  0.7816164E-02  0.1184000E+00
        -11   -1    0    0    0    0  0.00000000000E+00  0.00000000000E+00  0.45593999997E+02  0.45594000000E+02  0.51100000000E-03 0. -1.
         11   -1    0    0    0    0 -0.00000000000E+00 -0.00000000000E+00 -0.45593999997E+02  0.45594000000E+02  0.51100000000E-03 0.  1.
         23    2    1    2    0    0  0.00000000000E+00  0.00000000000E+00  0.17763568394E-14  0.91188000000E+02  0.91188000000E+02 0.  0.
    9900012    2    3    3    0    0  0.13647111563E+02  0.30566460684E+02 -0.15337221761E+02  0.54367047485E+02  0.39999916351E+02 0.  0.
         12    1    3    3    0    0 -0.13647111563E+02 -0.30566460684E+02  0.15337221761E+02  0.36820952515E+02  0.00000000000E+00 0. -1.
         11    1    4    4    0    0  0.14251620186E+01 -0.61284831114E+01 -0.60959455281E+01  0.87607045475E+01  0.51100000000E-03 0. -1.
        -11    1    4    4    0    0  0.14345379564E+02  0.37942812613E+02 -0.52308266606E+01  0.40899981560E+02  0.51100000000E-03 0.  1.
        -12    1    4    4    0    0 -0.21234300196E+01 -0.12478688175E+01 -0.40104495728E+01  0.47063613769E+01  0.00000000000E+00 0.  1.
</event>
<event>
 8    1  0.1240174E-006  0.9118800E+02  0.7816164E-02  0.1184000E+00
        -11   -1    0    0    0    0  0.00000000000E+00  0.00000000000E+00  0.45593999997E+02  0.45594000000E+02  0.51100000000E-03 0.  1.
         11   -1    0    0    0    0 -0.00000000000E+00 -0.00000000000E+00 -0.45593999997E+02  0.45594000000E+02  0.51100000000E-03 0. -1.
         23    2    1    2    0    0  0.00000000000E+00  0.17763568394E-14  0.00000000000E+00  0.91188000000E+02  0.91188000000E+02 0.  0.
    9900012    2    3    3    0    0  0.45772592950E+01  0.93867072314E+01  0.35308924386E+02  0.54367058722E+02  0.39999941968E+02 0.  0.
         12    1    3    3    0    0 -0.45772592950E+01 -0.93867072314E+01 -0.35308924386E+02  0.36820941278E+02  0.00000000000E+00 0. -1.
         11    1    4    4    0    0  0.97468479105E+01 -0.44851885373E+00  0.63557502387E+01  0.11644645753E+02  0.51100000000E-03 0. -1.
        -11    1    4    4    0    0 -0.63291327357E+01 -0.50990275610E+01  0.26277998654E+02  0.27506203242E+02  0.51100000000E-03 0.  1.
         12    1    4    4    0    0  0.11595441202E+01  0.14934253646E+02  0.26751754931E+01  0.15216209727E+02  0.00000000000E+00 0. -1.
</event>
<event>
 8    1  0.1240174E-006  0.9118800E+02  0.7816164E-02  0.1184000E+00
        -11   -1    0    0    0    0  0.00000000000E+00  0.00000000000E+00  0.45593999997E+02  0.45594000000E+02  0.51100000000E-03 0.  1.
         11   -1    0    0    0    0 -0.00000000000E+00 -0.00000000000E+00 -0.45593999997E+02  0.45594000000E+02  0.51100000000E-03 0. -1.
         23    2    1    2    0    0 -0.66613381478E-15  0.00000000000E+00  0.00000000000E+00  0.91188000000E+02  0.91188000000E+02 0.  0.
    9900012    2    3    3    0    0  0.16053202051E+01 -0.23587965715E+02  0.28227808765E+02  0.54367104204E+02  0.40000045655E+02 0.  0.
         12    1    3    3    0    0 -0.16053202051E+01  0.23587965715E+02 -0.28227808765E+02  0.36820895796E+02  0.00000000000E+00 0. -1.
         11    1    4    4    0    0  0.18415202970E+01 -0.93674257855E+01 -0.75916210718E+01  0.12197236310E+02  0.51100000000E-03 0. -1.
        -11    1    4    4    0    0 -0.46120042316E+01 -0.10252129687E+02  0.34264294450E+02  0.36061317510E+02  0.51100000000E-03 0.  1.
         12    1    4    4    0    0  0.43758041398E+01 -0.39684102429E+01  0.15551353869E+01  0.61085503843E+01  0.00000000000E+00 0. -1.
</event>
<event>
 8    1  0.1240174E-006  0.9118800E+02  0.7816164E-02  0.1184000E+00
        -11   -1    0    0    0    0  0.00000000000E+00  0.00000000000E+00  0.45593999997E+02  0.45594000000E+02  0.51100000000E-03 0.  1.
         11   -1    0    0    0    0 -0.00000000000E+00 -0.00000000000E+00 -0.45593999997E+02  0.45594000000E+02  0.51100000000E-03 0. -1.
         23    2    1    2    0    0 -0.17763568394E-14  0.00000000000E+00 -0.88817841970E-15  0.91188000000E+02  0.91188000000E+02 0.  0.
    9900012    2    3    3    0    0 -0.13256787103E+02  0.34229348932E+02 -0.28964507380E+01  0.54367079867E+02  0.39999990172E+02 0.  0.
        -12    1    3    3    0    0  0.13256787103E+02 -0.34229348932E+02  0.28964507380E+01  0.36820920133E+02  0.00000000000E+00 0.  1.
         11    1    4    4    0    0 -0.21582023249E+01  0.21299782649E+02  0.91798029853E+01  0.23293934002E+02  0.51100000000E-03 0. -1.
        -11    1    4    4    0    0 -0.54270757603E+01  0.17157724345E+01  0.65036710771E+01  0.86426132677E+01  0.51100000000E-03 0.  1.
         12    1    4    4    0    0 -0.56715090174E+01  0.11213793848E+02 -0.18579924800E+02  0.22430532597E+02  0.00000000000E+00 0. -1.
</event>
<event>
 8    1  0.1240174E-006  0.9118800E+02  0.7816164E-02  0.1184000E+00
        -11   -1    0    0    0    0  0.00000000000E+00  0.00000000000E+00  0.45593999997E+02  0.45594000000E+02  0.51100000000E-03 0.  1.
         11   -1    0    0    0    0 -0.00000000000E+00 -0.00000000000E+00 -0.45593999997E+02  0.45594000000E+02  0.51100000000E-03 0. -1.
         23    2    1    2    0    0  0.17763568394E-14  0.44408920985E-15  0.71054273576E-14  0.91188000000E+02  0.91188000000E+02 0.  0.
    9900012    2    3    3    0    0 -0.11755319000E+02  0.35560162895E+01 -0.34712343493E+02  0.54367087906E+02  0.40000008499E+02 0.  0.
        -12    1    3    3    0    0  0.11755319000E+02 -0.35560162895E+01  0.34712343493E+02  0.36820912094E+02  0.00000000000E+00 0.  1.
         11    1    4    4    0    0  0.59019213741E+01 -0.15761145242E+01 -0.15006739578E+02  0.16202439505E+02  0.51100000000E-03 0. -1.
        -11    1    4    4    0    0  0.46119759467E+01 -0.59957873927E+01 -0.27706407990E+01  0.80558202121E+01  0.51100000000E-03 0.  1.
        -12    1    4    4    0    0 -0.22269216321E+02  0.11127918206E+02 -0.16934963117E+02  0.30108828189E+02  0.00000000000E+00 0.  1.
</event>
<event>
 8    1  0.1240174E-006  0.9118800E+02  0.7816164E-02  0.1184000E+00
        -11   -1    0    0    0    0  0.00000000000E+00  0.00000000000E+00  0.45593999997E+02  0.45594000000E+02  0.51100000000E-03 0.  1.
         11   -1    0    0    0    0 -0.00000000000E+00 -0.00000000000E+00 -0.45593999997E+02  0.45594000000E+02  0.51100000000E-03 0. -1.
         23    2    1    2    0    0  0.00000000000E+00  0.44408920985E-15  0.00000000000E+00  0.91188000000E+02  0.91188000000E+02 0.  0.
    9900012    2    3    3    0    0  0.20019290637E+02 -0.15904004225E+01  0.30862254053E+02  0.54367080724E+02  0.39999992126E+02 0.  0.
         12    1    3    3    0    0 -0.20019290637E+02  0.15904004225E+01 -0.30862254053E+02  0.36820919276E+02  0.00000000000E+00 0. -1.
         11    1    4    4    0    0  0.28302530722E+01  0.15564317465E+02  0.24606098794E+02  0.29252664986E+02  0.51100000000E-03 0. -1.
        -11    1    4    4    0    0  0.10382842712E+02 -0.98101406598E+01  0.31161019281E+01  0.14620272707E+02  0.51100000000E-03 0.  1.
         12    1    4    4    0    0  0.68061948526E+01 -0.73445772281E+01  0.31400533308E+01  0.10494143031E+02  0.00000000000E+00 0. -1.
</event>
<event>
 8    1  0.1240174E-006  0.9118800E+02  0.7816164E-02  0.1184000E+00
        -11   -1    0    0    0    0  0.00000000000E+00  0.00000000000E+00  0.45593999997E+02  0.45594000000E+02  0.51100000000E-03 0. -1.
         11   -1    0    0    0    0 -0.00000000000E+00 -0.00000000000E+00 -0.45593999997E+02  0.45594000000E+02  0.51100000000E-03 0.  1.
         23    2    1    2    0    0 -0.17763568394E-14 -0.35527136788E-14  0.17763568394E-14  0.91188000000E+02  0.91188000000E+02 0.  0.
    9900012    2    3    3    0    0 -0.15061537497E+02  0.30990886450E+02  0.12980555130E+02  0.54367085207E+02  0.40000002345E+02 0.  0.
        -12    1    3    3    0    0  0.15061537497E+02 -0.30990886450E+02 -0.12980555130E+02  0.36820914793E+02  0.00000000000E+00 0.  1.
         11    1    4    4    0    0  0.26921266662E+01  0.15965585735E+02 -0.26620306361E+01  0.16408347913E+02  0.51100000000E-03 0. -1.
        -11    1    4    4    0    0  0.28879492834E+01 -0.13960825654E+01 -0.39594378721E+01  0.50957282224E+01  0.51100000000E-03 0.  1.
         12    1    4    4    0    0 -0.20641613447E+02  0.16421383281E+02  0.19602023638E+02  0.32863009071E+02  0.00000000000E+00 0. -1.
</event>
<event>
 8    1  0.1240174E-006  0.9118800E+02  0.7816164E-02  0.1184000E+00
        -11   -1    0    0    0    0  0.00000000000E+00  0.00000000000E+00  0.45593999997E+02  0.45594000000E+02  0.51100000000E-03 0.  1.
         11   -1    0    0    0    0 -0.00000000000E+00 -0.00000000000E+00 -0.45593999997E+02  0.45594000000E+02  0.51100000000E-03 0. -1.
         23    2    1    2    0    0  0.00000000000E+00  0.00000000000E+00  0.17763568394E-14  0.91188000000E+02  0.91188000000E+02 0.  0.
    9900012    2    3    3    0    0  0.16398220182E+02 -0.29554480887E+02  0.14608590107E+02  0.54367083790E+02  0.39999999117E+02 0.  0.
         12    1    3    3    0    0 -0.16398220182E+02  0.29554480887E+02 -0.14608590107E+02  0.36820916210E+02  0.00000000000E+00 0. -1.
         11    1    4    4    0    0 -0.93404444764E+00 -0.16626084499E+02 -0.40026937745E+01  0.17126607443E+02  0.51100000000E-03 0. -1.
        -11    1    4    4    0    0  0.14014554269E+01  0.36258685276E+00  0.16301024460E+02  0.16365174770E+02  0.51100000000E-03 0.  1.
        -12    1    4    4    0    0  0.15930809203E+02 -0.13290983240E+02  0.23102594211E+01  0.20875301577E+02  0.00000000000E+00 0.  1.
</event>
<event>
 8    1  0.1240174E-006  0.9118800E+02  0.7816164E-02  0.1184000E+00
        -11   -1    0    0    0    0  0.00000000000E+00  0.00000000000E+00  0.45593999997E+02  0.45594000000E+02  0.51100000000E-03 0. -1.
         11   -1    0    0    0    0 -0.00000000000E+00 -0.00000000000E+00 -0.45593999997E+02  0.45594000000E+02  0.51100000000E-03 0.  1.
         23    2    1    2    0    0  0.00000000000E+00  0.71054273576E-14 -0.17763568394E-14  0.91188000000E+02  0.91188000000E+02 0.  0.
    9900012    2    3    3    0    0 -0.13001893924E+02  0.32672511393E+02 -0.10919656945E+02  0.54367066360E+02  0.39999959381E+02 0.  0.
         12    1    3    3    0    0  0.13001893924E+02 -0.32672511393E+02  0.10919656945E+02  0.36820933640E+02  0.00000000000E+00 0. -1.
         11    1    4    4    0    0 -0.82205714602E+01  0.16133946493E+02  0.50335350563E+01  0.18794108119E+02  0.51100000000E-03 0. -1.
        -11    1    4    4    0    0 -0.27904501467E+01  0.22181221203E+02 -0.18550292775E+02  0.29050069680E+02  0.51100000000E-03 0.  1.
         12    1    4    4    0    0 -0.19908723173E+01 -0.56426563038E+01  0.25971007740E+01  0.65228885608E+01  0.00000000000E+00 0. -1.
</event>
<event>
 8    1  0.1240174E-006  0.9118800E+02  0.7816164E-02  0.1184000E+00
        -11   -1    0    0    0    0  0.00000000000E+00  0.00000000000E+00  0.45593999997E+02  0.45594000000E+02  0.51100000000E-03 0.  1.
         11   -1    0    0    0    0 -0.00000000000E+00 -0.00000000000E+00 -0.45593999997E+02  0.45594000000E+02  0.51100000000E-03 0. -1.
         23    2    1    2    0    0 -0.44408920985E-15  0.00000000000E+00  0.00000000000E+00  0.91188000000E+02  0.91188000000E+02 0.  0.
    9900012    2    3    3    0    0  0.39860995559E+01  0.27167835337E+02  0.24531568165E+02  0.54367107789E+02  0.40000053827E+02 0.  0.
         12    1    3    3    0    0 -0.39860995559E+01 -0.27167835337E+02 -0.24531568165E+02  0.36820892211E+02  0.00000000000E+00 0. -1.
         11    1    4    4    0    0  0.58965138356E+01  0.98534105121E+01 -0.20958196654E+01  0.11672661841E+02  0.51100000000E-03 0. -1.
        -11    1    4    4    0    0  0.13004943097E+02  0.76570220133E+01  0.85453818776E+01  0.17343070166E+02  0.51100000000E-03 0.  1.
         12    1    4    4    0    0 -0.14915357377E+02  0.96574028114E+01  0.18082005953E+02  0.25351375782E+02  0.00000000000E+00 0. -1.
</event>
<event>
 8    1  0.1240174E-006  0.9118800E+02  0.7816164E-02  0.1184000E+00
        -11   -1    0    0    0    0  0.00000000000E+00  0.00000000000E+00  0.45593999997E+02  0.45594000000E+02  0.51100000000E-03 0.  1.
         11   -1    0    0    0    0 -0.00000000000E+00 -0.00000000000E+00 -0.45593999997E+02  0.45594000000E+02  0.51100000000E-03 0. -1.
         23    2    1    2    0    0  0.33306690739E-15  0.35527136788E-14  0.00000000000E+00  0.91188000000E+02  0.91188000000E+02 0.  0.
    9900012    2    3    3    0    0 -0.68594492675E+00  0.16862531673E+02  0.32725587682E+02  0.54367087681E+02  0.40000007986E+02 0.  0.
         12    1    3    3    0    0  0.68594492675E+00 -0.16862531673E+02 -0.32725587682E+02  0.36820912319E+02  0.00000000000E+00 0. -1.
         11    1    4    4    0    0  0.70062523048E+01  0.21220579257E+02  0.90938672949E+01  0.24126727461E+02  0.51100000000E-03 0. -1.
        -11    1    4    4    0    0 -0.46501985691E+01 -0.60715096346E+01  0.25256829296E+02  0.26389297116E+02  0.51100000000E-03 0.  1.
        -12    1    4    4    0    0 -0.30419986625E+01  0.17134620504E+01 -0.16251089081E+01  0.38510631031E+01  0.00000000000E+00 0.  1.
</event>
<event>
 8    1  0.1240174E-006  0.9118800E+02  0.7816164E-02  0.1184000E+00
        -11   -1    0    0    0    0  0.00000000000E+00  0.00000000000E+00  0.45593999997E+02  0.45594000000E+02  0.51100000000E-03 0. -1.
         11   -1    0    0    0    0 -0.00000000000E+00 -0.00000000000E+00 -0.45593999997E+02  0.45594000000E+02  0.51100000000E-03 0.  1.
         23    2    1    2    0    0  0.35527136788E-14  0.00000000000E+00 -0.35527136788E-14  0.91188000000E+02  0.91188000000E+02 0.  0.
    9900012    2    3    3    0    0 -0.27229977608E+02  0.84950770979E+01  0.23283954554E+02  0.54367074494E+02  0.39999977923E+02 0.  0.
        -12    1    3    3    0    0  0.27229977608E+02 -0.84950770979E+01 -0.23283954554E+02  0.36820925506E+02  0.00000000000E+00 0.  1.
         11    1    4    4    0    0  0.37464393594E+01  0.90761647939E+01  0.78953561040E+01  0.12599572354E+02  0.51100000000E-03 0. -1.
        -11    1    4    4    0    0 -0.22260570811E+02  0.41515559733E+01 -0.93885740504E+00  0.22663845290E+02  0.51100000000E-03 0.  1.
         12    1    4    4    0    0 -0.87158461569E+01 -0.47326436693E+01  0.16327455855E+02  0.19103656850E+02  0.00000000000E+00 0. -1.
</event>
<event>
 8    1  0.1240174E-006  0.9118800E+02  0.7816164E-02  0.1184000E+00
        -11   -1    0    0    0    0  0.00000000000E+00  0.00000000000E+00  0.45593999997E+02  0.45594000000E+02  0.51100000000E-03 0. -1.
         11   -1    0    0    0    0 -0.00000000000E+00 -0.00000000000E+00 -0.45593999997E+02  0.45594000000E+02  0.51100000000E-03 0.  1.
         23    2    1    2    0    0 -0.35527136788E-14 -0.35527136788E-14  0.17763568394E-14  0.91188000000E+02  0.91188000000E+02 0.  0.
    9900012    2    3    3    0    0  0.28178186005E+02 -0.20333194808E+02 -0.12179108902E+02  0.54367086496E+02  0.40000005284E+02 0.  0.
         12    1    3    3    0    0 -0.28178186005E+02  0.20333194808E+02  0.12179108902E+02  0.36820913504E+02  0.00000000000E+00 0. -1.
         11    1    4    4    0    0  0.18208227739E+02  0.10287868736E+01  0.76611930863E+01  0.19781098038E+02  0.51100000000E-03 0. -1.
        -11    1    4    4    0    0  0.10317361956E+02 -0.21189817358E+02 -0.22090624861E+02  0.32302508020E+02  0.51100000000E-03 0.  1.
         12    1    4    4    0    0 -0.34740369021E+00 -0.17216432381E+00  0.22503228722E+01  0.22834804373E+01  0.00000000000E+00 0. -1.
</event>
<event>
 8    1  0.1240174E-006  0.9118800E+02  0.7816164E-02  0.1184000E+00
        -11   -1    0    0    0    0  0.00000000000E+00  0.00000000000E+00  0.45593999997E+02  0.45594000000E+02  0.51100000000E-03 0. -1.
         11   -1    0    0    0    0 -0.00000000000E+00 -0.00000000000E+00 -0.45593999997E+02  0.45594000000E+02  0.51100000000E-03 0.  1.
         23    2    1    2    0    0  0.00000000000E+00  0.17763568394E-14  0.35527136788E-14  0.91188000000E+02  0.91188000000E+02 0.  0.
    9900012    2    3    3    0    0 -0.26276620473E+02  0.91204084568E+01  0.24127561701E+02  0.54367056672E+02  0.39999937295E+02 0.  0.
        -12    1    3    3    0    0  0.26276620473E+02 -0.91204084568E+01 -0.24127561701E+02  0.36820943328E+02  0.00000000000E+00 0.  1.
         11    1    4    4    0    0  0.37017005658E+01 -0.10052119849E+01  0.38817877723E+01  0.54572259239E+01  0.51100000000E-03 0. -1.
        -11    1    4    4    0    0  0.48944282730E+01 -0.41784815568E+01  0.76469653990E+00  0.64807327749E+01  0.51100000000E-03 0.  1.
        -12    1    4    4    0    0 -0.34872749312E+02  0.14304101998E+02  0.19481077389E+02  0.42429097973E+02  0.00000000000E+00 0.  1.
</event>
<event>
 8    1  0.1240174E-006  0.9118800E+02  0.7816164E-02  0.1184000E+00
        -11   -1    0    0    0    0  0.00000000000E+00  0.00000000000E+00  0.45593999997E+02  0.45594000000E+02  0.51100000000E-03 0. -1.
         11   -1    0    0    0    0 -0.00000000000E+00 -0.00000000000E+00 -0.45593999997E+02  0.45594000000E+02  0.51100000000E-03 0.  1.
         23    2    1    2    0    0  0.35527136788E-14 -0.35527136788E-14  0.88817841970E-15  0.91188000000E+02  0.91188000000E+02 0.  0.
    9900012    2    3    3    0    0 -0.19960519606E+02  0.30218891402E+02 -0.66464815659E+01  0.54367089396E+02  0.40000011896E+02 0.  0.
        -12    1    3    3    0    0  0.19960519606E+02 -0.30218891402E+02  0.66464815659E+01  0.36820910604E+02  0.00000000000E+00 0.  1.
         11    1    4    4    0    0 -0.16458304020E+02  0.13359477259E+02 -0.15965290716E+01  0.21257946966E+02  0.51100000000E-03 0. -1.
        -11    1    4    4    0    0 -0.13297564345E+02  0.16206866439E+02 -0.86146117431E+01  0.22664934878E+02  0.51100000000E-03 0.  1.
        -12    1    4    4    0    0  0.97953487597E+01  0.65254770335E+00  0.35646592487E+01  0.10444207552E+02  0.00000000000E+00 0.  1.
</event>
<event>
 8    1  0.1240174E-006  0.9118800E+02  0.7816164E-02  0.1184000E+00
        -11   -1    0    0    0    0  0.00000000000E+00  0.00000000000E+00  0.45593999997E+02  0.45594000000E+02  0.51100000000E-03 0.  1.
         11   -1    0    0    0    0 -0.00000000000E+00 -0.00000000000E+00 -0.45593999997E+02  0.45594000000E+02  0.51100000000E-03 0. -1.
         23    2    1    2    0    0  0.35527136788E-14  0.00000000000E+00 -0.19984014443E-14  0.91188000000E+02  0.91188000000E+02 0.  0.
    9900012    2    3    3    0    0  0.29321733363E+02 -0.22259628768E+02  0.72667833403E+00  0.54367038827E+02  0.39999896614E+02 0.  0.
        -12    1    3    3    0    0 -0.29321733363E+02  0.22259628768E+02 -0.72667833403E+00  0.36820961173E+02  0.00000000000E+00 0.  1.
         11    1    4    4    0    0  0.25882549759E+00  0.31054247892E+01 -0.39024268020E+00  0.31405323386E+01  0.51100000000E-03 0. -1.
        -11    1    4    4    0    0  0.12769631340E+02 -0.20108942148E+02  0.15872871194E+02  0.28624833259E+02  0.51100000000E-03 0.  1.
        -12    1    4    4    0    0  0.16293276526E+02 -0.52561114087E+01 -0.14755950180E+02  0.22601673230E+02  0.00000000000E+00 0.  1.
</event>
<event>
 8    1  0.1240174E-006  0.9118800E+02  0.7816164E-02  0.1184000E+00
        -11   -1    0    0    0    0  0.00000000000E+00  0.00000000000E+00  0.45593999997E+02  0.45594000000E+02  0.51100000000E-03 0. -1.
         11   -1    0    0    0    0 -0.00000000000E+00 -0.00000000000E+00 -0.45593999997E+02  0.45594000000E+02  0.51100000000E-03 0.  1.
         23    2    1    2    0    0  0.35527136788E-14  0.00000000000E+00 -0.71054273576E-14  0.91188000000E+02  0.91188000000E+02 0.  0.
    9900012    2    3    3    0    0  0.17393956953E+02 -0.56765205876E+01  0.31953224167E+02  0.54367066291E+02  0.39999959225E+02 0.  0.
        -12    1    3    3    0    0 -0.17393956953E+02  0.56765205876E+01 -0.31953224167E+02  0.36820933709E+02  0.00000000000E+00 0.  1.
         11    1    4    4    0    0  0.26364354415E+00 -0.22669833565E+01 -0.34928248384E+01  0.41723550987E+01  0.51100000000E-03 0.  1.
        -11    1    4    4    0    0  0.25278490513E+02 -0.28958348142E+01  0.18739525885E+02  0.31599964755E+02  0.51100000000E-03 0. -1.
         12    1    4    4    0    0 -0.81481771035E+01 -0.51370241684E+00  0.16706523121E+02  0.18594746438E+02  0.00000000000E+00 0. -1.
</event>
<event>
 8    1  0.1240174E-006  0.9118800E+02  0.7816164E-02  0.1184000E+00
        -11   -1    0    0    0    0  0.00000000000E+00  0.00000000000E+00  0.45593999997E+02  0.45594000000E+02  0.51100000000E-03 0.  1.
         11   -1    0    0    0    0 -0.00000000000E+00 -0.00000000000E+00 -0.45593999997E+02  0.45594000000E+02  0.51100000000E-03 0. -1.
         23    2    1    2    0    0 -0.11102230246E-15  0.00000000000E+00 -0.71054273576E-14  0.91188000000E+02  0.91188000000E+02 0.  0.
    9900012    2    3    3    0    0 -0.99225855452E+00 -0.10444512145E+02 -0.35294541284E+02  0.54367122017E+02  0.40000086261E+02 0.  0.
        -12    1    3    3    0    0  0.99225855452E+00  0.10444512145E+02  0.35294541284E+02  0.36820877983E+02  0.00000000000E+00 0.  1.
         11    1    4    4    0    0  0.33665564837E+01 -0.62291557864E+01 -0.20577671011E+02  0.21761815845E+02  0.51100000000E-03 0. -1.
        -11    1    4    4    0    0 -0.71232139514E+01  0.70933746447E+01 -0.17905836999E+02  0.20534730087E+02  0.51100000000E-03 0.  1.
         12    1    4    4    0    0  0.27643989132E+01 -0.11308731003E+02  0.31889667249E+01  0.12070576085E+02  0.00000000000E+00 0. -1.
</event>
<event>
 8    1  0.1240174E-006  0.9118800E+02  0.7816164E-02  0.1184000E+00
        -11   -1    0    0    0    0  0.00000000000E+00  0.00000000000E+00  0.45593999997E+02  0.45594000000E+02  0.51100000000E-03 0.  1.
         11   -1    0    0    0    0 -0.00000000000E+00 -0.00000000000E+00 -0.45593999997E+02  0.45594000000E+02  0.51100000000E-03 0. -1.
         23    2    1    2    0    0 -0.17763568394E-14  0.17763568394E-14  0.35527136788E-14  0.91188000000E+02  0.91188000000E+02 0.  0.
    9900012    2    3    3    0    0 -0.15214783299E+02  0.11074000193E+02  0.31648963924E+02  0.54367081644E+02  0.39999994224E+02 0.  0.
         12    1    3    3    0    0  0.15214783299E+02 -0.11074000193E+02 -0.31648963924E+02  0.36820918356E+02  0.00000000000E+00 0. -1.
         11    1    4    4    0    0  0.54258538897E+01  0.47358592575E+01  0.63445917208E+01  0.95980257190E+01  0.51100000000E-03 0. -1.
        -11    1    4    4    0    0 -0.39079359348E+01  0.97597880660E+01 -0.36703255481E+01  0.11135381280E+02  0.51100000000E-03 0.  1.
         12    1    4    4    0    0 -0.16732701254E+02 -0.34216471305E+01  0.28974697752E+02  0.33633674645E+02  0.00000000000E+00 0. -1.
</event>
<event>
 8    1  0.1240174E-006  0.9118800E+02  0.7816164E-02  0.1184000E+00
        -11   -1    0    0    0    0  0.00000000000E+00  0.00000000000E+00  0.45593999997E+02  0.45594000000E+02  0.51100000000E-03 0. -1.
         11   -1    0    0    0    0 -0.00000000000E+00 -0.00000000000E+00 -0.45593999997E+02  0.45594000000E+02  0.51100000000E-03 0.  1.
         23    2    1    2    0    0  0.00000000000E+00  0.35527136788E-14  0.00000000000E+00  0.91188000000E+02  0.91188000000E+02 0.  0.
    9900012    2    3    3    0    0 -0.25020576861E+02  0.26785007159E+02  0.35080952912E+01  0.54367182416E+02  0.40000223953E+02 0.  0.
         12    1    3    3    0    0  0.25020576861E+02 -0.26785007159E+02 -0.35080952912E+01  0.36820817584E+02  0.00000000000E+00 0. -1.
         11    1    4    4    0    0 -0.87757299331E+01  0.86407163266E+00 -0.26099130909E+01  0.91962874166E+01  0.51100000000E-03 0. -1.
        -11    1    4    4    0    0 -0.24659932540E+02  0.26587442313E+02  0.57964524693E+01  0.36723333496E+02  0.51100000000E-03 0.  1.
        -12    1    4    4    0    0  0.84150856113E+01 -0.66650678665E+00  0.32155591274E+00  0.84475615030E+01  0.00000000000E+00 0.  1.
</event>
<event>
 8    1  0.1240174E-006  0.9118800E+02  0.7816164E-02  0.1184000E+00
        -11   -1    0    0    0    0  0.00000000000E+00  0.00000000000E+00  0.45593999997E+02  0.45594000000E+02  0.51100000000E-03 0.  1.
         11   -1    0    0    0    0 -0.00000000000E+00 -0.00000000000E+00 -0.45593999997E+02  0.45594000000E+02  0.51100000000E-03 0. -1.
         23    2    1    2    0    0  0.35527136788E-14  0.00000000000E+00 -0.88817841970E-15  0.91188000000E+02  0.91188000000E+02 0.  0.
    9900012    2    3    3    0    0 -0.12325179253E+02  0.34110525166E+02  0.63513714283E+01  0.54367110688E+02  0.40000060435E+02 0.  0.
         12    1    3    3    0    0  0.12325179253E+02 -0.34110525166E+02 -0.63513714283E+01  0.36820889312E+02  0.00000000000E+00 0. -1.
         11    1    4    4    0    0  0.13451752887E+01  0.23906698639E+02  0.26154733417E+01  0.24086934995E+02  0.51100000000E-03 0.  1.
        -11    1    4    4    0    0 -0.59891078924E+01  0.17423821204E+02  0.62265904439E+01  0.19448120411E+02  0.51100000000E-03 0. -1.
         12    1    4    4    0    0 -0.76812466489E+01 -0.72199946769E+01 -0.24906923572E+01  0.10832055282E+02  0.00000000000E+00 0. -1.
</event>
<event>
 8    1  0.1240174E-006  0.9118800E+02  0.7816164E-02  0.1184000E+00
        -11   -1    0    0    0    0  0.00000000000E+00  0.00000000000E+00  0.45593999997E+02  0.45594000000E+02  0.51100000000E-03 0. -1.
         11   -1    0    0    0    0 -0.00000000000E+00 -0.00000000000E+00 -0.45593999997E+02  0.45594000000E+02  0.51100000000E-03 0.  1.
         23    2    1    2    0    0  0.00000000000E+00  0.00000000000E+00  0.00000000000E+00  0.91188000000E+02  0.91188000000E+02 0.  0.
    9900012    2    3    3    0    0  0.21282172696E+02 -0.26887303432E+02  0.13413510123E+02  0.54367079121E+02  0.39999988473E+02 0.  0.
        -12    1    3    3    0    0 -0.21282172696E+02  0.26887303432E+02 -0.13413510123E+02  0.36820920879E+02  0.00000000000E+00 0.  1.
         11    1    4    4    0    0  0.27196006046E+02 -0.11050188665E+02  0.82372027483E+01  0.30489029564E+02  0.51100000000E-03 0. -1.
        -11    1    4    4    0    0 -0.16470646925E+01  0.33027612322E+01  0.10751542134E+01  0.38440877594E+01  0.51100000000E-03 0.  1.
         12    1    4    4    0    0 -0.42667686575E+01 -0.19139876000E+02  0.41011531615E+01  0.20033961798E+02  0.00000000000E+00 0. -1.
</event>
<event>
 8    1  0.1240174E-006  0.9118800E+02  0.7816164E-02  0.1184000E+00
        -11   -1    0    0    0    0  0.00000000000E+00  0.00000000000E+00  0.45593999997E+02  0.45594000000E+02  0.51100000000E-03 0.  1.
         11   -1    0    0    0    0 -0.00000000000E+00 -0.00000000000E+00 -0.45593999997E+02  0.45594000000E+02  0.51100000000E-03 0. -1.
         23    2    1    2    0    0  0.00000000000E+00 -0.35527136788E-14 -0.88817841970E-15  0.91188000000E+02  0.91188000000E+02 0.  0.
    9900012    2    3    3    0    0  0.29293521992E+02  0.21596547167E+02  0.55908207160E+01  0.54367101634E+02  0.40000039794E+02 0.  0.
        -12    1    3    3    0    0 -0.29293521992E+02 -0.21596547167E+02 -0.55908207160E+01  0.36820898366E+02  0.00000000000E+00 0.  1.
         11    1    4    4    0    0  0.83964560664E+01  0.18655164073E+02  0.33220766134E+01  0.20725631820E+02  0.51100000000E-03 0. -1.
        -11    1    4    4    0    0  0.23769353512E+02  0.10756228288E+01 -0.61304722992E+01  0.24570751346E+02  0.51100000000E-03 0.  1.
        -12    1    4    4    0    0 -0.28722875867E+01  0.18657602657E+01  0.83992164017E+01  0.90707184673E+01  0.00000000000E+00 0.  1.
</event>
<event>
 8    1  0.1240174E-006  0.9118800E+02  0.7816164E-02  0.1184000E+00
        -11   -1    0    0    0    0  0.00000000000E+00  0.00000000000E+00  0.45593999997E+02  0.45594000000E+02  0.51100000000E-03 0. -1.
         11   -1    0    0    0    0 -0.00000000000E+00 -0.00000000000E+00 -0.45593999997E+02  0.45594000000E+02  0.51100000000E-03 0.  1.
         23    2    1    2    0    0  0.00000000000E+00  0.10658141036E-13  0.00000000000E+00  0.91188000000E+02  0.91188000000E+02 0.  0.
    9900012    2    3    3    0    0 -0.24341105353E+02 -0.27444679747E+02 -0.31746394502E+01  0.54367106585E+02  0.40000051083E+02 0.  0.
        -12    1    3    3    0    0  0.24341105353E+02  0.27444679747E+02  0.31746394502E+01  0.36820893415E+02  0.00000000000E+00 0.  1.
         11    1    4    4    0    0 -0.31469219769E+01  0.28199577486E+01  0.55452410462E+01  0.69717270568E+01  0.51100000000E-03 0. -1.
        -11    1    4    4    0    0 -0.29322687216E+01  0.55769098132E+01 -0.20112138342E+01  0.66140081848E+01  0.51100000000E-03 0.  1.
         12    1    4    4    0    0 -0.18261914655E+02 -0.35841547308E+02 -0.67086666622E+01  0.40781371344E+02  0.00000000000E+00 0. -1.
</event>
<event>
 8    1  0.1240174E-006  0.9118800E+02  0.7816164E-02  0.1184000E+00
        -11   -1    0    0    0    0  0.00000000000E+00  0.00000000000E+00  0.45593999997E+02  0.45594000000E+02  0.51100000000E-03 0.  1.
         11   -1    0    0    0    0 -0.00000000000E+00 -0.00000000000E+00 -0.45593999997E+02  0.45594000000E+02  0.51100000000E-03 0. -1.
         23    2    1    2    0    0 -0.44408920985E-15  0.00000000000E+00 -0.44408920985E-15  0.91188000000E+02  0.91188000000E+02 0.  0.
    9900012    2    3    3    0    0  0.18165887206E+01  0.36721591973E+02  0.20012408679E+01  0.54367078276E+02  0.39999986545E+02 0.  0.
        -12    1    3    3    0    0 -0.18165887206E+01 -0.36721591973E+02 -0.20012408679E+01  0.36820921724E+02  0.00000000000E+00 0.  1.
         11    1    4    4    0    0 -0.11513739999E+02  0.99323777254E+01  0.55279023083E+01  0.16179494437E+02  0.51100000000E-03 0.  1.
        -11    1    4    4    0    0  0.37092475325E+01  0.21743395222E+02 -0.11343782262E+02  0.24803530984E+02  0.51100000000E-03 0. -1.
        -12    1    4    4    0    0  0.96210811872E+01  0.50458190261E+01  0.78171208218E+01  0.13384052854E+02  0.00000000000E+00 0.  1.
</event>
<event>
 8    1  0.1240174E-006  0.9118800E+02  0.7816164E-02  0.1184000E+00
        -11   -1    0    0    0    0  0.00000000000E+00  0.00000000000E+00  0.45593999997E+02  0.45594000000E+02  0.51100000000E-03 0.  1.
         11   -1    0    0    0    0 -0.00000000000E+00 -0.00000000000E+00 -0.45593999997E+02  0.45594000000E+02  0.51100000000E-03 0. -1.
         23    2    1    2    0    0  0.00000000000E+00 -0.35527136788E-14  0.35527136788E-14  0.91188000000E+02  0.91188000000E+02 0.  0.
    9900012    2    3    3    0    0  0.12864035110E+02 -0.13100000264E+02  0.31916868402E+02  0.54367083460E+02  0.39999998363E+02 0.  0.
         12    1    3    3    0    0 -0.12864035110E+02  0.13100000264E+02 -0.31916868402E+02  0.36820916540E+02  0.00000000000E+00 0. -1.
         11    1    4    4    0    0  0.80868092175E+01  0.40378749381E+01  0.14141278661E+01  0.91488073113E+01  0.51100000000E-03 0. -1.
        -11    1    4    4    0    0  0.15541600170E+02 -0.33674127158E+01  0.14571300127E+02  0.21568578810E+02  0.51100000000E-03 0.  1.
         12    1    4    4    0    0 -0.10764374277E+02 -0.13770462487E+02  0.15931440409E+02  0.23649697338E+02  0.00000000000E+00 0. -1.
</event>
<event>
 8    1  0.1240174E-006  0.9118800E+02  0.7816164E-02  0.1184000E+00
        -11   -1    0    0    0    0  0.00000000000E+00  0.00000000000E+00  0.45593999997E+02  0.45594000000E+02  0.51100000000E-03 0.  1.
         11   -1    0    0    0    0 -0.00000000000E+00 -0.00000000000E+00 -0.45593999997E+02  0.45594000000E+02  0.51100000000E-03 0. -1.
         23    2    1    2    0    0  0.71054273576E-14 -0.10658141036E-13 -0.53290705182E-14  0.91188000000E+02  0.91188000000E+02 0.  0.
    9900012    2    3    3    0    0  0.29638067081E+02 -0.18631166432E+02 -0.11412376849E+02  0.54367112880E+02  0.40000065432E+02 0.  0.
        -12    1    3    3    0    0 -0.29638067081E+02  0.18631166432E+02  0.11412376849E+02  0.36820887120E+02  0.00000000000E+00 0.  1.
         11    1    4    4    0    0  0.31667495853E+02 -0.25696151237E+01 -0.77448368462E+01  0.32701922168E+02  0.51100000000E-03 0. -1.
        -11    1    4    4    0    0  0.36066977366E+01  0.68577587989E+00 -0.89359839212E+00  0.37785017491E+01  0.51100000000E-03 0.  1.
        -12    1    4    4    0    0 -0.56361265081E+01 -0.16747327189E+02 -0.27739416111E+01  0.17886688962E+02  0.00000000000E+00 0.  1.
</event>
<event>
 8    1  0.1240174E-006  0.9118800E+02  0.7816164E-02  0.1184000E+00
        -11   -1    0    0    0    0  0.00000000000E+00  0.00000000000E+00  0.45593999997E+02  0.45594000000E+02  0.51100000000E-03 0. -1.
         11   -1    0    0    0    0 -0.00000000000E+00 -0.00000000000E+00 -0.45593999997E+02  0.45594000000E+02  0.51100000000E-03 0.  1.
         23    2    1    2    0    0 -0.71054273576E-14  0.17763568394E-14  0.17763568394E-14  0.91188000000E+02  0.91188000000E+02 0.  0.
    9900012    2    3    3    0    0 -0.34577745150E+02  0.90651043374E+01  0.88311919639E+01  0.54366993389E+02  0.39999793028E+02 0.  0.
        -12    1    3    3    0    0  0.34577745150E+02 -0.90651043374E+01 -0.88311919639E+01  0.36821006611E+02  0.00000000000E+00 0.  1.
         11    1    4    4    0    0 -0.28607162183E+02 -0.10121921564E+02  0.46739299027E+01  0.30702909394E+02  0.51100000000E-03 0.  1.
        -11    1    4    4    0    0 -0.92302742565E+01  0.10698470002E+02  0.34416743969E+01  0.14543051473E+02  0.51100000000E-03 0. -1.
        -12    1    4    4    0    0  0.32596912886E+01  0.84885558989E+01  0.71558766427E+00  0.91210325212E+01  0.00000000000E+00 0.  1.
</event>
<event>
 8    1  0.1240174E-006  0.9118800E+02  0.7816164E-02  0.1184000E+00
        -11   -1    0    0    0    0  0.00000000000E+00  0.00000000000E+00  0.45593999997E+02  0.45594000000E+02  0.51100000000E-03 0. -1.
         11   -1    0    0    0    0 -0.00000000000E+00 -0.00000000000E+00 -0.45593999997E+02  0.45594000000E+02  0.51100000000E-03 0.  1.
         23    2    1    2    0    0 -0.35527136788E-14  0.17763568394E-14  0.00000000000E+00  0.91188000000E+02  0.91188000000E+02 0.  0.
    9900012    2    3    3    0    0 -0.29754787949E+02  0.12024228419E+02  0.18051328231E+02  0.54367083039E+02  0.39999997404E+02 0.  0.
        -12    1    3    3    0    0  0.29754787949E+02 -0.12024228419E+02 -0.18051328231E+02  0.36820916961E+02  0.00000000000E+00 0.  1.
         11    1    4    4    0    0 -0.25037443831E+01 -0.32246892940E+01  0.29919178180E+00  0.40935159658E+01  0.51100000000E-03 0.  1.
        -11    1    4    4    0    0 -0.31307002292E+02  0.21065271753E+02  0.20163785455E+02  0.42783785605E+02  0.51100000000E-03 0. -1.
        -12    1    4    4    0    0  0.40559587262E+01 -0.58163540403E+01 -0.24116490060E+01  0.74897814680E+01  0.00000000000E+00 0.  1.
</event>
<event>
 8    1  0.1240174E-006  0.9118800E+02  0.7816164E-02  0.1184000E+00
        -11   -1    0    0    0    0  0.00000000000E+00  0.00000000000E+00  0.45593999997E+02  0.45594000000E+02  0.51100000000E-03 0.  1.
         11   -1    0    0    0    0 -0.00000000000E+00 -0.00000000000E+00 -0.45593999997E+02  0.45594000000E+02  0.51100000000E-03 0. -1.
         23    2    1    2    0    0  0.00000000000E+00  0.00000000000E+00  0.00000000000E+00  0.91188000000E+02  0.91188000000E+02 0.  0.
    9900012    2    3    3    0    0 -0.18756322116E+02  0.19774190685E+02 -0.24758053664E+02  0.54367089394E+02  0.40000011893E+02 0.  0.
        -12    1    3    3    0    0  0.18756322116E+02 -0.19774190685E+02  0.24758053664E+02  0.36820910606E+02  0.00000000000E+00 0.  1.
         11    1    4    4    0    0  0.28454745064E+01  0.87155210747E+01 -0.60614797096E+01  0.10990840245E+02  0.51100000000E-03 0. -1.
        -11    1    4    4    0    0 -0.94427689354E+01  0.16109998220E+02  0.20696066377E+01  0.18787793902E+02  0.51100000000E-03 0.  1.
        -12    1    4    4    0    0 -0.12159027687E+02 -0.50513286097E+01 -0.20766180592E+02  0.24588455247E+02  0.00000000000E+00 0.  1.
</event>
<event>
 8    1  0.1240174E-006  0.9118800E+02  0.7816164E-02  0.1184000E+00
        -11   -1    0    0    0    0  0.00000000000E+00  0.00000000000E+00  0.45593999997E+02  0.45594000000E+02  0.51100000000E-03 0.  1.
         11   -1    0    0    0    0 -0.00000000000E+00 -0.00000000000E+00 -0.45593999997E+02  0.45594000000E+02  0.51100000000E-03 0. -1.
         23    2    1    2    0    0 -0.35527136788E-14  0.00000000000E+00  0.00000000000E+00  0.91188000000E+02  0.91188000000E+02 0.  0.
    9900012    2    3    3    0    0 -0.19399161027E+02  0.10592109310E+02 -0.29449264363E+02  0.54367090184E+02  0.40000013692E+02 0.  0.
        -12    1    3    3    0    0  0.19399161027E+02 -0.10592109310E+02  0.29449264363E+02  0.36820909816E+02  0.00000000000E+00 0.  1.
         11    1    4    4    0    0 -0.21534618873E+02 -0.55330342395E+00 -0.20478152354E+02  0.29722057108E+02  0.51100000000E-03 0. -1.
        -11    1    4    4    0    0 -0.34717455668E+01  0.96451751641E+01  0.35465076649E+01  0.10847125799E+02  0.51100000000E-03 0.  1.
         12    1    4    4    0    0  0.56072034129E+01  0.15002375696E+01 -0.12517619675E+02  0.13797907276E+02  0.00000000000E+00 0. -1.
</event>
<event>
 8    1  0.1240174E-006  0.9118800E+02  0.7816164E-02  0.1184000E+00
        -11   -1    0    0    0    0  0.00000000000E+00  0.00000000000E+00  0.45593999997E+02  0.45594000000E+02  0.51100000000E-03 0. -1.
         11   -1    0    0    0    0 -0.00000000000E+00 -0.00000000000E+00 -0.45593999997E+02  0.45594000000E+02  0.51100000000E-03 0.  1.
         23    2    1    2    0    0  0.00000000000E+00  0.35527136788E-14 -0.35527136788E-14  0.91188000000E+02  0.91188000000E+02 0.  0.
    9900012    2    3    3    0    0  0.23285146270E+02  0.11933223329E+02 -0.25907158594E+02  0.54367072224E+02  0.39999972749E+02 0.  0.
         12    1    3    3    0    0 -0.23285146270E+02 -0.11933223329E+02  0.25907158594E+02  0.36820927776E+02  0.00000000000E+00 0. -1.
         11    1    4    4    0    0  0.19304830573E+02  0.19072218534E+02 -0.27817296070E+02  0.38861651588E+02  0.51100000000E-03 0.  1.
        -11    1    4    4    0    0  0.68083935966E+01 -0.91716808307E+01  0.30815851623E+01  0.11830896838E+02  0.51100000000E-03 0. -1.
         12    1    4    4    0    0 -0.28280778988E+01  0.20326856261E+01 -0.11714476871E+01  0.36745237977E+01  0.00000000000E+00 0. -1.
</event>
<event>
 8    1  0.1240174E-006  0.9118800E+02  0.7816164E-02  0.1184000E+00
        -11   -1    0    0    0    0  0.00000000000E+00  0.00000000000E+00  0.45593999997E+02  0.45594000000E+02  0.51100000000E-03 0.  1.
         11   -1    0    0    0    0 -0.00000000000E+00 -0.00000000000E+00 -0.45593999997E+02  0.45594000000E+02  0.51100000000E-03 0. -1.
         23    2    1    2    0    0  0.00000000000E+00  0.00000000000E+00  0.00000000000E+00  0.91188000000E+02  0.91188000000E+02 0.  0.
    9900012    2    3    3    0    0  0.12537001494E+02  0.28906923712E+02 -0.19052380488E+02  0.54367084107E+02  0.39999999838E+02 0.  0.
        -12    1    3    3    0    0 -0.12537001494E+02 -0.28906923712E+02  0.19052380488E+02  0.36820915893E+02  0.00000000000E+00 0.  1.
         11    1    4    4    0    0  0.49222234801E+01  0.20323776184E+01 -0.16324417144E+02  0.17171063978E+02  0.51100000000E-03 0. -1.
        -11    1    4    4    0    0 -0.88555151773E+01  0.11730937445E+02 -0.17314157471E+01  0.14799758212E+02  0.51100000000E-03 0.  1.
         12    1    4    4    0    0  0.16470293191E+02  0.15143608649E+02 -0.99654759673E+00  0.22396261916E+02  0.00000000000E+00 0. -1.
</event>
<event>
 8    1  0.1240174E-006  0.9118800E+02  0.7816164E-02  0.1184000E+00
        -11   -1    0    0    0    0  0.00000000000E+00  0.00000000000E+00  0.45593999997E+02  0.45594000000E+02  0.51100000000E-03 0. -1.
         11   -1    0    0    0    0 -0.00000000000E+00 -0.00000000000E+00 -0.45593999997E+02  0.45594000000E+02  0.51100000000E-03 0.  1.
         23    2    1    2    0    0  0.00000000000E+00  0.00000000000E+00  0.00000000000E+00  0.91188000000E+02  0.91188000000E+02 0.  0.
    9900012    2    3    3    0    0  0.74806635137E+01  0.11394828441E+02 -0.34204934488E+02  0.54367082235E+02  0.39999995570E+02 0.  0.
         12    1    3    3    0    0 -0.74806635137E+01 -0.11394828441E+02  0.34204934488E+02  0.36820917765E+02  0.00000000000E+00 0. -1.
         11    1    4    4    0    0  0.96983750431E+00  0.19808775440E+00  0.49376532068E+01  0.50358954511E+01  0.51100000000E-03 0. -1.
        -11    1    4    4    0    0  0.69876780810E+01  0.19820330155E+02 -0.24019742691E+02  0.31915845150E+02  0.51100000000E-03 0.  1.
        -12    1    4    4    0    0 -0.47685207169E+00 -0.86235894688E+01 -0.15122845003E+02  0.17415341634E+02  0.00000000000E+00 0.  1.
</event>
<event>
 8    1  0.1240174E-006  0.9118800E+02  0.7816164E-02  0.1184000E+00
        -11   -1    0    0    0    0  0.00000000000E+00  0.00000000000E+00  0.45593999997E+02  0.45594000000E+02  0.51100000000E-03 0.  1.
         11   -1    0    0    0    0 -0.00000000000E+00 -0.00000000000E+00 -0.45593999997E+02  0.45594000000E+02  0.51100000000E-03 0. -1.
         23    2    1    2    0    0  0.44408920985E-15  0.00000000000E+00  0.00000000000E+00  0.91188000000E+02  0.91188000000E+02 0.  0.
    9900012    2    3    3    0    0  0.33885939179E+01 -0.25025290301E+02  0.26796128660E+02  0.54367078847E+02  0.39999987848E+02 0.  0.
         12    1    3    3    0    0 -0.33885939179E+01  0.25025290301E+02 -0.26796128660E+02  0.36820921153E+02  0.00000000000E+00 0. -1.
         11    1    4    4    0    0  0.55819697600E+01 -0.38084372168E+01 -0.37503862968E+01  0.77283878055E+01  0.51100000000E-03 0. -1.
        -11    1    4    4    0    0 -0.55643958212E+01 -0.73515720807E+01 -0.33906964699E+01  0.98236925707E+01  0.51100000000E-03 0.  1.
        -12    1    4    4    0    0  0.33710199791E+01 -0.13865281003E+02  0.33937211427E+02  0.36814998471E+02  0.00000000000E+00 0.  1.
</event>
<event>
 8    1  0.1240174E-006  0.9118800E+02  0.7816164E-02  0.1184000E+00
        -11   -1    0    0    0    0  0.00000000000E+00  0.00000000000E+00  0.45593999997E+02  0.45594000000E+02  0.51100000000E-03 0. -1.
         11   -1    0    0    0    0 -0.00000000000E+00 -0.00000000000E+00 -0.45593999997E+02  0.45594000000E+02  0.51100000000E-03 0.  1.
         23    2    1    2    0    0 -0.71054273576E-14  0.00000000000E+00  0.35527136788E-14  0.91188000000E+02  0.91188000000E+02 0.  0.
    9900012    2    3    3    0    0 -0.28673897119E+02  0.48489511321E+01  0.22584878029E+02  0.54367062768E+02  0.39999951191E+02 0.  0.
        -12    1    3    3    0    0  0.28673897119E+02 -0.48489511321E+01 -0.22584878029E+02  0.36820937232E+02  0.00000000000E+00 0.  1.
         11    1    4    4    0    0 -0.15345738401E+02  0.10117934781E+02  0.62942327583E+01  0.19428887193E+02  0.51100000000E-03 0. -1.
        -11    1    4    4    0    0  0.72404464489E+01 -0.67429369445E+01  0.27517511984E+01  0.10269537396E+02  0.51100000000E-03 0.  1.
        -12    1    4    4    0    0 -0.20568605168E+02  0.14739532959E+01  0.13538894072E+02  0.24668638178E+02  0.00000000000E+00 0.  1.
</event>
<event>
 8    1  0.1240174E-006  0.9118800E+02  0.7816164E-02  0.1184000E+00
        -11   -1    0    0    0    0  0.00000000000E+00  0.00000000000E+00  0.45593999997E+02  0.45594000000E+02  0.51100000000E-03 0. -1.
         11   -1    0    0    0    0 -0.00000000000E+00 -0.00000000000E+00 -0.45593999997E+02  0.45594000000E+02  0.51100000000E-03 0.  1.
         23    2    1    2    0    0  0.00000000000E+00  0.00000000000E+00  0.00000000000E+00  0.91188000000E+02  0.91188000000E+02 0.  0.
    9900012    2    3    3    0    0  0.10549809838E+02  0.82533341966E+01  0.34298206747E+02  0.54367041307E+02  0.39999902267E+02 0.  0.
        -12    1    3    3    0    0 -0.10549809838E+02 -0.82533341966E+01 -0.34298206747E+02  0.36820958693E+02  0.00000000000E+00 0.  1.
         11    1    4    4    0    0 -0.35233473622E+01  0.61982968087E+01  0.83375706140E+01  0.10970321051E+02  0.51100000000E-03 0. -1.
        -11    1    4    4    0    0  0.23364496914E+01 -0.19689003618E+01  0.30147533948E+02  0.30301969725E+02  0.51100000000E-03 0.  1.
        -12    1    4    4    0    0  0.11736707509E+02  0.40239377497E+01 -0.41868978143E+01  0.13094750531E+02  0.00000000000E+00 0.  1.
</event>
<event>
 8    1  0.1240174E-006  0.9118800E+02  0.7816164E-02  0.1184000E+00
        -11   -1    0    0    0    0  0.00000000000E+00  0.00000000000E+00  0.45593999997E+02  0.45594000000E+02  0.51100000000E-03 0.  1.
         11   -1    0    0    0    0 -0.00000000000E+00 -0.00000000000E+00 -0.45593999997E+02  0.45594000000E+02  0.51100000000E-03 0. -1.
         23    2    1    2    0    0  0.00000000000E+00  0.00000000000E+00  0.00000000000E+00  0.91188000000E+02  0.91188000000E+02 0.  0.
    9900012    2    3    3    0    0  0.47104785784E+01 -0.14031799033E+02 -0.33714999869E+02  0.54367065619E+02  0.39999957692E+02 0.  0.
        -12    1    3    3    0    0 -0.47104785784E+01  0.14031799033E+02  0.33714999869E+02  0.36820934381E+02  0.00000000000E+00 0.  1.
         11    1    4    4    0    0  0.34370538916E+00  0.58271763855E+01 -0.24265778196E+02  0.24958006927E+02  0.51100000000E-03 0. -1.
        -11    1    4    4    0    0  0.33206622138E+01  0.11549775833E+01  0.32882411666E+01  0.48138654932E+01  0.51100000000E-03 0.  1.
        -12    1    4    4    0    0  0.10461109755E+01 -0.21013953001E+02 -0.12737462839E+02  0.24595193199E+02  0.00000000000E+00 0.  1.
</event>
<event>
 8    1  0.1240174E-006  0.9118800E+02  0.7816164E-02  0.1184000E+00
        -11   -1    0    0    0    0  0.00000000000E+00  0.00000000000E+00  0.45593999997E+02  0.45594000000E+02  0.51100000000E-03 0.  1.
         11   -1    0    0    0    0 -0.00000000000E+00 -0.00000000000E+00 -0.45593999997E+02  0.45594000000E+02  0.51100000000E-03 0. -1.
         23    2    1    2    0    0  0.00000000000E+00 -0.17763568394E-14  0.00000000000E+00  0.91188000000E+02  0.91188000000E+02 0.  0.
    9900012    2    3    3    0    0 -0.34733225174E+02  0.97013667041E+01  0.74341042126E+01  0.54367090827E+02  0.40000015158E+02 0.  0.
         12    1    3    3    0    0  0.34733225174E+02 -0.97013667041E+01 -0.74341042126E+01  0.36820909173E+02  0.00000000000E+00 0. -1.
         11    1    4    4    0    0 -0.14218446940E+02 -0.13885074493E+01 -0.67133486772E+01  0.15784842002E+02  0.51100000000E-03 0. -1.
        -11    1    4    4    0    0 -0.10808003772E+02 -0.86489484944E+01  0.65167645547E+01  0.15299852160E+02  0.51100000000E-03 0.  1.
        -12    1    4    4    0    0 -0.97067744618E+01  0.19738822648E+02  0.76306883350E+01  0.23282396664E+02  0.00000000000E+00 0.  1.
</event>
<event>
 8    1  0.1240174E-006  0.9118800E+02  0.7816164E-02  0.1184000E+00
        -11   -1    0    0    0    0  0.00000000000E+00  0.00000000000E+00  0.45593999997E+02  0.45594000000E+02  0.51100000000E-03 0. -1.
         11   -1    0    0    0    0 -0.00000000000E+00 -0.00000000000E+00 -0.45593999997E+02  0.45594000000E+02  0.51100000000E-03 0.  1.
         23    2    1    2    0    0 -0.35527136788E-14  0.35527136788E-14  0.17763568394E-14  0.91188000000E+02  0.91188000000E+02 0.  0.
    9900012    2    3    3    0    0 -0.17119891099E+02  0.29437515382E+02  0.14004443280E+02  0.54367049242E+02  0.39999920358E+02 0.  0.
         12    1    3    3    0    0  0.17119891099E+02 -0.29437515382E+02 -0.14004443280E+02  0.36820950758E+02  0.00000000000E+00 0. -1.
         11    1    4    4    0    0 -0.49442198156E+00 -0.14581704650E+01  0.17035790119E+02  0.17105229009E+02  0.51100000000E-03 0. -1.
        -11    1    4    4    0    0 -0.97420925762E+01  0.24903898782E+02 -0.64638752253E+01  0.27511710698E+02  0.51100000000E-03 0.  1.
         12    1    4    4    0    0 -0.68833765415E+01  0.59917870646E+01  0.34325283864E+01  0.97501095359E+01  0.00000000000E+00 0. -1.
</event>
<event>
 8    1  0.1240174E-006  0.9118800E+02  0.7816164E-02  0.1184000E+00
        -11   -1    0    0    0    0  0.00000000000E+00  0.00000000000E+00  0.45593999997E+02  0.45594000000E+02  0.51100000000E-03 0. -1.
         11   -1    0    0    0    0 -0.00000000000E+00 -0.00000000000E+00 -0.45593999997E+02  0.45594000000E+02  0.51100000000E-03 0.  1.
         23    2    1    2    0    0  0.26645352591E-14  0.00000000000E+00  0.00000000000E+00  0.91188000000E+02  0.91188000000E+02 0.  0.
    9900012    2    3    3    0    0  0.72728892366E+01  0.26340495084E+02 -0.24679195907E+02  0.54367091405E+02  0.40000016476E+02 0.  0.
         12    1    3    3    0    0 -0.72728892366E+01 -0.26340495084E+02  0.24679195907E+02  0.36820908595E+02  0.00000000000E+00 0. -1.
         11    1    4    4    0    0 -0.35716131935E+01  0.30480288655E+01  0.57753335939E+01  0.74432102719E+01  0.51100000000E-03 0. -1.
        -11    1    4    4    0    0 -0.57676290375E+01  0.57039513796E+01 -0.17932839464E+02  0.19682157848E+02  0.51100000000E-03 0.  1.
        -12    1    4    4    0    0  0.16612131468E+02  0.17588514839E+02 -0.12521690038E+02  0.27241723285E+02  0.00000000000E+00 0.  1.
</event>
<event>
 8    1  0.1240174E-006  0.9118800E+02  0.7816164E-02  0.1184000E+00
        -11   -1    0    0    0    0  0.00000000000E+00  0.00000000000E+00  0.45593999997E+02  0.45594000000E+02  0.51100000000E-03 0.  1.
         11   -1    0    0    0    0 -0.00000000000E+00 -0.00000000000E+00 -0.45593999997E+02  0.45594000000E+02  0.51100000000E-03 0. -1.
         23    2    1    2    0    0 -0.35527136788E-14  0.00000000000E+00  0.00000000000E+00  0.91188000000E+02  0.91188000000E+02 0.  0.
    9900012    2    3    3    0    0 -0.27811814786E+02  0.10939802004E+02  0.21508200728E+02  0.54367095501E+02  0.40000025813E+02 0.  0.
         12    1    3    3    0    0  0.27811814786E+02 -0.10939802004E+02 -0.21508200728E+02  0.36820904499E+02  0.00000000000E+00 0. -1.
         11    1    4    4    0    0 -0.66286894035E+01  0.17125297368E-01  0.20675811080E+02  0.21712415355E+02  0.51100000000E-03 0.  1.
        -11    1    4    4    0    0 -0.48009823419E+01  0.11318815447E+02  0.81054084000E+01  0.14726257507E+02  0.51100000000E-03 0. -1.
         12    1    4    4    0    0 -0.16382143041E+02 -0.39613874017E+00 -0.72730187522E+01  0.17928422638E+02  0.00000000000E+00 0. -1.
</event>
<event>
 8    1  0.1240174E-006  0.9118800E+02  0.7816164E-02  0.1184000E+00
        -11   -1    0    0    0    0  0.00000000000E+00  0.00000000000E+00  0.45593999997E+02  0.45594000000E+02  0.51100000000E-03 0.  1.
         11   -1    0    0    0    0 -0.00000000000E+00 -0.00000000000E+00 -0.45593999997E+02  0.45594000000E+02  0.51100000000E-03 0. -1.
         23    2    1    2    0    0 -0.88817841970E-15  0.00000000000E+00  0.17763568394E-14  0.91188000000E+02  0.91188000000E+02 0.  0.
    9900012    2    3    3    0    0  0.74251855860E+01  0.33476251778E+02  0.13415935361E+02  0.54367080189E+02  0.39999990907E+02 0.  0.
        -12    1    3    3    0    0 -0.74251855860E+01 -0.33476251778E+02 -0.13415935361E+02  0.36820919811E+02  0.00000000000E+00 0.  1.
         11    1    4    4    0    0  0.64609158638E+01  0.15926131412E+02  0.88401705487E+01  0.19327020235E+02  0.51100000000E-03 0.  1.
        -11    1    4    4    0    0  0.12153102974E+02  0.65027389992E+01 -0.70532294295E+01  0.15483267485E+02  0.51100000000E-03 0. -1.
         12    1    4    4    0    0 -0.11188833251E+02  0.11047381367E+02  0.11628994242E+02  0.19556792469E+02  0.00000000000E+00 0. -1.
</event>
<event>
 8    1  0.1240174E-006  0.9118800E+02  0.7816164E-02  0.1184000E+00
        -11   -1    0    0    0    0  0.00000000000E+00  0.00000000000E+00  0.45593999997E+02  0.45594000000E+02  0.51100000000E-03 0.  1.
         11   -1    0    0    0    0 -0.00000000000E+00 -0.00000000000E+00 -0.45593999997E+02  0.45594000000E+02  0.51100000000E-03 0. -1.
         23    2    1    2    0    0 -0.17763568394E-14  0.00000000000E+00 -0.71054273576E-14  0.91188000000E+02  0.91188000000E+02 0.  0.
    9900012    2    3    3    0    0 -0.53525114144E+01 -0.11346956893E+02 -0.34617481861E+02  0.54367178994E+02  0.40000216152E+02 0.  0.
        -12    1    3    3    0    0  0.53525114144E+01  0.11346956893E+02  0.34617481861E+02  0.36820821006E+02  0.00000000000E+00 0.  1.
         11    1    4    4    0    0 -0.68592596889E+01  0.69124945960E+01 -0.22139006537E+02  0.24186104187E+02  0.51100000000E-03 0. -1.
        -11    1    4    4    0    0  0.70658556774E+01 -0.79911479897E+01  0.27264943701E+01  0.11009928903E+02  0.51100000000E-03 0.  1.
        -12    1    4    4    0    0 -0.55591074029E+01 -0.10268303500E+02 -0.15204969694E+02  0.19171145904E+02  0.00000000000E+00 0.  1.
</event>
<event>
 8    1  0.1240174E-006  0.9118800E+02  0.7816164E-02  0.1184000E+00
        -11   -1    0    0    0    0  0.00000000000E+00  0.00000000000E+00  0.45593999997E+02  0.45594000000E+02  0.51100000000E-03 0.  1.
         11   -1    0    0    0    0 -0.00000000000E+00 -0.00000000000E+00 -0.45593999997E+02  0.45594000000E+02  0.51100000000E-03 0. -1.
         23    2    1    2    0    0 -0.71054273576E-14  0.35527136788E-14 -0.71054273576E-14  0.91188000000E+02  0.91188000000E+02 0.  0.
    9900012    2    3    3    0    0 -0.19004400559E+02  0.17739787069E+02 -0.26075067559E+02  0.54367130455E+02  0.40000105498E+02 0.  0.
        -12    1    3    3    0    0  0.19004400559E+02 -0.17739787069E+02  0.26075067559E+02  0.36820869545E+02  0.00000000000E+00 0.  1.
         11    1    4    4    0    0  0.79079338193E+01  0.85794198904E+01  0.22782471120E+01  0.11888325076E+02  0.51100000000E-03 0. -1.
        -11    1    4    4    0    0 -0.15775633389E+02  0.37395047193E+01 -0.24735467363E+02  0.29575291212E+02  0.51100000000E-03 0.  1.
         12    1    4    4    0    0 -0.11136700989E+02  0.54208624592E+01 -0.36178473085E+01  0.12903514167E+02  0.00000000000E+00 0. -1.
</event>
<event>
 8    1  0.1240174E-006  0.9118800E+02  0.7816164E-02  0.1184000E+00
        -11   -1    0    0    0    0  0.00000000000E+00  0.00000000000E+00  0.45593999997E+02  0.45594000000E+02  0.51100000000E-03 0. -1.
         11   -1    0    0    0    0 -0.00000000000E+00 -0.00000000000E+00 -0.45593999997E+02  0.45594000000E+02  0.51100000000E-03 0.  1.
         23    2    1    2    0    0  0.00000000000E+00  0.35527136788E-14  0.00000000000E+00  0.91188000000E+02  0.91188000000E+02 0.  0.
    9900012    2    3    3    0    0  0.25568281719E+02  0.26316952628E+02  0.30758229825E+01  0.54367085933E+02  0.40000004002E+02 0.  0.
        -12    1    3    3    0    0 -0.25568281719E+02 -0.26316952628E+02 -0.30758229825E+01  0.36820914067E+02  0.00000000000E+00 0.  1.
         11    1    4    4    0    0  0.90518262323E+01  0.13448064165E+02  0.11948375378E+02  0.20138263638E+02  0.51100000000E-03 0. -1.
        -11    1    4    4    0    0  0.16884796955E+02  0.95428695840E+01 -0.16777574743E+02  0.25644682540E+02  0.51100000000E-03 0.  1.
        -12    1    4    4    0    0 -0.36834146743E+00  0.33260188784E+01  0.79050223474E+01  0.85841397547E+01  0.00000000000E+00 0.  1.
</event>
<event>
 8    1  0.1240174E-006  0.9118800E+02  0.7816164E-02  0.1184000E+00
        -11   -1    0    0    0    0  0.00000000000E+00  0.00000000000E+00  0.45593999997E+02  0.45594000000E+02  0.51100000000E-03 0. -1.
         11   -1    0    0    0    0 -0.00000000000E+00 -0.00000000000E+00 -0.45593999997E+02  0.45594000000E+02  0.51100000000E-03 0.  1.
         23    2    1    2    0    0  0.35527136788E-14  0.00000000000E+00  0.55511151231E-16  0.91188000000E+02  0.91188000000E+02 0.  0.
    9900012    2    3    3    0    0  0.28599197730E+02 -0.23190228000E+02 -0.28088298447E+00  0.54367086368E+02  0.40000004993E+02 0.  0.
        -12    1    3    3    0    0 -0.28599197730E+02  0.23190228000E+02  0.28088298447E+00  0.36820913632E+02  0.00000000000E+00 0.  1.
         11    1    4    4    0    0  0.19344403014E+02 -0.11966245294E+02 -0.15723690948E+02  0.27651969400E+02  0.51100000000E-03 0. -1.
        -11    1    4    4    0    0 -0.91171932064E-01 -0.11543106449E+02  0.12254283497E+02  0.16835055186E+02  0.51100000000E-03 0.  1.
        -12    1    4    4    0    0  0.93459666477E+01  0.31912374337E+00  0.31885244667E+01  0.98800617821E+01  0.00000000000E+00 0.  1.
</event>
<event>
 8    1  0.1240174E-006  0.9118800E+02  0.7816164E-02  0.1184000E+00
        -11   -1    0    0    0    0  0.00000000000E+00  0.00000000000E+00  0.45593999997E+02  0.45594000000E+02  0.51100000000E-03 0.  1.
         11   -1    0    0    0    0 -0.00000000000E+00 -0.00000000000E+00 -0.45593999997E+02  0.45594000000E+02  0.51100000000E-03 0. -1.
         23    2    1    2    0    0  0.17763568394E-14  0.00000000000E+00  0.00000000000E+00  0.91188000000E+02  0.91188000000E+02 0.  0.
    9900012    2    3    3    0    0  0.12314742170E+02 -0.34210592940E+02  0.58105289950E+01  0.54367084867E+02  0.40000001571E+02 0.  0.
        -12    1    3    3    0    0 -0.12314742170E+02  0.34210592940E+02 -0.58105289950E+01  0.36820915133E+02  0.00000000000E+00 0.  1.
         11    1    4    4    0    0  0.53707707030E+01 -0.17796307335E+02 -0.64078716189E+01  0.19662516412E+02  0.51100000000E-03 0. -1.
        -11    1    4    4    0    0 -0.78332133857E+01  0.44463634004E+00 -0.20770105231E+01  0.81160893536E+01  0.51100000000E-03 0.  1.
        -12    1    4    4    0    0  0.14777184853E+02 -0.16858921946E+02  0.14295411137E+02  0.26588479101E+02  0.00000000000E+00 0.  1.
</event>
<event>
 8    1  0.1240174E-006  0.9118800E+02  0.7816164E-02  0.1184000E+00
        -11   -1    0    0    0    0  0.00000000000E+00  0.00000000000E+00  0.45593999997E+02  0.45594000000E+02  0.51100000000E-03 0. -1.
         11   -1    0    0    0    0 -0.00000000000E+00 -0.00000000000E+00 -0.45593999997E+02  0.45594000000E+02  0.51100000000E-03 0.  1.
         23    2    1    2    0    0  0.00000000000E+00  0.00000000000E+00  0.00000000000E+00  0.91188000000E+02  0.91188000000E+02 0.  0.
    9900012    2    3    3    0    0  0.26480237961E+02 -0.11738569028E+02  0.22732871248E+02  0.54367076051E+02  0.39999981473E+02 0.  0.
        -12    1    3    3    0    0 -0.26480237961E+02  0.11738569028E+02 -0.22732871248E+02  0.36820923949E+02  0.00000000000E+00 0.  1.
         11    1    4    4    0    0  0.10139292409E+02 -0.52364895932E+01  0.21809147010E+02  0.24614324435E+02  0.51100000000E-03 0. -1.
        -11    1    4    4    0    0  0.14630533072E+02  0.52372650048E+01  0.62489694767E+01  0.16749061540E+02  0.51100000000E-03 0.  1.
         12    1    4    4    0    0  0.17104124798E+01 -0.11739344440E+02 -0.53252452389E+01  0.13003690075E+02  0.00000000000E+00 0. -1.
</event>
<event>
 8    1  0.1240174E-006  0.9118800E+02  0.7816164E-02  0.1184000E+00
        -11   -1    0    0    0    0  0.00000000000E+00  0.00000000000E+00  0.45593999997E+02  0.45594000000E+02  0.51100000000E-03 0.  1.
         11   -1    0    0    0    0 -0.00000000000E+00 -0.00000000000E+00 -0.45593999997E+02  0.45594000000E+02  0.51100000000E-03 0. -1.
         23    2    1    2    0    0  0.35527136788E-14  0.00000000000E+00 -0.13322676296E-14  0.91188000000E+02  0.91188000000E+02 0.  0.
    9900012    2    3    3    0    0  0.28957781410E+02  0.22740505144E+02 -0.30675517856E+00  0.54367112216E+02  0.40000063919E+02 0.  0.
         12    1    3    3    0    0 -0.28957781410E+02 -0.22740505144E+02  0.30675517856E+00  0.36820887784E+02  0.00000000000E+00 0. -1.
         11    1    4    4    0    0  0.74205657414E+01 -0.61306561017E+01  0.66550134169E+01  0.11702091437E+02  0.51100000000E-03 0.  1.
        -11    1    4    4    0    0  0.26836842512E+01  0.14026574529E+02  0.58853445791E+01  0.15446172188E+02  0.51100000000E-03 0. -1.
        -12    1    4    4    0    0  0.18853531418E+02  0.14844586717E+02 -0.12847113175E+02  0.27218848591E+02  0.00000000000E+00 0.  1.
</event>
<event>
 8    1  0.1240174E-006  0.9118800E+02  0.7816164E-02  0.1184000E+00
        -11   -1    0    0    0    0  0.00000000000E+00  0.00000000000E+00  0.45593999997E+02  0.45594000000E+02  0.51100000000E-03 0.  1.
         11   -1    0    0    0    0 -0.00000000000E+00 -0.00000000000E+00 -0.45593999997E+02  0.45594000000E+02  0.51100000000E-03 0. -1.
         23    2    1    2    0    0  0.00000000000E+00 -0.17763568394E-14  0.00000000000E+00  0.91188000000E+02  0.91188000000E+02 0.  0.
    9900012    2    3    3    0    0  0.41266447387E+01 -0.15428686080E+02 -0.33176879865E+02  0.54367096854E+02  0.40000028898E+02 0.  0.
        -12    1    3    3    0    0 -0.41266447387E+01  0.15428686080E+02  0.33176879865E+02  0.36820903146E+02  0.00000000000E+00 0.  1.
         11    1    4    4    0    0  0.16505706582E+01  0.52106306552E+01 -0.27282570149E+02  0.27824695677E+02  0.51100000000E-03 0. -1.
        -11    1    4    4    0    0 -0.59524695740E+01 -0.88831528651E+01  0.54832852224E+00  0.10707145431E+02  0.51100000000E-03 0.  1.
         12    1    4    4    0    0  0.84285436544E+01 -0.11756163870E+02 -0.64426382378E+01  0.15835255746E+02  0.00000000000E+00 0. -1.
</event>
<event>
 8    1  0.1240174E-006  0.9118800E+02  0.7816164E-02  0.1184000E+00
        -11   -1    0    0    0    0  0.00000000000E+00  0.00000000000E+00  0.45593999997E+02  0.45594000000E+02  0.51100000000E-03 0. -1.
         11   -1    0    0    0    0 -0.00000000000E+00 -0.00000000000E+00 -0.45593999997E+02  0.45594000000E+02  0.51100000000E-03 0.  1.
         23    2    1    2    0    0  0.00000000000E+00 -0.71054273576E-14 -0.17763568394E-14  0.91188000000E+02  0.91188000000E+02 0.  0.
    9900012    2    3    3    0    0 -0.29130215376E+01  0.34760513403E+02  0.11789882096E+02  0.54367077872E+02  0.39999985624E+02 0.  0.
        -12    1    3    3    0    0  0.29130215376E+01 -0.34760513403E+02 -0.11789882096E+02  0.36820922128E+02  0.00000000000E+00 0.  1.
         11    1    4    4    0    0 -0.68821219324E+01 -0.14825398077E+01 -0.87212360440E+00  0.70938090203E+01  0.51100000000E-03 0. -1.
        -11    1    4    4    0    0  0.68261058531E+01  0.13764133805E+02 -0.73594358974E+01  0.17035504028E+02  0.51100000000E-03 0.  1.
         12    1    4    4    0    0 -0.28570054583E+01  0.22478919406E+02  0.20021441597E+02  0.30237764823E+02  0.00000000000E+00 0. -1.
</event>
<event>
 8    1  0.1240174E-006  0.9118800E+02  0.7816164E-02  0.1184000E+00
        -11   -1    0    0    0    0  0.00000000000E+00  0.00000000000E+00  0.45593999997E+02  0.45594000000E+02  0.51100000000E-03 0.  1.
         11   -1    0    0    0    0 -0.00000000000E+00 -0.00000000000E+00 -0.45593999997E+02  0.45594000000E+02  0.51100000000E-03 0. -1.
         23    2    1    2    0    0  0.00000000000E+00  0.88817841970E-15  0.35527136788E-14  0.91188000000E+02  0.91188000000E+02 0.  0.
    9900012    2    3    3    0    0  0.31707695621E+02  0.78737155061E+01 -0.16982526521E+02  0.54367087946E+02  0.40000008591E+02 0.  0.
        -12    1    3    3    0    0 -0.31707695621E+02 -0.78737155061E+01  0.16982526521E+02  0.36820912054E+02  0.00000000000E+00 0.  1.
         11    1    4    4    0    0  0.26605878129E+01  0.39727544710E-01  0.50901543704E+01  0.57436902391E+01  0.51100000000E-03 0. -1.
        -11    1    4    4    0    0 -0.34052891576E+00  0.75522557925E+00  0.67830793093E+01  0.68334830647E+01  0.51100000000E-03 0.  1.
         12    1    4    4    0    0  0.29387636723E+02  0.70787623821E+01 -0.28855760201E+02  0.41789914642E+02  0.00000000000E+00 0. -1.
</event>
<event>
 8    1  0.1240174E-006  0.9118800E+02  0.7816164E-02  0.1184000E+00
        -11   -1    0    0    0    0  0.00000000000E+00  0.00000000000E+00  0.45593999997E+02  0.45594000000E+02  0.51100000000E-03 0.  1.
         11   -1    0    0    0    0 -0.00000000000E+00 -0.00000000000E+00 -0.45593999997E+02  0.45594000000E+02  0.51100000000E-03 0. -1.
         23    2    1    2    0    0  0.00000000000E+00  0.00000000000E+00  0.17763568394E-14  0.91188000000E+02  0.91188000000E+02 0.  0.
    9900012    2    3    3    0    0 -0.22406203986E+02 -0.24646369565E+02 -0.15693921184E+02  0.54367072909E+02  0.39999974310E+02 0.  0.
        -12    1    3    3    0    0  0.22406203986E+02  0.24646369565E+02  0.15693921184E+02  0.36820927091E+02  0.00000000000E+00 0.  1.
         11    1    4    4    0    0  0.14035879626E+01  0.27656250833E+01 -0.56983059040E+01  0.64876368354E+01  0.51100000000E-03 0. -1.
        -11    1    4    4    0    0 -0.26155016238E+02 -0.14894239284E+02  0.22879098563E+01  0.30185390010E+02  0.51100000000E-03 0.  1.
         12    1    4    4    0    0  0.23452242902E+01 -0.12517755364E+02 -0.12283525136E+02  0.17694046063E+02  0.00000000000E+00 0. -1.
</event>
<event>
 8    1  0.1240174E-006  0.9118800E+02  0.7816164E-02  0.1184000E+00
        -11   -1    0    0    0    0  0.00000000000E+00  0.00000000000E+00  0.45593999997E+02  0.45594000000E+02  0.51100000000E-03 0.  1.
         11   -1    0    0    0    0 -0.00000000000E+00 -0.00000000000E+00 -0.45593999997E+02  0.45594000000E+02  0.51100000000E-03 0. -1.
         23    2    1    2    0    0  0.35527136788E-14  0.00000000000E+00  0.35527136788E-14  0.91188000000E+02  0.91188000000E+02 0.  0.
    9900012    2    3    3    0    0 -0.20386763826E+02  0.25881464244E+02  0.16441094739E+02  0.54367083024E+02  0.39999997370E+02 0.  0.
        -12    1    3    3    0    0  0.20386763826E+02 -0.25881464244E+02 -0.16441094739E+02  0.36820916976E+02  0.00000000000E+00 0.  1.
         11    1    4    4    0    0 -0.26069112293E+02  0.21145708696E+02  0.12848022439E+02  0.35941776429E+02  0.51100000000E-03 0. -1.
        -11    1    4    4    0    0  0.73115401755E+01  0.21448361847E+01  0.92556293923E+01  0.11988561953E+02  0.51100000000E-03 0.  1.
         12    1    4    4    0    0 -0.16291917084E+01  0.25909193636E+01 -0.56625570919E+01  0.64367446423E+01  0.00000000000E+00 0. -1.
</event>
<event>
 8    1  0.1240174E-006  0.9118800E+02  0.7816164E-02  0.1184000E+00
        -11   -1    0    0    0    0  0.00000000000E+00  0.00000000000E+00  0.45593999997E+02  0.45594000000E+02  0.51100000000E-03 0.  1.
         11   -1    0    0    0    0 -0.00000000000E+00 -0.00000000000E+00 -0.45593999997E+02  0.45594000000E+02  0.51100000000E-03 0. -1.
         23    2    1    2    0    0  0.13322676296E-14 -0.29143354396E-15  0.00000000000E+00  0.91188000000E+02  0.91188000000E+02 0.  0.
    9900012    2    3    3    0    0  0.24462295423E+01 -0.44395555185E-01  0.36739535847E+02  0.54367088765E+02  0.40000010457E+02 0.  0.
         12    1    3    3    0    0 -0.24462295423E+01  0.44395555185E-01 -0.36739535847E+02  0.36820911235E+02  0.00000000000E+00 0. -1.
         11    1    4    4    0    0  0.36442838351E+01 -0.30251220453E+01 -0.15538956402E+01  0.49846524433E+01  0.51100000000E-03 0. -1.
        -11    1    4    4    0    0  0.76956948624E+01 -0.82481665747E+01  0.35889012396E+01  0.11837912976E+02  0.51100000000E-03 0.  1.
        -12    1    4    4    0    0 -0.88937491552E+01  0.11228893065E+02  0.34704530248E+02  0.37544523345E+02  0.00000000000E+00 0.  1.
</event>
<event>
 8    1  0.1240174E-006  0.9118800E+02  0.7816164E-02  0.1184000E+00
        -11   -1    0    0    0    0  0.00000000000E+00  0.00000000000E+00  0.45593999997E+02  0.45594000000E+02  0.51100000000E-03 0. -1.
         11   -1    0    0    0    0 -0.00000000000E+00 -0.00000000000E+00 -0.45593999997E+02  0.45594000000E+02  0.51100000000E-03 0.  1.
         23    2    1    2    0    0  0.71054273576E-14 -0.88817841970E-15  0.00000000000E+00  0.91188000000E+02  0.91188000000E+02 0.  0.
    9900012    2    3    3    0    0  0.36201985056E+02 -0.49627476254E+01 -0.45349642884E+01  0.54367102577E+02  0.40000041944E+02 0.  0.
        -12    1    3    3    0    0 -0.36201985056E+02  0.49627476254E+01  0.45349642884E+01  0.36820897423E+02  0.00000000000E+00 0.  1.
         11    1    4    4    0    0  0.54868107733E+00 -0.15642742577E+02 -0.28488121210E+01  0.15909499584E+02  0.51100000000E-03 0.  1.
        -11    1    4    4    0    0  0.60759093622E+01  0.28629880995E+01  0.32623781987E+01  0.74670266645E+01  0.51100000000E-03 0. -1.
        -12    1    4    4    0    0  0.29577394616E+02  0.78170068517E+01 -0.49485303662E+01  0.30990576329E+02  0.00000000000E+00 0.  1.
</event>
<event>
 8    1  0.1240174E-006  0.9118800E+02  0.7816164E-02  0.1184000E+00
        -11   -1    0    0    0    0  0.00000000000E+00  0.00000000000E+00  0.45593999997E+02  0.45594000000E+02  0.51100000000E-03 0. -1.
         11   -1    0    0    0    0 -0.00000000000E+00 -0.00000000000E+00 -0.45593999997E+02  0.45594000000E+02  0.51100000000E-03 0.  1.
         23    2    1    2    0    0  0.00000000000E+00  0.13322676296E-14  0.00000000000E+00  0.91188000000E+02  0.91188000000E+02 0.  0.
    9900012    2    3    3    0    0  0.25835212198E+02 -0.17005891311E+01 -0.26180721204E+02  0.54367077205E+02  0.39999984103E+02 0.  0.
         12    1    3    3    0    0 -0.25835212198E+02  0.17005891311E+01  0.26180721204E+02  0.36820922795E+02  0.00000000000E+00 0. -1.
         11    1    4    4    0    0  0.14347011745E+02  0.51593314338E+01  0.18603753717E+01  0.15359571727E+02  0.51100000000E-03 0. -1.
        -11    1    4    4    0    0  0.12559107044E+02  0.26928703101E+01 -0.26257522399E+02  0.29230809141E+02  0.51100000000E-03 0.  1.
         12    1    4    4    0    0 -0.10709065901E+01 -0.95527908749E+01 -0.17835741774E+01  0.97766963373E+01  0.00000000000E+00 0. -1.
</event>
<event>
 8    1  0.1240174E-006  0.9118800E+02  0.7816164E-02  0.1184000E+00
        -11   -1    0    0    0    0  0.00000000000E+00  0.00000000000E+00  0.45593999997E+02  0.45594000000E+02  0.51100000000E-03 0.  1.
         11   -1    0    0    0    0 -0.00000000000E+00 -0.00000000000E+00 -0.45593999997E+02  0.45594000000E+02  0.51100000000E-03 0. -1.
         23    2    1    2    0    0  0.35527136788E-14  0.17763568394E-14  0.00000000000E+00  0.91188000000E+02  0.91188000000E+02 0.  0.
    9900012    2    3    3    0    0  0.28365461483E+02  0.58983340660E+01 -0.22724181003E+02  0.54367107124E+02  0.40000052310E+02 0.  0.
        -12    1    3    3    0    0 -0.28365461483E+02 -0.58983340660E+01  0.22724181003E+02  0.36820892876E+02  0.00000000000E+00 0.  1.
         11    1    4    4    0    0  0.27711533949E+02  0.13440759661E+02 -0.28221850332E+02  0.41773867076E+02  0.51100000000E-03 0. -1.
        -11    1    4    4    0    0 -0.34549033720E+01 -0.42177709706E+01  0.47961110379E+01  0.72614482453E+01  0.51100000000E-03 0.  1.
         12    1    4    4    0    0  0.41088309059E+01 -0.33246546247E+01  0.70155829059E+00  0.53317918022E+01  0.00000000000E+00 0. -1.
</event>
<event>
 8    1  0.1240174E-006  0.9118800E+02  0.7816164E-02  0.1184000E+00
        -11   -1    0    0    0    0  0.00000000000E+00  0.00000000000E+00  0.45593999997E+02  0.45594000000E+02  0.51100000000E-03 0. -1.
         11   -1    0    0    0    0 -0.00000000000E+00 -0.00000000000E+00 -0.45593999997E+02  0.45594000000E+02  0.51100000000E-03 0.  1.
         23    2    1    2    0    0 -0.44408920985E-15 -0.35527136788E-14 -0.35527136788E-14  0.91188000000E+02  0.91188000000E+02 0.  0.
    9900012    2    3    3    0    0  0.37267779643E+01  0.24178738959E+02 -0.27518726296E+02  0.54367074040E+02  0.39999976888E+02 0.  0.
         12    1    3    3    0    0 -0.37267779643E+01 -0.24178738959E+02  0.27518726296E+02  0.36820925960E+02  0.00000000000E+00 0. -1.
         11    1    4    4    0    0  0.11165057267E+02  0.19491859721E+02 -0.12143617148E+02  0.25535436884E+02  0.51100000000E-03 0. -1.
        -11    1    4    4    0    0 -0.27152006908E+01 -0.85745584200E+01 -0.15992599848E+01  0.91352613345E+01  0.51100000000E-03 0.  1.
        -12    1    4    4    0    0 -0.47230786122E+01  0.13261437658E+02 -0.13775849163E+02  0.19696375821E+02  0.00000000000E+00 0.  1.
</event>
<event>
 8    1  0.1240174E-006  0.9118800E+02  0.7816164E-02  0.1184000E+00
        -11   -1    0    0    0    0  0.00000000000E+00  0.00000000000E+00  0.45593999997E+02  0.45594000000E+02  0.51100000000E-03 0.  1.
         11   -1    0    0    0    0 -0.00000000000E+00 -0.00000000000E+00 -0.45593999997E+02  0.45594000000E+02  0.51100000000E-03 0. -1.
         23    2    1    2    0    0 -0.88817841970E-15  0.71054273576E-14  0.17763568394E-14  0.91188000000E+02  0.91188000000E+02 0.  0.
    9900012    2    3    3    0    0 -0.44858974481E+01 -0.36303922984E+02 -0.42051173226E+01  0.54367066937E+02  0.39999960697E+02 0.  0.
         12    1    3    3    0    0  0.44858974481E+01  0.36303922984E+02  0.42051173226E+01  0.36820933063E+02  0.00000000000E+00 0. -1.
         11    1    4    4    0    0  0.10458578731E+02 -0.16357971649E+02 -0.12273341669E+02  0.22969545523E+02  0.51100000000E-03 0. -1.
        -11    1    4    4    0    0 -0.14214518902E+02 -0.22280121381E+02  0.41118606179E+01  0.26746284870E+02  0.51100000000E-03 0.  1.
         12    1    4    4    0    0 -0.72995727734E+00  0.23341700462E+01  0.39563637289E+01  0.46512365439E+01  0.00000000000E+00 0. -1.
</event>
<event>
 8    1  0.1240174E-006  0.9118800E+02  0.7816164E-02  0.1184000E+00
        -11   -1    0    0    0    0  0.00000000000E+00  0.00000000000E+00  0.45593999997E+02  0.45594000000E+02  0.51100000000E-03 0.  1.
         11   -1    0    0    0    0 -0.00000000000E+00 -0.00000000000E+00 -0.45593999997E+02  0.45594000000E+02  0.51100000000E-03 0. -1.
         23    2    1    2    0    0  0.17763568394E-14  0.13322676296E-14 -0.71054273576E-14  0.91188000000E+02  0.91188000000E+02 0.  0.
    9900012    2    3    3    0    0  0.15834161801E+02  0.21658657807E+01 -0.33171794870E+02  0.54367087064E+02  0.40000006580E+02 0.  0.
        -12    1    3    3    0    0 -0.15834161801E+02 -0.21658657807E+01  0.33171794870E+02  0.36820912936E+02  0.00000000000E+00 0.  1.
         11    1    4    4    0    0  0.63659433859E+01 -0.16260169848E+02 -0.26196295636E+02  0.31482761378E+02  0.51100000000E-03 0. -1.
        -11    1    4    4    0    0  0.44699862568E+01  0.14377375417E+02 -0.30913540514E+01  0.15370301596E+02  0.51100000000E-03 0.  1.
         12    1    4    4    0    0  0.49982321582E+01  0.40486602116E+01 -0.38841451826E+01  0.75140240894E+01  0.00000000000E+00 0. -1.
</event>
<event>
 8    1  0.1240174E-006  0.9118800E+02  0.7816164E-02  0.1184000E+00
        -11   -1    0    0    0    0  0.00000000000E+00  0.00000000000E+00  0.45593999997E+02  0.45594000000E+02  0.51100000000E-03 0. -1.
         11   -1    0    0    0    0 -0.00000000000E+00 -0.00000000000E+00 -0.45593999997E+02  0.45594000000E+02  0.51100000000E-03 0.  1.
         23    2    1    2    0    0  0.00000000000E+00  0.00000000000E+00 -0.88817841970E-15  0.91188000000E+02  0.91188000000E+02 0.  0.
    9900012    2    3    3    0    0  0.36118984452E+02  0.38359585133E+01  0.60398678358E+01  0.54367141522E+02  0.40000130728E+02 0.  0.
        -12    1    3    3    0    0 -0.36118984452E+02 -0.38359585133E+01 -0.60398678358E+01  0.36820858478E+02  0.00000000000E+00 0.  1.
         11    1    4    4    0    0  0.76232136832E+01 -0.21035555906E+01 -0.30198613999E+01  0.84650987069E+01  0.51100000000E-03 0. -1.
        -11    1    4    4    0    0  0.13208916977E+01 -0.24912829257E+00 -0.11304598354E+02  0.11384233131E+02  0.51100000000E-03 0.  1.
        -12    1    4    4    0    0  0.27174879071E+02  0.61886423965E+01  0.20364327589E+02  0.34517809684E+02  0.00000000000E+00 0.  1.
</event>
<event>
 8    1  0.1240174E-006  0.9118800E+02  0.7816164E-02  0.1184000E+00
        -11   -1    0    0    0    0  0.00000000000E+00  0.00000000000E+00  0.45593999997E+02  0.45594000000E+02  0.51100000000E-03 0. -1.
         11   -1    0    0    0    0 -0.00000000000E+00 -0.00000000000E+00 -0.45593999997E+02  0.45594000000E+02  0.51100000000E-03 0.  1.
         23    2    1    2    0    0 -0.35527136788E-14  0.00000000000E+00 -0.35527136788E-14  0.91188000000E+02  0.91188000000E+02 0.  0.
    9900012    2    3    3    0    0  0.16440720634E+02  0.19197537739E+02  0.26775685904E+02  0.54367080595E+02  0.39999991832E+02 0.  0.
        -12    1    3    3    0    0 -0.16440720634E+02 -0.19197537739E+02 -0.26775685904E+02  0.36820919405E+02  0.00000000000E+00 0.  1.
         11    1    4    4    0    0  0.51237451565E+01  0.20896521343E+02  0.18393574084E+02  0.28306199613E+02  0.51100000000E-03 0. -1.
        -11    1    4    4    0    0  0.23984651218E+01  0.32830054771E+01 -0.67044776738E+01  0.78409681190E+01  0.51100000000E-03 0.  1.
         12    1    4    4    0    0  0.89185103553E+01 -0.49819890813E+01  0.15086589494E+02  0.18219912863E+02  0.00000000000E+00 0. -1.
</event>
<event>
 8    1  0.1240174E-006  0.9118800E+02  0.7816164E-02  0.1184000E+00
        -11   -1    0    0    0    0  0.00000000000E+00  0.00000000000E+00  0.45593999997E+02  0.45594000000E+02  0.51100000000E-03 0.  1.
         11   -1    0    0    0    0 -0.00000000000E+00 -0.00000000000E+00 -0.45593999997E+02  0.45594000000E+02  0.51100000000E-03 0. -1.
         23    2    1    2    0    0  0.17763568394E-14 -0.17763568394E-14  0.71054273576E-14  0.91188000000E+02  0.91188000000E+02 0.  0.
    9900012    2    3    3    0    0 -0.11317204643E+02  0.73137653964E+01 -0.34266743718E+02  0.54367081893E+02  0.39999994792E+02 0.  0.
        -12    1    3    3    0    0  0.11317204643E+02 -0.73137653964E+01  0.34266743718E+02  0.36820918107E+02  0.00000000000E+00 0.  1.
         11    1    4    4    0    0 -0.66916798005E+01 -0.58952554125E+01 -0.17236730095E+02  0.19407150217E+02  0.51100000000E-03 0. -1.
        -11    1    4    4    0    0  0.74443699746E+01  0.16208423435E+02 -0.77748477851E+01  0.19457129616E+02  0.51100000000E-03 0.  1.
        -12    1    4    4    0    0 -0.12069894817E+02 -0.29994026262E+01 -0.92551658378E+01  0.15502802060E+02  0.00000000000E+00 0.  1.
</event>
<event>
 8    1  0.1240174E-006  0.9118800E+02  0.7816164E-02  0.1184000E+00
        -11   -1    0    0    0    0  0.00000000000E+00  0.00000000000E+00  0.45593999997E+02  0.45594000000E+02  0.51100000000E-03 0. -1.
         11   -1    0    0    0    0 -0.00000000000E+00 -0.00000000000E+00 -0.45593999997E+02  0.45594000000E+02  0.51100000000E-03 0.  1.
         23    2    1    2    0    0  0.17763568394E-14  0.00000000000E+00  0.00000000000E+00  0.91188000000E+02  0.91188000000E+02 0.  0.
    9900012    2    3    3    0    0 -0.11343311071E+02 -0.29229347121E+02 -0.19306849792E+02  0.54367083552E+02  0.39999998574E+02 0.  0.
         12    1    3    3    0    0  0.11343311071E+02  0.29229347121E+02  0.19306849792E+02  0.36820916448E+02  0.00000000000E+00 0. -1.
         11    1    4    4    0    0 -0.22763523451E+02 -0.73311389439E+01 -0.15758779201E+02  0.28640229054E+02  0.51100000000E-03 0. -1.
        -11    1    4    4    0    0  0.11425829740E+02 -0.18154767062E+02 -0.43763613824E+01  0.21892868509E+02  0.51100000000E-03 0.  1.
         12    1    4    4    0    0 -0.56173601140E-02 -0.37434411149E+01  0.82829079117E+00  0.38339859898E+01  0.00000000000E+00 0. -1.
</event>
<event>
 8    1  0.1240174E-006  0.9118800E+02  0.7816164E-02  0.1184000E+00
        -11   -1    0    0    0    0  0.00000000000E+00  0.00000000000E+00  0.45593999997E+02  0.45594000000E+02  0.51100000000E-03 0.  1.
         11   -1    0    0    0    0 -0.00000000000E+00 -0.00000000000E+00 -0.45593999997E+02  0.45594000000E+02  0.51100000000E-03 0. -1.
         23    2    1    2    0    0  0.00000000000E+00  0.35527136788E-14  0.00000000000E+00  0.91188000000E+02  0.91188000000E+02 0.  0.
    9900012    2    3    3    0    0 -0.20163695030E+02 -0.29987742328E+02 -0.70667514754E+01  0.54367105611E+02  0.40000048862E+02 0.  0.
         12    1    3    3    0    0  0.20163695030E+02  0.29987742328E+02  0.70667514754E+01  0.36820894389E+02  0.00000000000E+00 0. -1.
         11    1    4    4    0    0 -0.64652193583E+01 -0.24401503867E+02 -0.96727275129E+01  0.27033203845E+02  0.51100000000E-03 0.  1.
        -11    1    4    4    0    0  0.35352108189E+01  0.96647970997E+00 -0.59655799549E+01  0.70014243567E+01  0.51100000000E-03 0. -1.
         12    1    4    4    0    0 -0.17233686490E+02 -0.65527181706E+01  0.85715559924E+01  0.20332477409E+02  0.00000000000E+00 0. -1.
</event>
<event>
 8    1  0.1240174E-006  0.9118800E+02  0.7816164E-02  0.1184000E+00
        -11   -1    0    0    0    0  0.00000000000E+00  0.00000000000E+00  0.45593999997E+02  0.45594000000E+02  0.51100000000E-03 0.  1.
         11   -1    0    0    0    0 -0.00000000000E+00 -0.00000000000E+00 -0.45593999997E+02  0.45594000000E+02  0.51100000000E-03 0. -1.
         23    2    1    2    0    0 -0.35527136788E-14 -0.17763568394E-14  0.00000000000E+00  0.91188000000E+02  0.91188000000E+02 0.  0.
    9900012    2    3    3    0    0 -0.24129195851E+02  0.11317957207E+02 -0.25406024464E+02  0.54367077594E+02  0.39999984991E+02 0.  0.
        -12    1    3    3    0    0  0.24129195851E+02 -0.11317957207E+02  0.25406024464E+02  0.36820922406E+02  0.00000000000E+00 0.  1.
         11    1    4    4    0    0  0.41706799049E+00  0.15183178461E+02 -0.20211122135E+02  0.25282252908E+02  0.51100000000E-03 0. -1.
        -11    1    4    4    0    0  0.91456361298E+00 -0.28356984687E+01  0.37057840452E+00  0.30024891378E+01  0.51100000000E-03 0.  1.
         12    1    4    4    0    0 -0.25460827455E+02 -0.10295227856E+01 -0.55654807339E+01  0.26082335548E+02  0.00000000000E+00 0. -1.
</event>
<event>
 8    1  0.1240174E-006  0.9118800E+02  0.7816164E-02  0.1184000E+00
        -11   -1    0    0    0    0  0.00000000000E+00  0.00000000000E+00  0.45593999997E+02  0.45594000000E+02  0.51100000000E-03 0.  1.
         11   -1    0    0    0    0 -0.00000000000E+00 -0.00000000000E+00 -0.45593999997E+02  0.45594000000E+02  0.51100000000E-03 0. -1.
         23    2    1    2    0    0  0.00000000000E+00  0.00000000000E+00  0.44408920985E-15  0.91188000000E+02  0.91188000000E+02 0.  0.
    9900012    2    3    3    0    0  0.31666969952E+02 -0.18677154226E+02  0.20364376458E+01  0.54367079938E+02  0.39999990334E+02 0.  0.
         12    1    3    3    0    0 -0.31666969952E+02  0.18677154226E+02 -0.20364376458E+01  0.36820920062E+02  0.00000000000E+00 0. -1.
         11    1    4    4    0    0  0.44733562734E+01 -0.14158779059E+02  0.14142465370E+02  0.20505883736E+02  0.51100000000E-03 0. -1.
        -11    1    4    4    0    0  0.85065695133E+01 -0.88728433591E+01 -0.31658926658E+01  0.12692988253E+02  0.51100000000E-03 0.  1.
         12    1    4    4    0    0  0.18687044166E+02  0.43544681925E+01 -0.89401350584E+01  0.21168207949E+02  0.00000000000E+00 0. -1.
</event>
<event>
 8    1  0.1240174E-006  0.9118800E+02  0.7816164E-02  0.1184000E+00
        -11   -1    0    0    0    0  0.00000000000E+00  0.00000000000E+00  0.45593999997E+02  0.45594000000E+02  0.51100000000E-03 0.  1.
         11   -1    0    0    0    0 -0.00000000000E+00 -0.00000000000E+00 -0.45593999997E+02  0.45594000000E+02  0.51100000000E-03 0. -1.
         23    2    1    2    0    0  0.00000000000E+00  0.88817841970E-15  0.00000000000E+00  0.91188000000E+02  0.91188000000E+02 0.  0.
    9900012    2    3    3    0    0 -0.18801386399E+02  0.26163660071E+01  0.31550621213E+02  0.54367092889E+02  0.40000019858E+02 0.  0.
         12    1    3    3    0    0  0.18801386399E+02 -0.26163660071E+01 -0.31550621213E+02  0.36820907111E+02  0.00000000000E+00 0. -1.
         11    1    4    4    0    0 -0.25460856538E+01  0.12072595683E+02  0.25223355864E+02  0.28079312670E+02  0.51100000000E-03 0.  1.
        -11    1    4    4    0    0 -0.18964027289E+02 -0.43409335158E+01  0.64571167416E+01  0.20498107026E+02  0.51100000000E-03 0. -1.
         12    1    4    4    0    0  0.27087265437E+01 -0.51152961602E+01 -0.12985139298E+00  0.57896731928E+01  0.00000000000E+00 0. -1.
</event>
<event>
 8    1  0.1240174E-006  0.9118800E+02  0.7816164E-02  0.1184000E+00
        -11   -1    0    0    0    0  0.00000000000E+00  0.00000000000E+00  0.45593999997E+02  0.45594000000E+02  0.51100000000E-03 0.  1.
         11   -1    0    0    0    0 -0.00000000000E+00 -0.00000000000E+00 -0.45593999997E+02  0.45594000000E+02  0.51100000000E-03 0. -1.
         23    2    1    2    0    0 -0.35527136788E-14 -0.88817841970E-15 -0.35527136788E-14  0.91188000000E+02  0.91188000000E+02 0.  0.
    9900012    2    3    3    0    0  0.27535437097E+02 -0.52990291154E+01  0.23864179780E+02  0.54367094495E+02  0.40000023519E+02 0.  0.
         12    1    3    3    0    0 -0.27535437097E+02  0.52990291154E+01 -0.23864179780E+02  0.36820905505E+02  0.00000000000E+00 0. -1.
         11    1    4    4    0    0 -0.47450325325E+01  0.31928295228E+01  0.44140593637E+01  0.72245009809E+01  0.51100000000E-03 0. -1.
        -11    1    4    4    0    0  0.28083669161E+02 -0.84254019954E+01  0.22151171683E+01  0.29403853772E+02  0.51100000000E-03 0.  1.
        -12    1    4    4    0    0  0.41968004681E+01 -0.66456642861E-01  0.17235003248E+02  0.17738739741E+02  0.00000000000E+00 0.  1.
</event>
<event>
 8    1  0.1240174E-006  0.9118800E+02  0.7816164E-02  0.1184000E+00
        -11   -1    0    0    0    0  0.00000000000E+00  0.00000000000E+00  0.45593999997E+02  0.45594000000E+02  0.51100000000E-03 0.  1.
         11   -1    0    0    0    0 -0.00000000000E+00 -0.00000000000E+00 -0.45593999997E+02  0.45594000000E+02  0.51100000000E-03 0. -1.
         23    2    1    2    0    0 -0.35527136788E-14  0.00000000000E+00 -0.35527136788E-14  0.91188000000E+02  0.91188000000E+02 0.  0.
    9900012    2    3    3    0    0  0.24399457922E+02  0.13017760509E+02  0.24310171933E+02  0.54367080742E+02  0.39999992167E+02 0.  0.
         12    1    3    3    0    0 -0.24399457922E+02 -0.13017760509E+02 -0.24310171933E+02  0.36820919258E+02  0.00000000000E+00 0. -1.
         11    1    4    4    0    0  0.15423768669E+02  0.65031519625E+01 -0.38369433660E+01  0.17172820388E+02  0.51100000000E-03 0. -1.
        -11    1    4    4    0    0  0.14424263959E+01 -0.21334092412E+01  0.25228649213E+02  0.25359747047E+02  0.51100000000E-03 0.  1.
         12    1    4    4    0    0  0.75332628570E+01  0.86480177880E+01  0.29184660865E+01  0.11834513308E+02  0.00000000000E+00 0. -1.
</event>
<event>
 8    1  0.1240174E-006  0.9118800E+02  0.7816164E-02  0.1184000E+00
        -11   -1    0    0    0    0  0.00000000000E+00  0.00000000000E+00  0.45593999997E+02  0.45594000000E+02  0.51100000000E-03 0. -1.
         11   -1    0    0    0    0 -0.00000000000E+00 -0.00000000000E+00 -0.45593999997E+02  0.45594000000E+02  0.51100000000E-03 0.  1.
         23    2    1    2    0    0  0.00000000000E+00  0.00000000000E+00 -0.17763568394E-14  0.91188000000E+02  0.91188000000E+02 0.  0.
    9900012    2    3    3    0    0 -0.16137411350E+02  0.32559362600E+02  0.59373470526E+01  0.54367078936E+02  0.39999988051E+02 0.  0.
         12    1    3    3    0    0  0.16137411350E+02 -0.32559362600E+02 -0.59373470526E+01  0.36820921064E+02  0.00000000000E+00 0. -1.
         11    1    4    4    0    0 -0.49222411670E+01 -0.41372167487E+01  0.73703064296E+01  0.97809221272E+01  0.51100000000E-03 0. -1.
        -11    1    4    4    0    0  0.90213720317E+00 -0.27036199566E+01 -0.17854832761E+01  0.33632370112E+01  0.51100000000E-03 0.  1.
        -12    1    4    4    0    0 -0.12117307386E+02  0.39400199305E+02  0.35252389907E+00  0.41222919798E+02  0.00000000000E+00 0.  1.
</event>
<event>
 8    1  0.1240174E-006  0.9118800E+02  0.7816164E-02  0.1184000E+00
        -11   -1    0    0    0    0  0.00000000000E+00  0.00000000000E+00  0.45593999997E+02  0.45594000000E+02  0.51100000000E-03 0. -1.
         11   -1    0    0    0    0 -0.00000000000E+00 -0.00000000000E+00 -0.45593999997E+02  0.45594000000E+02  0.51100000000E-03 0.  1.
         23    2    1    2    0    0  0.00000000000E+00  0.00000000000E+00  0.00000000000E+00  0.91188000000E+02  0.91188000000E+02 0.  0.
    9900012    2    3    3    0    0 -0.30871132238E+02 -0.19135396532E+02  0.60491917553E+01  0.54367042286E+02  0.39999904499E+02 0.  0.
        -12    1    3    3    0    0  0.30871132238E+02  0.19135396532E+02 -0.60491917553E+01  0.36820957714E+02  0.00000000000E+00 0.  1.
         11    1    4    4    0    0  0.40356689637E+01 -0.16808160993E+01 -0.26031251482E+01  0.50880278638E+01  0.51100000000E-03 0.  1.
        -11    1    4    4    0    0 -0.16044979643E+02 -0.34041548023E+01 -0.10044331605E+02  0.19233258676E+02  0.51100000000E-03 0. -1.
         12    1    4    4    0    0 -0.18861821558E+02 -0.14050425631E+02  0.18696648508E+02  0.30045755746E+02  0.00000000000E+00 0. -1.
</event>
<event>
 8    1  0.1240174E-006  0.9118800E+02  0.7816164E-02  0.1184000E+00
        -11   -1    0    0    0    0  0.00000000000E+00  0.00000000000E+00  0.45593999997E+02  0.45594000000E+02  0.51100000000E-03 0. -1.
         11   -1    0    0    0    0 -0.00000000000E+00 -0.00000000000E+00 -0.45593999997E+02  0.45594000000E+02  0.51100000000E-03 0.  1.
         23    2    1    2    0    0  0.35527136788E-14  0.00000000000E+00 -0.44408920985E-15  0.91188000000E+02  0.91188000000E+02 0.  0.
    9900012    2    3    3    0    0 -0.27785051244E+02 -0.23832934797E+02  0.39700585353E+01  0.54367092645E+02  0.40000019302E+02 0.  0.
         12    1    3    3    0    0  0.27785051244E+02  0.23832934797E+02 -0.39700585353E+01  0.36820907355E+02  0.00000000000E+00 0. -1.
         11    1    4    4    0    0 -0.12415876173E+02 -0.62014021084E+01  0.19245494785E+02  0.23727630287E+02  0.51100000000E-03 0. -1.
        -11    1    4    4    0    0 -0.14396920424E+02 -0.73295136904E+01 -0.83252945776E+01  0.18174257033E+02  0.51100000000E-03 0.  1.
         12    1    4    4    0    0 -0.97225464788E+00 -0.10302018998E+02 -0.69501416718E+01  0.12465205325E+02  0.00000000000E+00 0. -1.
</event>
<event>
 8    1  0.1240174E-006  0.9118800E+02  0.7816164E-02  0.1184000E+00
        -11   -1    0    0    0    0  0.00000000000E+00  0.00000000000E+00  0.45593999997E+02  0.45594000000E+02  0.51100000000E-03 0. -1.
         11   -1    0    0    0    0 -0.00000000000E+00 -0.00000000000E+00 -0.45593999997E+02  0.45594000000E+02  0.51100000000E-03 0.  1.
         23    2    1    2    0    0  0.71054273576E-14  0.17763568394E-14  0.00000000000E+00  0.91188000000E+02  0.91188000000E+02 0.  0.
    9900012    2    3    3    0    0 -0.34378831848E+02 -0.11889529570E+02 -0.57021895144E+01  0.54367082604E+02  0.39999996412E+02 0.  0.
        -12    1    3    3    0    0  0.34378831848E+02  0.11889529570E+02  0.57021895144E+01  0.36820917396E+02  0.00000000000E+00 0.  1.
         11    1    4    4    0    0 -0.28852030051E+02 -0.21447850056E+02 -0.43656159708E+01  0.36214755462E+02  0.51100000000E-03 0. -1.
        -11    1    4    4    0    0 -0.49106415039E+01  0.10904283517E+02 -0.59140618475E+01  0.13341436459E+02  0.51100000000E-03 0.  1.
        -12    1    4    4    0    0 -0.61616029285E+00 -0.13459630304E+01  0.45774883040E+01  0.48108906825E+01  0.00000000000E+00 0.  1.
</event>
<event>
 8    1  0.1240174E-006  0.9118800E+02  0.7816164E-02  0.1184000E+00
        -11   -1    0    0    0    0  0.00000000000E+00  0.00000000000E+00  0.45593999997E+02  0.45594000000E+02  0.51100000000E-03 0.  1.
         11   -1    0    0    0    0 -0.00000000000E+00 -0.00000000000E+00 -0.45593999997E+02  0.45594000000E+02  0.51100000000E-03 0. -1.
         23    2    1    2    0    0  0.44408920985E-15  0.00000000000E+00  0.88817841970E-15  0.91188000000E+02  0.91188000000E+02 0.  0.
    9900012    2    3    3    0    0  0.29802257511E+01  0.36304827897E+02  0.53718869871E+01  0.54367089583E+02  0.40000012321E+02 0.  0.
        -12    1    3    3    0    0 -0.29802257511E+01 -0.36304827897E+02 -0.53718869871E+01  0.36820910417E+02  0.00000000000E+00 0.  1.
         11    1    4    4    0    0  0.18345188042E+01  0.37983822046E+02  0.83735748974E+01  0.38939092867E+02  0.51100000000E-03 0. -1.
        -11    1    4    4    0    0  0.49932099024E+01  0.37801666058E+01  0.25314225202E+01  0.67549911129E+01  0.51100000000E-03 0.  1.
         12    1    4    4    0    0 -0.38475029555E+01 -0.54591607552E+01 -0.55331104305E+01  0.86730056025E+01  0.00000000000E+00 0. -1.
</event>
<event>
 8    1  0.1240174E-006  0.9118800E+02  0.7816164E-02  0.1184000E+00
        -11   -1    0    0    0    0  0.00000000000E+00  0.00000000000E+00  0.45593999997E+02  0.45594000000E+02  0.51100000000E-03 0.  1.
         11   -1    0    0    0    0 -0.00000000000E+00 -0.00000000000E+00 -0.45593999997E+02  0.45594000000E+02  0.51100000000E-03 0. -1.
         23    2    1    2    0    0  0.91593399532E-15  0.00000000000E+00  0.71054273576E-14  0.91188000000E+02  0.91188000000E+02 0.  0.
    9900012    2    3    3    0    0 -0.20479948506E+00  0.18861609667E+02 -0.31622452007E+02  0.54367058499E+02  0.39999941461E+02 0.  0.
        -12    1    3    3    0    0  0.20479948506E+00 -0.18861609667E+02  0.31622452007E+02  0.36820941501E+02  0.00000000000E+00 0.  1.
         11    1    4    4    0    0  0.90334998167E+01  0.26773581025E+01 -0.15690987050E+02  0.18302443559E+02  0.51100000000E-03 0. -1.
        -11    1    4    4    0    0 -0.17241642672E+02  0.16885261987E+02 -0.13591281437E+02  0.27696737096E+02  0.51100000000E-03 0.  1.
        -12    1    4    4    0    0  0.80033433705E+01 -0.70101042210E+00 -0.23401835196E+01  0.83678778447E+01  0.00000000000E+00 0.  1.
</event>
<event>
 8    1  0.1240174E-006  0.9118800E+02  0.7816164E-02  0.1184000E+00
        -11   -1    0    0    0    0  0.00000000000E+00  0.00000000000E+00  0.45593999997E+02  0.45594000000E+02  0.51100000000E-03 0.  1.
         11   -1    0    0    0    0 -0.00000000000E+00 -0.00000000000E+00 -0.45593999997E+02  0.45594000000E+02  0.51100000000E-03 0. -1.
         23    2    1    2    0    0 -0.53290705182E-14 -0.35527136788E-14  0.00000000000E+00  0.91188000000E+02  0.91188000000E+02 0.  0.
    9900012    2    3    3    0    0  0.10534561243E+02  0.28856203609E+02  0.20300811985E+02  0.54367076132E+02  0.39999981657E+02 0.  0.
         12    1    3    3    0    0 -0.10534561243E+02 -0.28856203609E+02 -0.20300811985E+02  0.36820923868E+02  0.00000000000E+00 0. -1.
         11    1    4    4    0    0 -0.59401296060E+01 -0.55458563127E+01  0.68415112639E+01  0.10622991039E+02  0.51100000000E-03 0. -1.
        -11    1    4    4    0    0 -0.28495251919E+01  0.84651434243E+01  0.53022810518E+01  0.10387137798E+02  0.51100000000E-03 0.  1.
         12    1    4    4    0    0  0.19324216041E+02  0.25936916497E+02  0.81570196690E+01  0.33356947295E+02  0.00000000000E+00 0. -1.
</event>
<event>
 8    1  0.1240174E-006  0.9118800E+02  0.7816164E-02  0.1184000E+00
        -11   -1    0    0    0    0  0.00000000000E+00  0.00000000000E+00  0.45593999997E+02  0.45594000000E+02  0.51100000000E-03 0.  1.
         11   -1    0    0    0    0 -0.00000000000E+00 -0.00000000000E+00 -0.45593999997E+02  0.45594000000E+02  0.51100000000E-03 0. -1.
         23    2    1    2    0    0 -0.88817841970E-15  0.71054273576E-14  0.00000000000E+00  0.91188000000E+02  0.91188000000E+02 0.  0.
    9900012    2    3    3    0    0  0.66757014144E+01 -0.32287006302E+02  0.16393974863E+02  0.54367106786E+02  0.40000051539E+02 0.  0.
         12    1    3    3    0    0 -0.66757014144E+01  0.32287006302E+02 -0.16393974863E+02  0.36820893214E+02  0.00000000000E+00 0. -1.
         11    1    4    4    0    0  0.11156132173E+02 -0.10249079190E+02  0.32805367928E+01  0.15500478419E+02  0.51100000000E-03 0. -1.
        -11    1    4    4    0    0  0.57199372503E+01 -0.24707326325E+02  0.57453735541E+01  0.26003441576E+02  0.51100000000E-03 0.  1.
         12    1    4    4    0    0 -0.10200368009E+02  0.26693992132E+01  0.73680645162E+01  0.12863186790E+02  0.00000000000E+00 0. -1.
</event>
<event>
 8    1  0.1240174E-006  0.9118800E+02  0.7816164E-02  0.1184000E+00
        -11   -1    0    0    0    0  0.00000000000E+00  0.00000000000E+00  0.45593999997E+02  0.45594000000E+02  0.51100000000E-03 0. -1.
         11   -1    0    0    0    0 -0.00000000000E+00 -0.00000000000E+00 -0.45593999997E+02  0.45594000000E+02  0.51100000000E-03 0.  1.
         23    2    1    2    0    0  0.00000000000E+00  0.00000000000E+00  0.00000000000E+00  0.91188000000E+02  0.91188000000E+02 0.  0.
    9900012    2    3    3    0    0 -0.18924354503E+02  0.22340222887E+02  0.22328539177E+02  0.54367076414E+02  0.39999982301E+02 0.  0.
        -12    1    3    3    0    0  0.18924354503E+02 -0.22340222887E+02 -0.22328539177E+02  0.36820923586E+02  0.00000000000E+00 0.  1.
         11    1    4    4    0    0 -0.71481661827E+01  0.39031119204E+01 -0.11521268903E+01  0.82254458282E+01  0.51100000000E-03 0. -1.
        -11    1    4    4    0    0 -0.11871988968E+02  0.19660008700E+01 -0.51671601465E+01  0.13096137817E+02  0.51100000000E-03 0.  1.
        -12    1    4    4    0    0  0.95800648380E-01  0.16471110096E+02  0.28647826213E+02  0.33045492769E+02  0.00000000000E+00 0.  1.
</event>
<event>
 8    1  0.1240174E-006  0.9118800E+02  0.7816164E-02  0.1184000E+00
        -11   -1    0    0    0    0  0.00000000000E+00  0.00000000000E+00  0.45593999997E+02  0.45594000000E+02  0.51100000000E-03 0. -1.
         11   -1    0    0    0    0 -0.00000000000E+00 -0.00000000000E+00 -0.45593999997E+02  0.45594000000E+02  0.51100000000E-03 0.  1.
         23    2    1    2    0    0  0.00000000000E+00  0.00000000000E+00  0.00000000000E+00  0.91188000000E+02  0.91188000000E+02 0.  0.
    9900012    2    3    3    0    0  0.12327667209E+02 -0.18671227955E+02 -0.29243694122E+02  0.54367085046E+02  0.40000001979E+02 0.  0.
         12    1    3    3    0    0 -0.12327667209E+02  0.18671227955E+02  0.29243694122E+02  0.36820914954E+02  0.00000000000E+00 0. -1.
         11    1    4    4    0    0 -0.61792061398E+01 -0.36648871016E+00 -0.79411380642E+01  0.10068692890E+02  0.51100000000E-03 0.  1.
        -11    1    4    4    0    0  0.26092424523E+02 -0.15859313331E+02 -0.14419646021E+02  0.33767715772E+02  0.51100000000E-03 0. -1.
         12    1    4    4    0    0 -0.75855511748E+01 -0.24454259138E+01 -0.68829100368E+01  0.10530676384E+02  0.00000000000E+00 0. -1.
</event>
<event>
 8    1  0.1240174E-006  0.9118800E+02  0.7816164E-02  0.1184000E+00
        -11   -1    0    0    0    0  0.00000000000E+00  0.00000000000E+00  0.45593999997E+02  0.45594000000E+02  0.51100000000E-03 0. -1.
         11   -1    0    0    0    0 -0.00000000000E+00 -0.00000000000E+00 -0.45593999997E+02  0.45594000000E+02  0.51100000000E-03 0.  1.
         23    2    1    2    0    0 -0.71054273576E-14  0.00000000000E+00  0.88817841970E-15  0.91188000000E+02  0.91188000000E+02 0.  0.
    9900012    2    3    3    0    0 -0.35395111594E+02 -0.97183289649E+01  0.29193330185E+01  0.54367050150E+02  0.39999922426E+02 0.  0.
         12    1    3    3    0    0  0.35395111594E+02  0.97183289649E+01 -0.29193330185E+01  0.36820949850E+02  0.00000000000E+00 0. -1.
         11    1    4    4    0    0 -0.51721127523E+01 -0.16142094561E+01  0.17491029265E+02  0.18310994717E+02  0.51100000000E-03 0. -1.
        -11    1    4    4    0    0 -0.55263261091E+01  0.96416433311E+00 -0.63927183689E+01  0.85051009124E+01  0.51100000000E-03 0.  1.
        -12    1    4    4    0    0 -0.24696672732E+02 -0.90682838420E+01 -0.81789778779E+01  0.27550954521E+02  0.00000000000E+00 0.  1.
</event>
<event>
 8    1  0.1240174E-006  0.9118800E+02  0.7816164E-02  0.1184000E+00
        -11   -1    0    0    0    0  0.00000000000E+00  0.00000000000E+00  0.45593999997E+02  0.45594000000E+02  0.51100000000E-03 0. -1.
         11   -1    0    0    0    0 -0.00000000000E+00 -0.00000000000E+00 -0.45593999997E+02  0.45594000000E+02  0.51100000000E-03 0.  1.
         23    2    1    2    0    0  0.00000000000E+00  0.00000000000E+00  0.00000000000E+00  0.91188000000E+02  0.91188000000E+02 0.  0.
    9900012    2    3    3    0    0  0.21813801769E+02  0.93270698177E+01 -0.28159252571E+02  0.54367086318E+02  0.40000004879E+02 0.  0.
         12    1    3    3    0    0 -0.21813801769E+02 -0.93270698177E+01  0.28159252571E+02  0.36820913682E+02  0.00000000000E+00 0. -1.
         11    1    4    4    0    0  0.16091782891E+02 -0.81774173070E+01 -0.20481453780E+02  0.27300285339E+02  0.51100000000E-03 0. -1.
        -11    1    4    4    0    0  0.72585129115E+01  0.65054873499E+01 -0.11724229274E+02  0.15246800572E+02  0.51100000000E-03 0.  1.
         12    1    4    4    0    0 -0.15364940329E+01  0.10998999775E+02  0.40464304825E+01  0.11820000406E+02  0.00000000000E+00 0. -1.
</event>
<event>
 8    1  0.1240174E-006  0.9118800E+02  0.7816164E-02  0.1184000E+00
        -11   -1    0    0    0    0  0.00000000000E+00  0.00000000000E+00  0.45593999997E+02  0.45594000000E+02  0.51100000000E-03 0.  1.
         11   -1    0    0    0    0 -0.00000000000E+00 -0.00000000000E+00 -0.45593999997E+02  0.45594000000E+02  0.51100000000E-03 0. -1.
         23    2    1    2    0    0  0.00000000000E+00  0.00000000000E+00 -0.71054273576E-14  0.91188000000E+02  0.91188000000E+02 0.  0.
    9900012    2    3    3    0    0  0.11654435555E+02 -0.92416182720E+01 -0.33683029104E+02  0.54367084395E+02  0.40000000494E+02 0.  0.
        -12    1    3    3    0    0 -0.11654435555E+02  0.92416182720E+01  0.33683029104E+02  0.36820915605E+02  0.00000000000E+00 0.  1.
         11    1    4    4    0    0  0.90521094919E+01  0.44035126343E+01  0.13658354000E+01  0.10158598150E+02  0.51100000000E-03 0. -1.
        -11    1    4    4    0    0 -0.13207239170E+01  0.16428709398E+01  0.26223148061E+01  0.33645017155E+01  0.51100000000E-03 0.  1.
         12    1    4    4    0    0  0.39230499804E+01 -0.15288001846E+02 -0.37671179310E+02  0.40843984529E+02  0.00000000000E+00 0. -1.
</event>
<event>
 8    1  0.1240174E-006  0.9118800E+02  0.7816164E-02  0.1184000E+00
        -11   -1    0    0    0    0  0.00000000000E+00  0.00000000000E+00  0.45593999997E+02  0.45594000000E+02  0.51100000000E-03 0.  1.
         11   -1    0    0    0    0 -0.00000000000E+00 -0.00000000000E+00 -0.45593999997E+02  0.45594000000E+02  0.51100000000E-03 0. -1.
         23    2    1    2    0    0  0.00000000000E+00  0.17763568394E-14  0.00000000000E+00  0.91188000000E+02  0.91188000000E+02 0.  0.
    9900012    2    3    3    0    0  0.20621478756E+02 -0.14671373101E+02 -0.26744792316E+02  0.54367102526E+02  0.40000041828E+02 0.  0.
        -12    1    3    3    0    0 -0.20621478756E+02  0.14671373101E+02  0.26744792316E+02  0.36820897474E+02  0.00000000000E+00 0.  1.
         11    1    4    4    0    0 -0.68891589017E+01 -0.52908579236E+01 -0.49482722146E+00  0.87004909161E+01  0.51100000000E-03 0. -1.
        -11    1    4    4    0    0  0.84539534171E+01 -0.15197464675E+02 -0.11024886764E+02  0.20590784088E+02  0.51100000000E-03 0.  1.
         12    1    4    4    0    0  0.19056684241E+02  0.58169494978E+01 -0.15225078331E+02  0.25075827522E+02  0.00000000000E+00 0. -1.
</event>
<event>
 8    1  0.1240174E-006  0.9118800E+02  0.7816164E-02  0.1184000E+00
        -11   -1    0    0    0    0  0.00000000000E+00  0.00000000000E+00  0.45593999997E+02  0.45594000000E+02  0.51100000000E-03 0.  1.
         11   -1    0    0    0    0 -0.00000000000E+00 -0.00000000000E+00 -0.45593999997E+02  0.45594000000E+02  0.51100000000E-03 0. -1.
         23    2    1    2    0    0  0.35527136788E-14 -0.35527136788E-14  0.35527136788E-14  0.91188000000E+02  0.91188000000E+02 0.  0.
    9900012    2    3    3    0    0  0.21683434569E+02 -0.22179925900E+02  0.19840973387E+02  0.54367018582E+02  0.39999850461E+02 0.  0.
         12    1    3    3    0    0 -0.21683434569E+02  0.22179925900E+02 -0.19840973387E+02  0.36820981418E+02  0.00000000000E+00 0. -1.
         11    1    4    4    0    0  0.14711852960E+02  0.62033834549E+01  0.34544802014E+01  0.16335667037E+02  0.51100000000E-03 0. -1.
        -11    1    4    4    0    0 -0.35115215022E+01 -0.21370917490E+02  0.93565920486E+01  0.23592217205E+02  0.51100000000E-03 0.  1.
         12    1    4    4    0    0  0.10483103111E+02 -0.70123918652E+01  0.70299011368E+01  0.14439134340E+02  0.00000000000E+00 0. -1.
</event>
<event>
 8    1  0.1240174E-006  0.9118800E+02  0.7816164E-02  0.1184000E+00
        -11   -1    0    0    0    0  0.00000000000E+00  0.00000000000E+00  0.45593999997E+02  0.45594000000E+02  0.51100000000E-03 0. -1.
         11   -1    0    0    0    0 -0.00000000000E+00 -0.00000000000E+00 -0.45593999997E+02  0.45594000000E+02  0.51100000000E-03 0.  1.
         23    2    1    2    0    0 -0.35527136788E-14 -0.35527136788E-14 -0.17763568394E-14  0.91188000000E+02  0.91188000000E+02 0.  0.
    9900012    2    3    3    0    0  0.30274624664E+02  0.18983552929E+02  0.88798764855E+01  0.54367076781E+02  0.39999983137E+02 0.  0.
        -12    1    3    3    0    0 -0.30274624664E+02 -0.18983552929E+02 -0.88798764855E+01  0.36820923219E+02  0.00000000000E+00 0.  1.
         11    1    4    4    0    0  0.24853089447E+02  0.15844142168E+02  0.11377081713E+02  0.31593525993E+02  0.51100000000E-03 0. -1.
        -11    1    4    4    0    0  0.58171785142E+01  0.57305368955E+01 -0.11100166165E+02  0.13780141804E+02  0.51100000000E-03 0.  1.
        -12    1    4    4    0    0 -0.39564329720E+00 -0.25911261353E+01  0.86029609374E+01  0.89934089843E+01  0.00000000000E+00 0.  1.
</event>
<event>
 8    1  0.1240174E-006  0.9118800E+02  0.7816164E-02  0.1184000E+00
        -11   -1    0    0    0    0  0.00000000000E+00  0.00000000000E+00  0.45593999997E+02  0.45594000000E+02  0.51100000000E-03 0. -1.
         11   -1    0    0    0    0 -0.00000000000E+00 -0.00000000000E+00 -0.45593999997E+02  0.45594000000E+02  0.51100000000E-03 0.  1.
         23    2    1    2    0    0  0.00000000000E+00  0.71054273576E-14 -0.17763568394E-14  0.91188000000E+02  0.91188000000E+02 0.  0.
    9900012    2    3    3    0    0  0.17182599305E+02  0.31536604820E+02 -0.81228961594E+01  0.54367073823E+02  0.39999976395E+02 0.  0.
        -12    1    3    3    0    0 -0.17182599305E+02 -0.31536604820E+02  0.81228961594E+01  0.36820926177E+02  0.00000000000E+00 0.  1.
         11    1    4    4    0    0  0.17930950400E+02  0.95417444888E+01 -0.18501189175E+01  0.20395754715E+02  0.51100000000E-03 0. -1.
        -11    1    4    4    0    0  0.72649429750E+01  0.17162837011E+02 -0.12758594255E+02  0.22585926997E+02  0.51100000000E-03 0.  1.
         12    1    4    4    0    0 -0.80132940693E+01  0.48320233210E+01  0.64858170127E+01  0.11385392112E+02  0.00000000000E+00 0. -1.
</event>
<event>
 8    1  0.1240174E-006  0.9118800E+02  0.7816164E-02  0.1184000E+00
        -11   -1    0    0    0    0  0.00000000000E+00  0.00000000000E+00  0.45593999997E+02  0.45594000000E+02  0.51100000000E-03 0.  1.
         11   -1    0    0    0    0 -0.00000000000E+00 -0.00000000000E+00 -0.45593999997E+02  0.45594000000E+02  0.51100000000E-03 0. -1.
         23    2    1    2    0    0 -0.22204460493E-15  0.00000000000E+00  0.17763568394E-14  0.91188000000E+02  0.91188000000E+02 0.  0.
    9900012    2    3    3    0    0 -0.38936786798E+00  0.34439825680E+02  0.13020498225E+02  0.54366992759E+02  0.39999791592E+02 0.  0.
         12    1    3    3    0    0  0.38936786798E+00 -0.34439825680E+02 -0.13020498225E+02  0.36821007241E+02  0.00000000000E+00 0. -1.
         11    1    4    4    0    0 -0.14498600073E+02  0.81422874500E+01  0.96662015751E+01  0.19233868621E+02  0.51100000000E-03 0. -1.
        -11    1    4    4    0    0  0.47161618375E+01  0.20991334873E+02 -0.42550167435E+01  0.21931335800E+02  0.51100000000E-03 0.  1.
         12    1    4    4    0    0  0.93930703674E+01  0.53062033571E+01  0.76093133936E+01  0.13201788338E+02  0.00000000000E+00 0. -1.
</event>
<event>
 8    1  0.1240174E-006  0.9118800E+02  0.7816164E-02  0.1184000E+00
        -11   -1    0    0    0    0  0.00000000000E+00  0.00000000000E+00  0.45593999997E+02  0.45594000000E+02  0.51100000000E-03 0. -1.
         11   -1    0    0    0    0 -0.00000000000E+00 -0.00000000000E+00 -0.45593999997E+02  0.45594000000E+02  0.51100000000E-03 0.  1.
         23    2    1    2    0    0  0.00000000000E+00  0.00000000000E+00  0.35527136788E-14  0.91188000000E+02  0.91188000000E+02 0.  0.
    9900012    2    3    3    0    0 -0.22139720767E+02  0.24270909939E+02 -0.16629365681E+02  0.54367080568E+02  0.39999991770E+02 0.  0.
         12    1    3    3    0    0  0.22139720767E+02 -0.24270909939E+02  0.16629365681E+02  0.36820919432E+02  0.00000000000E+00 0. -1.
         11    1    4    4    0    0  0.33774195075E+01 -0.14438177690E+01  0.30471475831E+00  0.36857053090E+01  0.51100000000E-03 0. -1.
        -11    1    4    4    0    0 -0.96652121459E+01 -0.16781202419E+01  0.60875072901E+01  0.11545135713E+02  0.51100000000E-03 0.  1.
        -12    1    4    4    0    0 -0.15851928128E+02  0.27392847950E+02 -0.23021587730E+02  0.39136239545E+02  0.00000000000E+00 0.  1.
</event>
<event>
 8    1  0.1240174E-006  0.9118800E+02  0.7816164E-02  0.1184000E+00
        -11   -1    0    0    0    0  0.00000000000E+00  0.00000000000E+00  0.45593999997E+02  0.45594000000E+02  0.51100000000E-03 0. -1.
         11   -1    0    0    0    0 -0.00000000000E+00 -0.00000000000E+00 -0.45593999997E+02  0.45594000000E+02  0.51100000000E-03 0.  1.
         23    2    1    2    0    0  0.35527136788E-14  0.00000000000E+00  0.00000000000E+00  0.91188000000E+02  0.91188000000E+02 0.  0.
    9900012    2    3    3    0    0 -0.14786626129E+02  0.11510013078E+02 -0.31696322663E+02  0.54367060527E+02  0.39999946082E+02 0.  0.
         12    1    3    3    0    0  0.14786626129E+02 -0.11510013078E+02  0.31696322663E+02  0.36820939473E+02  0.00000000000E+00 0. -1.
         11    1    4    4    0    0 -0.33769503379E+00 -0.50551285783E+01 -0.22004571940E+02  0.22580291172E+02  0.51100000000E-03 0. -1.
        -11    1    4    4    0    0 -0.18801906414E+02  0.17617650453E+02 -0.87420987221E+01  0.27208777676E+02  0.51100000000E-03 0.  1.
         12    1    4    4    0    0  0.43529753187E+01 -0.10525087958E+01 -0.94965200099E+00  0.45779916791E+01  0.00000000000E+00 0. -1.
</event>
<event>
 8    1  0.1240174E-006  0.9118800E+02  0.7816164E-02  0.1184000E+00
        -11   -1    0    0    0    0  0.00000000000E+00  0.00000000000E+00  0.45593999997E+02  0.45594000000E+02  0.51100000000E-03 0.  1.
         11   -1    0    0    0    0 -0.00000000000E+00 -0.00000000000E+00 -0.45593999997E+02  0.45594000000E+02  0.51100000000E-03 0. -1.
         23    2    1    2    0    0  0.35527136788E-14  0.00000000000E+00  0.00000000000E+00  0.91188000000E+02  0.91188000000E+02 0.  0.
    9900012    2    3    3    0    0 -0.20549126817E+02  0.22206460420E+02 -0.20985381028E+02  0.54367085913E+02  0.40000003955E+02 0.  0.
        -12    1    3    3    0    0  0.20549126817E+02 -0.22206460420E+02  0.20985381028E+02  0.36820914087E+02  0.00000000000E+00 0.  1.
         11    1    4    4    0    0  0.56129435703E+01  0.98169251886E+01 -0.17712786172E+02  0.21014755529E+02  0.51100000000E-03 0. -1.
        -11    1    4    4    0    0 -0.17897972687E+02  0.15639746411E+02 -0.50423871723E+01  0.24297422966E+02  0.51100000000E-03 0.  1.
        -12    1    4    4    0    0 -0.82640977003E+01 -0.32502111798E+01  0.17697923166E+01  0.90549074184E+01  0.00000000000E+00 0.  1.
</event>
<event>
 8    1  0.1240174E-006  0.9118800E+02  0.7816164E-02  0.1184000E+00
        -11   -1    0    0    0    0  0.00000000000E+00  0.00000000000E+00  0.45593999997E+02  0.45594000000E+02  0.51100000000E-03 0.  1.
         11   -1    0    0    0    0 -0.00000000000E+00 -0.00000000000E+00 -0.45593999997E+02  0.45594000000E+02  0.51100000000E-03 0. -1.
         23    2    1    2    0    0  0.00000000000E+00 -0.15543122345E-14  0.00000000000E+00  0.91188000000E+02  0.91188000000E+02 0.  0.
    9900012    2    3    3    0    0  0.30926248204E+02  0.12009503925E+01  0.19947550620E+02  0.54367083586E+02  0.39999998650E+02 0.  0.
         12    1    3    3    0    0 -0.30926248204E+02 -0.12009503925E+01 -0.19947550620E+02  0.36820916414E+02  0.00000000000E+00 0. -1.
         11    1    4    4    0    0  0.16385187128E+02 -0.16009180361E+02  0.41377351834E+01  0.23278510815E+02  0.51100000000E-03 0. -1.
        -11    1    4    4    0    0  0.12726787382E+02  0.66957081959E+01  0.14356491484E+02  0.20320247865E+02  0.51100000000E-03 0.  1.
         12    1    4    4    0    0  0.18142736949E+01  0.10514422558E+02  0.14533239528E+01  0.10768324906E+02  0.00000000000E+00 0. -1.
</event>
<event>
 8    1  0.1240174E-006  0.9118800E+02  0.7816164E-02  0.1184000E+00
        -11   -1    0    0    0    0  0.00000000000E+00  0.00000000000E+00  0.45593999997E+02  0.45594000000E+02  0.51100000000E-03 0. -1.
         11   -1    0    0    0    0 -0.00000000000E+00 -0.00000000000E+00 -0.45593999997E+02  0.45594000000E+02  0.51100000000E-03 0.  1.
         23    2    1    2    0    0  0.17763568394E-14  0.35527136788E-14  0.00000000000E+00  0.91188000000E+02  0.91188000000E+02 0.  0.
    9900012    2    3    3    0    0 -0.53661845308E+01 -0.31935925250E+02 -0.17523732341E+02  0.54367075878E+02  0.39999981080E+02 0.  0.
         12    1    3    3    0    0  0.53661845308E+01  0.31935925250E+02  0.17523732341E+02  0.36820924122E+02  0.00000000000E+00 0. -1.
         11    1    4    4    0    0 -0.36483233959E+01  0.80117976352E+01  0.14082034172E+01  0.89152791361E+01  0.51100000000E-03 0. -1.
        -11    1    4    4    0    0 -0.86059185046E+00 -0.72341423429E+00  0.94647493269E+00  0.14696127200E+01  0.51100000000E-03 0.  1.
        -12    1    4    4    0    0 -0.85726928441E+00 -0.39224308651E+02 -0.19878410691E+02  0.43982184022E+02  0.00000000000E+00 0.  1.
</event>
<event>
 8    1  0.1240174E-006  0.9118800E+02  0.7816164E-02  0.1184000E+00
        -11   -1    0    0    0    0  0.00000000000E+00  0.00000000000E+00  0.45593999997E+02  0.45594000000E+02  0.51100000000E-03 0.  1.
         11   -1    0    0    0    0 -0.00000000000E+00 -0.00000000000E+00 -0.45593999997E+02  0.45594000000E+02  0.51100000000E-03 0. -1.
         23    2    1    2    0    0  0.00000000000E+00  0.00000000000E+00 -0.35527136788E-14  0.91188000000E+02  0.91188000000E+02 0.  0.
    9900012    2    3    3    0    0  0.10839457124E+02 -0.16912290635E+02 -0.30858749696E+02  0.54367057072E+02  0.39999938207E+02 0.  0.
        -12    1    3    3    0    0 -0.10839457124E+02  0.16912290635E+02  0.30858749696E+02  0.36820942928E+02  0.00000000000E+00 0.  1.
         11    1    4    4    0    0  0.10263841465E+02 -0.11952503544E+02 -0.10657479544E+00  0.15755003682E+02  0.51100000000E-03 0. -1.
        -11    1    4    4    0    0 -0.66474251752E+01 -0.10383555121E+02 -0.25078536363E+02  0.27945294144E+02  0.51100000000E-03 0.  1.
        -12    1    4    4    0    0  0.72230408349E+01  0.54237680306E+01 -0.56736385383E+01  0.10666759246E+02  0.00000000000E+00 0.  1.
</event>
<event>
 8    1  0.1240174E-006  0.9118800E+02  0.7816164E-02  0.1184000E+00
        -11   -1    0    0    0    0  0.00000000000E+00  0.00000000000E+00  0.45593999997E+02  0.45594000000E+02  0.51100000000E-03 0.  1.
         11   -1    0    0    0    0 -0.00000000000E+00 -0.00000000000E+00 -0.45593999997E+02  0.45594000000E+02  0.51100000000E-03 0. -1.
         23    2    1    2    0    0  0.00000000000E+00 -0.88817841970E-15  0.35527136788E-14  0.91188000000E+02  0.91188000000E+02 0.  0.
    9900012    2    3    3    0    0 -0.28409274098E+02  0.54663984164E+01 -0.22777416125E+02  0.54367094908E+02  0.40000024462E+02 0.  0.
        -12    1    3    3    0    0  0.28409274098E+02 -0.54663984164E+01  0.22777416125E+02  0.36820905092E+02  0.00000000000E+00 0.  1.
         11    1    4    4    0    0 -0.14315509731E+02  0.77790315905E+01 -0.64805959283E+01  0.17534117462E+02  0.51100000000E-03 0. -1.
        -11    1    4    4    0    0 -0.21289930161E+02  0.52056274992E+01 -0.14479989310E+02  0.26268417817E+02  0.51100000000E-03 0.  1.
        -12    1    4    4    0    0  0.71961657937E+01 -0.75182606733E+01 -0.18168308869E+01  0.10564559629E+02  0.00000000000E+00 0.  1.
</event>
<event>
 8    1  0.1240174E-006  0.9118800E+02  0.7816164E-02  0.1184000E+00
        -11   -1    0    0    0    0  0.00000000000E+00  0.00000000000E+00  0.45593999997E+02  0.45594000000E+02  0.51100000000E-03 0.  1.
         11   -1    0    0    0    0 -0.00000000000E+00 -0.00000000000E+00 -0.45593999997E+02  0.45594000000E+02  0.51100000000E-03 0. -1.
         23    2    1    2    0    0  0.00000000000E+00 -0.17763568394E-14  0.00000000000E+00  0.91188000000E+02  0.91188000000E+02 0.  0.
    9900012    2    3    3    0    0  0.34602197070E+02  0.11330112937E+02 -0.54859982166E+01  0.54367086409E+02  0.40000005086E+02 0.  0.
        -12    1    3    3    0    0 -0.34602197070E+02 -0.11330112937E+02  0.54859982166E+01  0.36820913591E+02  0.00000000000E+00 0.  1.
         11    1    4    4    0    0  0.83536489385E+01  0.17160521037E+02 -0.91790239110E+01  0.21178324133E+02  0.51100000000E-03 0. -1.
        -11    1    4    4    0    0  0.10754919954E+01 -0.59623587150E+01 -0.35141396170E+01  0.70039690168E+01  0.51100000000E-03 0.  1.
         12    1    4    4    0    0  0.25173056136E+02  0.13195061455E+00  0.72071653115E+01  0.26184793259E+02  0.00000000000E+00 0. -1.
</event>
<event>
 8    1  0.1240174E-006  0.9118800E+02  0.7816164E-02  0.1184000E+00
        -11   -1    0    0    0    0  0.00000000000E+00  0.00000000000E+00  0.45593999997E+02  0.45594000000E+02  0.51100000000E-03 0.  1.
         11   -1    0    0    0    0 -0.00000000000E+00 -0.00000000000E+00 -0.45593999997E+02  0.45594000000E+02  0.51100000000E-03 0. -1.
         23    2    1    2    0    0  0.00000000000E+00  0.00000000000E+00  0.71054273576E-14  0.91188000000E+02  0.91188000000E+02 0.  0.
    9900012    2    3    3    0    0  0.19632396664E+02  0.59075117461E+01  0.30585124850E+02  0.54367088063E+02  0.40000008856E+02 0.  0.
         12    1    3    3    0    0 -0.19632396664E+02 -0.59075117461E+01 -0.30585124850E+02  0.36820911937E+02  0.00000000000E+00 0. -1.
         11    1    4    4    0    0  0.62568126489E+01  0.41731021530E+01  0.53188706476E+00  0.75395881992E+01  0.51100000000E-03 0. -1.
        -11    1    4    4    0    0  0.20250468090E+02  0.24259186124E+01  0.33411891231E+02  0.39144872140E+02  0.51100000000E-03 0.  1.
        -12    1    4    4    0    0 -0.68748840751E+01 -0.69150901932E+00 -0.33586534453E+01  0.76826277234E+01  0.00000000000E+00 0.  1.
</event>
<event>
 8    1  0.1240174E-006  0.9118800E+02  0.7816164E-02  0.1184000E+00
        -11   -1    0    0    0    0  0.00000000000E+00  0.00000000000E+00  0.45593999997E+02  0.45594000000E+02  0.51100000000E-03 0. -1.
         11   -1    0    0    0    0 -0.00000000000E+00 -0.00000000000E+00 -0.45593999997E+02  0.45594000000E+02  0.51100000000E-03 0.  1.
         23    2    1    2    0    0  0.00000000000E+00  0.17763568394E-14  0.00000000000E+00  0.91188000000E+02  0.91188000000E+02 0.  0.
    9900012    2    3    3    0    0  0.32966754766E+02  0.94436507410E+01 -0.13408560397E+02  0.54367096276E+02  0.40000027580E+02 0.  0.
         12    1    3    3    0    0 -0.32966754766E+02 -0.94436507410E+01  0.13408560397E+02  0.36820903724E+02  0.00000000000E+00 0. -1.
         11    1    4    4    0    0  0.99106731108E+01  0.18185766213E+02 -0.81328980824E+01  0.22250563268E+02  0.51100000000E-03 0. -1.
        -11    1    4    4    0    0  0.18760615188E+02  0.31603964870E+01 -0.33175279821E+01  0.19312037188E+02  0.51100000000E-03 0.  1.
         12    1    4    4    0    0  0.42954664678E+01 -0.11902511959E+02 -0.19581343327E+01  0.12804495819E+02  0.00000000000E+00 0. -1.
</event>
<event>
 8    1  0.1240174E-006  0.9118800E+02  0.7816164E-02  0.1184000E+00
        -11   -1    0    0    0    0  0.00000000000E+00  0.00000000000E+00  0.45593999997E+02  0.45594000000E+02  0.51100000000E-03 0.  1.
         11   -1    0    0    0    0 -0.00000000000E+00 -0.00000000000E+00 -0.45593999997E+02  0.45594000000E+02  0.51100000000E-03 0. -1.
         23    2    1    2    0    0  0.00000000000E+00  0.00000000000E+00  0.17763568394E-14  0.91188000000E+02  0.91188000000E+02 0.  0.
    9900012    2    3    3    0    0  0.10604728376E+02  0.33060251161E+02 -0.12261164801E+02  0.54367127753E+02  0.40000099338E+02 0.  0.
        -12    1    3    3    0    0 -0.10604728376E+02 -0.33060251161E+02  0.12261164801E+02  0.36820872247E+02  0.00000000000E+00 0.  1.
         11    1    4    4    0    0  0.20624013585E+01  0.26002406755E+02 -0.81083082576E+01  0.27315257998E+02  0.51100000000E-03 0. -1.
        -11    1    4    4    0    0  0.97890286708E+01  0.14606074765E+02  0.13395709568E+01  0.17633971560E+02  0.51100000000E-03 0.  1.
        -12    1    4    4    0    0 -0.12467016538E+01 -0.75482303593E+01 -0.54924275004E+01  0.94178981953E+01  0.00000000000E+00 0.  1.
</event>
<event>
 8    1  0.1240174E-006  0.9118800E+02  0.7816164E-02  0.1184000E+00
        -11   -1    0    0    0    0  0.00000000000E+00  0.00000000000E+00  0.45593999997E+02  0.45594000000E+02  0.51100000000E-03 0. -1.
         11   -1    0    0    0    0 -0.00000000000E+00 -0.00000000000E+00 -0.45593999997E+02  0.45594000000E+02  0.51100000000E-03 0.  1.
         23    2    1    2    0    0  0.00000000000E+00  0.35527136788E-14 -0.35527136788E-14  0.91188000000E+02  0.91188000000E+02 0.  0.
    9900012    2    3    3    0    0  0.13145228547E+02 -0.22617471576E+02  0.25912023227E+02  0.54367082008E+02  0.39999995054E+02 0.  0.
        -12    1    3    3    0    0 -0.13145228547E+02  0.22617471576E+02 -0.25912023227E+02  0.36820917992E+02  0.00000000000E+00 0.  1.
         11    1    4    4    0    0  0.55265574161E+01 -0.42989567950E+01  0.30908198086E+02  0.31691332815E+02  0.51100000000E-03 0. -1.
        -11    1    4    4    0    0  0.56568129885E+01 -0.29074604400E+01 -0.29328935687E+01  0.70039077909E+01  0.51100000000E-03 0.  1.
        -12    1    4    4    0    0  0.19618581422E+01 -0.15411054341E+02 -0.20632812901E+01  0.15671841403E+02  0.00000000000E+00 0.  1.
</event>
<event>
 8    1  0.1240174E-006  0.9118800E+02  0.7816164E-02  0.1184000E+00
        -11   -1    0    0    0    0  0.00000000000E+00  0.00000000000E+00  0.45593999997E+02  0.45594000000E+02  0.51100000000E-03 0. -1.
         11   -1    0    0    0    0 -0.00000000000E+00 -0.00000000000E+00 -0.45593999997E+02  0.45594000000E+02  0.51100000000E-03 0.  1.
         23    2    1    2    0    0 -0.71054273576E-14  0.35527136788E-14  0.35527136788E-14  0.91188000000E+02  0.91188000000E+02 0.  0.
    9900012    2    3    3    0    0 -0.26208941029E+02  0.22057729841E+02  0.13502852338E+02  0.54367094839E+02  0.40000024304E+02 0.  0.
        -12    1    3    3    0    0  0.26208941029E+02 -0.22057729841E+02 -0.13502852338E+02  0.36820905161E+02  0.00000000000E+00 0.  1.
         11    1    4    4    0    0 -0.25806629190E+02  0.22795033952E+02  0.46979098653E+01  0.34751489758E+02  0.51100000000E-03 0. -1.
        -11    1    4    4    0    0  0.74459589890E-01  0.30776073828E+01 -0.46753073042E+01  0.55978308373E+01  0.51100000000E-03 0.  1.
        -12    1    4    4    0    0 -0.47677142918E+00 -0.38149114934E+01  0.13480249777E+02  0.14017774244E+02  0.00000000000E+00 0.  1.
</event>
<event>
 8    1  0.1240174E-006  0.9118800E+02  0.7816164E-02  0.1184000E+00
        -11   -1    0    0    0    0  0.00000000000E+00  0.00000000000E+00  0.45593999997E+02  0.45594000000E+02  0.51100000000E-03 0.  1.
         11   -1    0    0    0    0 -0.00000000000E+00 -0.00000000000E+00 -0.45593999997E+02  0.45594000000E+02  0.51100000000E-03 0. -1.
         23    2    1    2    0    0  0.35527136788E-14  0.55511151231E-15  0.35527136788E-14  0.91188000000E+02  0.91188000000E+02 0.  0.
    9900012    2    3    3    0    0  0.21460388898E+02 -0.59922875771E+00  0.29914432403E+02  0.54367073440E+02  0.39999975521E+02 0.  0.
         12    1    3    3    0    0 -0.21460388898E+02  0.59922875771E+00 -0.29914432403E+02  0.36820926560E+02  0.00000000000E+00 0. -1.
         11    1    4    4    0    0  0.72512877271E+01  0.73640624871E+01  0.14864881981E+02  0.18104565904E+02  0.51100000000E-03 0. -1.
        -11    1    4    4    0    0 -0.68058050016E+00  0.74816138801E+01  0.12600149152E+02  0.14669747611E+02  0.51100000000E-03 0.  1.
         12    1    4    4    0    0  0.14889681671E+02 -0.15444905125E+02  0.24494012705E+01  0.21592759924E+02  0.00000000000E+00 0. -1.
</event>
<event>
 8    1  0.1240174E-006  0.9118800E+02  0.7816164E-02  0.1184000E+00
        -11   -1    0    0    0    0  0.00000000000E+00  0.00000000000E+00  0.45593999997E+02  0.45594000000E+02  0.51100000000E-03 0.  1.
         11   -1    0    0    0    0 -0.00000000000E+00 -0.00000000000E+00 -0.45593999997E+02  0.45594000000E+02  0.51100000000E-03 0. -1.
         23    2    1    2    0    0  0.00000000000E+00 -0.44408920985E-15  0.00000000000E+00  0.91188000000E+02  0.91188000000E+02 0.  0.
    9900012    2    3    3    0    0 -0.11956546181E+02 -0.29165474604E+01  0.34703235764E+02  0.54367084501E+02  0.40000000737E+02 0.  0.
         12    1    3    3    0    0  0.11956546181E+02  0.29165474604E+01 -0.34703235764E+02  0.36820915499E+02  0.00000000000E+00 0. -1.
         11    1    4    4    0    0  0.94126758292E+01  0.40640458084E+01  0.22665392952E+01  0.10500101677E+02  0.51100000000E-03 0. -1.
        -11    1    4    4    0    0 -0.95716337839E+01 -0.12863928655E+02  0.20948065770E+02  0.26380263332E+02  0.51100000000E-03 0.  1.
         12    1    4    4    0    0 -0.11797588226E+02  0.58833353861E+01  0.11488630700E+02  0.17486719491E+02  0.00000000000E+00 0. -1.
</event>
<event>
 8    1  0.1240174E-006  0.9118800E+02  0.7816164E-02  0.1184000E+00
        -11   -1    0    0    0    0  0.00000000000E+00  0.00000000000E+00  0.45593999997E+02  0.45594000000E+02  0.51100000000E-03 0.  1.
         11   -1    0    0    0    0 -0.00000000000E+00 -0.00000000000E+00 -0.45593999997E+02  0.45594000000E+02  0.51100000000E-03 0. -1.
         23    2    1    2    0    0  0.00000000000E+00  0.38857805862E-15  0.44408920985E-15  0.91188000000E+02  0.91188000000E+02 0.  0.
    9900012    2    3    3    0    0 -0.36778917077E+02 -0.34164809271E+00 -0.17248626572E+01  0.54367073668E+02  0.39999976040E+02 0.  0.
         12    1    3    3    0    0  0.36778917077E+02  0.34164809271E+00  0.17248626572E+01  0.36820926332E+02  0.00000000000E+00 0. -1.
         11    1    4    4    0    0 -0.20489059555E+01 -0.16563353884E+01  0.84500279641E+01  0.88512392007E+01  0.51100000000E-03 0. -1.
        -11    1    4    4    0    0 -0.89482564797E+01 -0.99303741965E+01 -0.11097238081E+02  0.17373322048E+02  0.51100000000E-03 0.  1.
        -12    1    4    4    0    0 -0.25781754642E+02  0.11245061492E+02  0.92234745959E+00  0.28142512418E+02  0.00000000000E+00 0.  1.
</event>
<event>
 8    1  0.1240174E-006  0.9118800E+02  0.7816164E-02  0.1184000E+00
        -11   -1    0    0    0    0  0.00000000000E+00  0.00000000000E+00  0.45593999997E+02  0.45594000000E+02  0.51100000000E-03 0.  1.
         11   -1    0    0    0    0 -0.00000000000E+00 -0.00000000000E+00 -0.45593999997E+02  0.45594000000E+02  0.51100000000E-03 0. -1.
         23    2    1    2    0    0  0.17763568394E-14  0.00000000000E+00  0.88817841970E-15  0.91188000000E+02  0.91188000000E+02 0.  0.
    9900012    2    3    3    0    0 -0.10595430172E+02  0.34669597885E+02 -0.64448154842E+01  0.54367084684E+02  0.40000001155E+02 0.  0.
        -12    1    3    3    0    0  0.10595430172E+02 -0.34669597885E+02  0.64448154842E+01  0.36820915316E+02  0.00000000000E+00 0.  1.
         11    1    4    4    0    0  0.33339709483E+01 -0.54432309523E+01  0.33183305658E+01  0.71941256237E+01  0.51100000000E-03 0. -1.
        -11    1    4    4    0    0 -0.14471556674E+01  0.43018365336E+01  0.47471472658E+01  0.65677594743E+01  0.51100000000E-03 0.  1.
         12    1    4    4    0    0 -0.12482245453E+02  0.35810992304E+02 -0.14510293316E+02  0.40605199586E+02  0.00000000000E+00 0. -1.
</event>
<event>
 8    1  0.1240174E-006  0.9118800E+02  0.7816164E-02  0.1184000E+00
        -11   -1    0    0    0    0  0.00000000000E+00  0.00000000000E+00  0.45593999997E+02  0.45594000000E+02  0.51100000000E-03 0. -1.
         11   -1    0    0    0    0 -0.00000000000E+00 -0.00000000000E+00 -0.45593999997E+02  0.45594000000E+02  0.51100000000E-03 0.  1.
         23    2    1    2    0    0  0.00000000000E+00  0.35527136788E-14  0.00000000000E+00  0.91188000000E+02  0.91188000000E+02 0.  0.
    9900012    2    3    3    0    0  0.24286466494E+02  0.23156629895E+02  0.15156486165E+02  0.54367067968E+02  0.39999963046E+02 0.  0.
         12    1    3    3    0    0 -0.24286466494E+02 -0.23156629895E+02 -0.15156486165E+02  0.36820932032E+02  0.00000000000E+00 0. -1.
         11    1    4    4    0    0  0.11408948206E+01  0.62908347329E+01  0.64925063039E+01  0.91120184918E+01  0.51100000000E-03 0. -1.
        -11    1    4    4    0    0  0.35861683575E+01  0.17912558585E+02  0.16054176898E+02  0.24319888048E+02  0.51100000000E-03 0.  1.
        -12    1    4    4    0    0  0.19559403316E+02 -0.10467634226E+01 -0.73901970372E+01  0.20935161427E+02  0.00000000000E+00 0.  1.
</event>
<event>
 8    1  0.1240174E-006  0.9118800E+02  0.7816164E-02  0.1184000E+00
        -11   -1    0    0    0    0  0.00000000000E+00  0.00000000000E+00  0.45593999997E+02  0.45594000000E+02  0.51100000000E-03 0.  1.
         11   -1    0    0    0    0 -0.00000000000E+00 -0.00000000000E+00 -0.45593999997E+02  0.45594000000E+02  0.51100000000E-03 0. -1.
         23    2    1    2    0    0  0.17763568394E-14 -0.17763568394E-14  0.71054273576E-14  0.91188000000E+02  0.91188000000E+02 0.  0.
    9900012    2    3    3    0    0 -0.15170473368E+02  0.52627005898E+01 -0.33135190933E+02  0.54367079888E+02  0.39999990221E+02 0.  0.
        -12    1    3    3    0    0  0.15170473368E+02 -0.52627005898E+01  0.33135190933E+02  0.36820920112E+02  0.00000000000E+00 0.  1.
         11    1    4    4    0    0 -0.19250595832E+02  0.14976647113E+02 -0.28332858905E+02  0.37384974156E+02  0.51100000000E-03 0. -1.
        -11    1    4    4    0    0  0.14828287710E+01 -0.38393180246E+01  0.42279806819E+01  0.59004207448E+01  0.51100000000E-03 0.  1.
         12    1    4    4    0    0  0.25972936935E+01 -0.58746284986E+01 -0.90303127096E+01  0.11081684987E+02  0.00000000000E+00 0. -1.
</event>
<event>
 8    1  0.1240174E-006  0.9118800E+02  0.7816164E-02  0.1184000E+00
        -11   -1    0    0    0    0  0.00000000000E+00  0.00000000000E+00  0.45593999997E+02  0.45594000000E+02  0.51100000000E-03 0. -1.
         11   -1    0    0    0    0 -0.00000000000E+00 -0.00000000000E+00 -0.45593999997E+02  0.45594000000E+02  0.51100000000E-03 0.  1.
         23    2    1    2    0    0  0.00000000000E+00  0.00000000000E+00  0.17763568394E-14  0.91188000000E+02  0.91188000000E+02 0.  0.
    9900012    2    3    3    0    0 -0.33503899635E+02 -0.91945124937E+01  0.12195569968E+02  0.54367051104E+02  0.39999924603E+02 0.  0.
        -12    1    3    3    0    0  0.33503899635E+02  0.91945124937E+01 -0.12195569968E+02  0.36820948896E+02  0.00000000000E+00 0.  1.
         11    1    4    4    0    0 -0.27259293308E+02 -0.48564267021E+01  0.23947185482E+01  0.27791880634E+02  0.51100000000E-03 0. -1.
        -11    1    4    4    0    0  0.76288697528E+01  0.38281855839E+01  0.43414399243E+01  0.95761557761E+01  0.51100000000E-03 0.  1.
        -12    1    4    4    0    0 -0.13873476079E+02 -0.81662713755E+01  0.54594114958E+01  0.16999014694E+02  0.00000000000E+00 0.  1.
</event>
<event>
 8    1  0.1240174E-006  0.9118800E+02  0.7816164E-02  0.1184000E+00
        -11   -1    0    0    0    0  0.00000000000E+00  0.00000000000E+00  0.45593999997E+02  0.45594000000E+02  0.51100000000E-03 0. -1.
         11   -1    0    0    0    0 -0.00000000000E+00 -0.00000000000E+00 -0.45593999997E+02  0.45594000000E+02  0.51100000000E-03 0.  1.
         23    2    1    2    0    0  0.88817841970E-15  0.00000000000E+00  0.13322676296E-14  0.91188000000E+02  0.91188000000E+02 0.  0.
    9900012    2    3    3    0    0  0.50701869851E+01 -0.36389017376E+02  0.24321598311E+01  0.54367044240E+02  0.39999908954E+02 0.  0.
        -12    1    3    3    0    0 -0.50701869851E+01  0.36389017376E+02 -0.24321598311E+01  0.36820955760E+02  0.00000000000E+00 0.  1.
         11    1    4    4    0    0  0.39305823598E+01 -0.23911524041E+02  0.67239000341E+01  0.25147987823E+02  0.51100000000E-03 0. -1.
        -11    1    4    4    0    0 -0.10743655797E+01 -0.42983553245E+01 -0.14955876879E+02  0.15598345213E+02  0.51100000000E-03 0.  1.
        -12    1    4    4    0    0  0.22139702050E+01 -0.81791380107E+01  0.10664136676E+02  0.13620711204E+02  0.00000000000E+00 0.  1.
</event>
<event>
 8    1  0.1240174E-006  0.9118800E+02  0.7816164E-02  0.1184000E+00
        -11   -1    0    0    0    0  0.00000000000E+00  0.00000000000E+00  0.45593999997E+02  0.45594000000E+02  0.51100000000E-03 0.  1.
         11   -1    0    0    0    0 -0.00000000000E+00 -0.00000000000E+00 -0.45593999997E+02  0.45594000000E+02  0.51100000000E-03 0. -1.
         23    2    1    2    0    0  0.22204460493E-15  0.35527136788E-14  0.00000000000E+00  0.91188000000E+02  0.91188000000E+02 0.  0.
    9900012    2    3    3    0    0  0.18135835432E+01  0.14579289196E+02  0.33762895964E+02  0.54367110513E+02  0.40000060036E+02 0.  0.
         12    1    3    3    0    0 -0.18135835432E+01 -0.14579289196E+02 -0.33762895964E+02  0.36820889487E+02  0.00000000000E+00 0. -1.
         11    1    4    4    0    0  0.51630272240E+01  0.12199530096E+00 -0.34442299407E+01  0.62076125132E+01  0.51100000000E-03 0. -1.
        -11    1    4    4    0    0  0.21291062240E+01  0.74201349379E+01  0.38394181858E+02  0.39162542009E+02  0.51100000000E-03 0.  1.
        -12    1    4    4    0    0 -0.54785499048E+01  0.70371589574E+01 -0.11870559531E+01  0.89969559900E+01  0.00000000000E+00 0.  1.
</event>
<event>
 8    1  0.1240174E-006  0.9118800E+02  0.7816164E-02  0.1184000E+00
        -11   -1    0    0    0    0  0.00000000000E+00  0.00000000000E+00  0.45593999997E+02  0.45594000000E+02  0.51100000000E-03 0.  1.
         11   -1    0    0    0    0 -0.00000000000E+00 -0.00000000000E+00 -0.45593999997E+02  0.45594000000E+02  0.51100000000E-03 0. -1.
         23    2    1    2    0    0  0.00000000000E+00 -0.17763568394E-14  0.35527136788E-14  0.91188000000E+02  0.91188000000E+02 0.  0.
    9900012    2    3    3    0    0  0.30001252508E+02  0.13784244410E+02 -0.16300279916E+02  0.54367086495E+02  0.40000005283E+02 0.  0.
        -12    1    3    3    0    0 -0.30001252508E+02 -0.13784244410E+02  0.16300279916E+02  0.36820913505E+02  0.00000000000E+00 0.  1.
         11    1    4    4    0    0  0.28524977843E+01 -0.20125652945E+01  0.91655297840E+00  0.36093257400E+01  0.51100000000E-03 0. -1.
        -11    1    4    4    0    0 -0.19963002390E+01  0.42180486767E+01  0.88323471321E+01  0.99893696200E+01  0.51100000000E-03 0.  1.
        -12    1    4    4    0    0  0.29145054963E+02  0.11578761028E+02 -0.26049180026E+02  0.40768391135E+02  0.00000000000E+00 0.  1.
</event>
<event>
 8    1  0.1240174E-006  0.9118800E+02  0.7816164E-02  0.1184000E+00
        -11   -1    0    0    0    0  0.00000000000E+00  0.00000000000E+00  0.45593999997E+02  0.45594000000E+02  0.51100000000E-03 0.  1.
         11   -1    0    0    0    0 -0.00000000000E+00 -0.00000000000E+00 -0.45593999997E+02  0.45594000000E+02  0.51100000000E-03 0. -1.
         23    2    1    2    0    0  0.00000000000E+00  0.00000000000E+00  0.17763568394E-14  0.91188000000E+02  0.91188000000E+02 0.  0.
    9900012    2    3    3    0    0 -0.33903627425E+02  0.96101043766E+01  0.10675687524E+02  0.54367077105E+02  0.39999983877E+02 0.  0.
         12    1    3    3    0    0  0.33903627425E+02 -0.96101043766E+01 -0.10675687524E+02  0.36820922895E+02  0.00000000000E+00 0. -1.
         11    1    4    4    0    0 -0.89251645909E+01  0.10589399819E+02 -0.88844007637E+01  0.16453769437E+02  0.51100000000E-03 0. -1.
        -11    1    4    4    0    0 -0.26994454416E+02  0.15054188808E+01  0.21163319744E+02  0.34334428175E+02  0.51100000000E-03 0.  1.
         12    1    4    4    0    0  0.20159915819E+01 -0.24847143229E+01 -0.16032314562E+01  0.35788794933E+01  0.00000000000E+00 0. -1.
</event>
<event>
 8    1  0.1240174E-006  0.9118800E+02  0.7816164E-02  0.1184000E+00
        -11   -1    0    0    0    0  0.00000000000E+00  0.00000000000E+00  0.45593999997E+02  0.45594000000E+02  0.51100000000E-03 0.  1.
         11   -1    0    0    0    0 -0.00000000000E+00 -0.00000000000E+00 -0.45593999997E+02  0.45594000000E+02  0.51100000000E-03 0. -1.
         23    2    1    2    0    0  0.17763568394E-14  0.00000000000E+00  0.00000000000E+00  0.91188000000E+02  0.91188000000E+02 0.  0.
    9900012    2    3    3    0    0 -0.14635878740E+02 -0.12861462016E+01 -0.33762691886E+02  0.54367048329E+02  0.39999918275E+02 0.  0.
        -12    1    3    3    0    0  0.14635878740E+02  0.12861462016E+01  0.33762691886E+02  0.36820951671E+02  0.00000000000E+00 0.  1.
         11    1    4    4    0    0  0.12819677617E+01 -0.65965412596E+01 -0.74093081084E+01  0.10002781855E+02  0.51100000000E-03 0. -1.
        -11    1    4    4    0    0  0.91730044466E+01 -0.15282063103E+01 -0.99394543745E+01  0.13611472317E+02  0.51100000000E-03 0.  1.
        -12    1    4    4    0    0 -0.25090850949E+02  0.68386013684E+01 -0.16413929404E+02  0.30752794157E+02  0.00000000000E+00 0.  1.
</event>
<event>
 8    1  0.1240174E-006  0.9118800E+02  0.7816164E-02  0.1184000E+00
        -11   -1    0    0    0    0  0.00000000000E+00  0.00000000000E+00  0.45593999997E+02  0.45594000000E+02  0.51100000000E-03 0. -1.
         11   -1    0    0    0    0 -0.00000000000E+00 -0.00000000000E+00 -0.45593999997E+02  0.45594000000E+02  0.51100000000E-03 0.  1.
         23    2    1    2    0    0  0.17763568394E-14  0.00000000000E+00  0.00000000000E+00  0.91188000000E+02  0.91188000000E+02 0.  0.
    9900012    2    3    3    0    0 -0.74464446394E+01  0.35476979990E+02  0.64585539729E+01  0.54367101499E+02  0.40000039488E+02 0.  0.
        -12    1    3    3    0    0  0.74464446394E+01 -0.35476979990E+02 -0.64585539729E+01  0.36820898501E+02  0.00000000000E+00 0.  1.
         11    1    4    4    0    0  0.55460367327E+01  0.24342884103E+01 -0.10008955319E+01  0.61388985683E+01  0.51100000000E-03 0. -1.
        -11    1    4    4    0    0  0.98222310398E+01  0.60618419443E+01  0.56428935756E+01  0.12847739043E+02  0.51100000000E-03 0.  1.
         12    1    4    4    0    0 -0.22814712412E+02  0.26980849635E+02  0.18165559292E+01  0.35380463888E+02  0.00000000000E+00 0. -1.
</event>
<event>
 8    1  0.1240174E-006  0.9118800E+02  0.7816164E-02  0.1184000E+00
        -11   -1    0    0    0    0  0.00000000000E+00  0.00000000000E+00  0.45593999997E+02  0.45594000000E+02  0.51100000000E-03 0. -1.
         11   -1    0    0    0    0 -0.00000000000E+00 -0.00000000000E+00 -0.45593999997E+02  0.45594000000E+02  0.51100000000E-03 0.  1.
         23    2    1    2    0    0  0.88817841970E-15  0.00000000000E+00  0.00000000000E+00  0.91188000000E+02  0.91188000000E+02 0.  0.
    9900012    2    3    3    0    0 -0.53228654328E+01 -0.14830012171E+02  0.33279397357E+02  0.54367075978E+02  0.39999981306E+02 0.  0.
        -12    1    3    3    0    0  0.53228654328E+01  0.14830012171E+02 -0.33279397357E+02  0.36820924022E+02  0.00000000000E+00 0.  1.
         11    1    4    4    0    0  0.47015288384E+00 -0.27819122536E+01  0.29989872474E+02  0.30122292920E+02  0.51100000000E-03 0. -1.
        -11    1    4    4    0    0 -0.12299082516E+01  0.50945271223E+01  0.38393262058E+01  0.64967150840E+01  0.51100000000E-03 0.  1.
         12    1    4    4    0    0 -0.45631100650E+01 -0.17142627040E+02 -0.54980132244E+00  0.17748067974E+02  0.00000000000E+00 0. -1.
</event>
<event>
 8    1  0.1240174E-006  0.9118800E+02  0.7816164E-02  0.1184000E+00
        -11   -1    0    0    0    0  0.00000000000E+00  0.00000000000E+00  0.45593999997E+02  0.45594000000E+02  0.51100000000E-03 0.  1.
         11   -1    0    0    0    0 -0.00000000000E+00 -0.00000000000E+00 -0.45593999997E+02  0.45594000000E+02  0.51100000000E-03 0. -1.
         23    2    1    2    0    0  0.17763568394E-14  0.00000000000E+00  0.00000000000E+00  0.91188000000E+02  0.91188000000E+02 0.  0.
    9900012    2    3    3    0    0 -0.14496649449E+02  0.20674259458E+02  0.26799281527E+02  0.54367090998E+02  0.40000015548E+02 0.  0.
         12    1    3    3    0    0  0.14496649449E+02 -0.20674259458E+02 -0.26799281527E+02  0.36820909002E+02  0.00000000000E+00 0. -1.
         11    1    4    4    0    0 -0.75505493268E+01  0.15328689989E+02  0.12427837815E+00  0.17087860524E+02  0.51100000000E-03 0. -1.
        -11    1    4    4    0    0 -0.88728579408E+00 -0.96754504333E+01  0.11829557857E+02  0.15308169600E+02  0.51100000000E-03 0.  1.
        -12    1    4    4    0    0 -0.60588143279E+01  0.15021019902E+02  0.14845445292E+02  0.21971060873E+02  0.00000000000E+00 0.  1.
</event>
<event>
 8    1  0.1240174E-006  0.9118800E+02  0.7816164E-02  0.1184000E+00
        -11   -1    0    0    0    0  0.00000000000E+00  0.00000000000E+00  0.45593999997E+02  0.45594000000E+02  0.51100000000E-03 0. -1.
         11   -1    0    0    0    0 -0.00000000000E+00 -0.00000000000E+00 -0.45593999997E+02  0.45594000000E+02  0.51100000000E-03 0.  1.
         23    2    1    2    0    0  0.71054273576E-14  0.66613381478E-15  0.00000000000E+00  0.91188000000E+02  0.91188000000E+02 0.  0.
    9900012    2    3    3    0    0  0.35856250453E+02 -0.14261066037E+01  0.82506647776E+01  0.54367109926E+02  0.40000058699E+02 0.  0.
         12    1    3    3    0    0 -0.35856250453E+02  0.14261066037E+01 -0.82506647776E+01  0.36820890074E+02  0.00000000000E+00 0. -1.
         11    1    4    4    0    0 -0.28003870471E+01 -0.72302263339E+01 -0.72508570759E+01  0.10615708599E+02  0.51100000000E-03 0. -1.
        -11    1    4    4    0    0  0.30011855194E+02 -0.38677500188E+00  0.13591413116E+02  0.32948255763E+02  0.51100000000E-03 0.  1.
         12    1    4    4    0    0  0.86447823053E+01  0.61908947321E+01  0.19101087377E+01  0.10803145564E+02  0.00000000000E+00 0. -1.
</event>
<event>
 8    1  0.1240174E-006  0.9118800E+02  0.7816164E-02  0.1184000E+00
        -11   -1    0    0    0    0  0.00000000000E+00  0.00000000000E+00  0.45593999997E+02  0.45594000000E+02  0.51100000000E-03 0. -1.
         11   -1    0    0    0    0 -0.00000000000E+00 -0.00000000000E+00 -0.45593999997E+02  0.45594000000E+02  0.51100000000E-03 0.  1.
         23    2    1    2    0    0  0.00000000000E+00  0.00000000000E+00  0.00000000000E+00  0.91188000000E+02  0.91188000000E+02 0.  0.
    9900012    2    3    3    0    0 -0.16094444305E+02 -0.22369150897E+02  0.24420668940E+02  0.54367093970E+02  0.40000022324E+02 0.  0.
        -12    1    3    3    0    0  0.16094444305E+02  0.22369150897E+02 -0.24420668940E+02  0.36820906030E+02  0.00000000000E+00 0.  1.
         11    1    4    4    0    0  0.10369721170E+00 -0.58415072548E+01  0.11735301700E+02  0.13109205405E+02  0.51100000000E-03 0. -1.
        -11    1    4    4    0    0 -0.52169486391E+01 -0.20561952789E+02  0.18542216621E+02  0.28174886922E+02  0.51100000000E-03 0.  1.
        -12    1    4    4    0    0 -0.10981192878E+02  0.40343091466E+01 -0.58568493805E+01  0.13083001642E+02  0.00000000000E+00 0.  1.
</event>
<event>
 8    1  0.1240174E-006  0.9118800E+02  0.7816164E-02  0.1184000E+00
        -11   -1    0    0    0    0  0.00000000000E+00  0.00000000000E+00  0.45593999997E+02  0.45594000000E+02  0.51100000000E-03 0. -1.
         11   -1    0    0    0    0 -0.00000000000E+00 -0.00000000000E+00 -0.45593999997E+02  0.45594000000E+02  0.51100000000E-03 0.  1.
         23    2    1    2    0    0  0.00000000000E+00  0.00000000000E+00  0.00000000000E+00  0.91188000000E+02  0.91188000000E+02 0.  0.
    9900012    2    3    3    0    0  0.24422375227E+02 -0.18019378451E+02  0.20847780808E+02  0.54367076924E+02  0.39999983464E+02 0.  0.
        -12    1    3    3    0    0 -0.24422375227E+02  0.18019378451E+02 -0.20847780808E+02  0.36820923076E+02  0.00000000000E+00 0.  1.
         11    1    4    4    0    0  0.13291551029E+02  0.50315901465E+01  0.23637023671E+02  0.27580629369E+02  0.51100000000E-03 0. -1.
        -11    1    4    4    0    0  0.50618984977E+01 -0.14626955664E+02  0.15047593045E+01  0.15551043349E+02  0.51100000000E-03 0.  1.
         12    1    4    4    0    0  0.60689257010E+01 -0.84240129335E+01 -0.42940021668E+01  0.11235404206E+02  0.00000000000E+00 0. -1.
</event>
<event>
 8    1  0.1240174E-006  0.9118800E+02  0.7816164E-02  0.1184000E+00
        -11   -1    0    0    0    0  0.00000000000E+00  0.00000000000E+00  0.45593999997E+02  0.45594000000E+02  0.51100000000E-03 0.  1.
         11   -1    0    0    0    0 -0.00000000000E+00 -0.00000000000E+00 -0.45593999997E+02  0.45594000000E+02  0.51100000000E-03 0. -1.
         23    2    1    2    0    0  0.35527136788E-14  0.17763568394E-14  0.00000000000E+00  0.91188000000E+02  0.91188000000E+02 0.  0.
    9900012    2    3    3    0    0 -0.21912558522E+02 -0.82591313478E+01 -0.28414898682E+02  0.54367082865E+02  0.39999997006E+02 0.  0.
        -12    1    3    3    0    0  0.21912558522E+02  0.82591313478E+01  0.28414898682E+02  0.36820917135E+02  0.00000000000E+00 0.  1.
         11    1    4    4    0    0 -0.27163143459E+02 -0.13758914900E+00 -0.10445895484E+02  0.29102783820E+02  0.51100000000E-03 0. -1.
        -11    1    4    4    0    0 -0.34443298426E+01 -0.83202757639E+01 -0.10153417056E+02  0.13571377050E+02  0.51100000000E-03 0.  1.
        -12    1    4    4    0    0  0.86949147792E+01  0.19873356509E+00 -0.78155861413E+01  0.11692921995E+02  0.00000000000E+00 0.  1.
</event>
<event>
 8    1  0.1240174E-006  0.9118800E+02  0.7816164E-02  0.1184000E+00
        -11   -1    0    0    0    0  0.00000000000E+00  0.00000000000E+00  0.45593999997E+02  0.45594000000E+02  0.51100000000E-03 0.  1.
         11   -1    0    0    0    0 -0.00000000000E+00 -0.00000000000E+00 -0.45593999997E+02  0.45594000000E+02  0.51100000000E-03 0. -1.
         23    2    1    2    0    0  0.35527136788E-14  0.17763568394E-14  0.00000000000E+00  0.91188000000E+02  0.91188000000E+02 0.  0.
    9900012    2    3    3    0    0 -0.23387470589E+02  0.14473464933E+02  0.24481116405E+02  0.54367081650E+02  0.39999994237E+02 0.  0.
         12    1    3    3    0    0  0.23387470589E+02 -0.14473464933E+02 -0.24481116405E+02  0.36820918350E+02  0.00000000000E+00 0. -1.
         11    1    4    4    0    0 -0.54980014344E+01 -0.38336363008E+01  0.93462943541E+01  0.11501217565E+02  0.51100000000E-03 0. -1.
        -11    1    4    4    0    0  0.33748012852E+01  0.18207659743E+02  0.97608905141E+01  0.20932824485E+02  0.51100000000E-03 0.  1.
        -12    1    4    4    0    0 -0.21264270440E+02  0.99441490609E-01  0.53739315369E+01  0.21933039600E+02  0.00000000000E+00 0.  1.
</event>
<event>
 8    1  0.1240174E-006  0.9118800E+02  0.7816164E-02  0.1184000E+00
        -11   -1    0    0    0    0  0.00000000000E+00  0.00000000000E+00  0.45593999997E+02  0.45594000000E+02  0.51100000000E-03 0. -1.
         11   -1    0    0    0    0 -0.00000000000E+00 -0.00000000000E+00 -0.45593999997E+02  0.45594000000E+02  0.51100000000E-03 0.  1.
         23    2    1    2    0    0  0.00000000000E+00  0.00000000000E+00  0.00000000000E+00  0.91188000000E+02  0.91188000000E+02 0.  0.
    9900012    2    3    3    0    0 -0.12038789103E+02  0.17628133228E+02 -0.30001600422E+02  0.54367088115E+02  0.40000008976E+02 0.  0.
         12    1    3    3    0    0  0.12038789103E+02 -0.17628133228E+02  0.30001600422E+02  0.36820911885E+02  0.00000000000E+00 0. -1.
         11    1    4    4    0    0  0.20830754198E+01 -0.64778200835E+01 -0.32809672401E+01  0.75542109138E+01  0.51100000000E-03 0. -1.
        -11    1    4    4    0    0 -0.32299462144E+01  0.24657220072E+02 -0.98997829097E+01  0.26765962642E+02  0.51100000000E-03 0.  1.
        -12    1    4    4    0    0 -0.10891918308E+02 -0.55126676025E+00 -0.16820850272E+02  0.20046914559E+02  0.00000000000E+00 0.  1.
</event>
<event>
 8    1  0.1240174E-006  0.9118800E+02  0.7816164E-02  0.1184000E+00
        -11   -1    0    0    0    0  0.00000000000E+00  0.00000000000E+00  0.45593999997E+02  0.45594000000E+02  0.51100000000E-03 0. -1.
         11   -1    0    0    0    0 -0.00000000000E+00 -0.00000000000E+00 -0.45593999997E+02  0.45594000000E+02  0.51100000000E-03 0.  1.
         23    2    1    2    0    0  0.17763568394E-14  0.00000000000E+00  0.35527136788E-14  0.91188000000E+02  0.91188000000E+02 0.  0.
    9900012    2    3    3    0    0 -0.89779176270E+01 -0.28228059390E+02 -0.21871254712E+02  0.54367107500E+02  0.40000053167E+02 0.  0.
         12    1    3    3    0    0  0.89779176270E+01  0.28228059390E+02  0.21871254712E+02  0.36820892500E+02  0.00000000000E+00 0. -1.
         11    1    4    4    0    0  0.53143074535E+01 -0.17761436121E+02  0.26023160504E+01  0.18721178538E+02  0.51100000000E-03 0. -1.
        -11    1    4    4    0    0 -0.14923503620E+01 -0.41949708001E+01 -0.20315976443E+02  0.20798167917E+02  0.51100000000E-03 0.  1.
         12    1    4    4    0    0 -0.12799874718E+02 -0.62716524691E+01 -0.41575943193E+01  0.14847761044E+02  0.00000000000E+00 0. -1.
</event>
<event>
 8    1  0.1240174E-006  0.9118800E+02  0.7816164E-02  0.1184000E+00
        -11   -1    0    0    0    0  0.00000000000E+00  0.00000000000E+00  0.45593999997E+02  0.45594000000E+02  0.51100000000E-03 0. -1.
         11   -1    0    0    0    0 -0.00000000000E+00 -0.00000000000E+00 -0.45593999997E+02  0.45594000000E+02  0.51100000000E-03 0.  1.
         23    2    1    2    0    0  0.00000000000E+00 -0.17763568394E-14  0.35527136788E-14  0.91188000000E+02  0.91188000000E+02 0.  0.
    9900012    2    3    3    0    0  0.12874509263E+02  0.13703183386E+02  0.31658300579E+02  0.54367106214E+02  0.40000050236E+02 0.  0.
        -12    1    3    3    0    0 -0.12874509263E+02 -0.13703183386E+02 -0.31658300579E+02  0.36820893786E+02  0.00000000000E+00 0.  1.
         11    1    4    4    0    0  0.75677734505E+01 -0.23448999332E+01  0.10067245005E+02  0.12810900552E+02  0.51100000000E-03 0. -1.
        -11    1    4    4    0    0  0.10138551083E+02  0.21173181761E+02  0.56755654434E+01  0.24151726384E+02  0.51100000000E-03 0.  1.
         12    1    4    4    0    0 -0.48318152708E+01 -0.51250984422E+01  0.15915490130E+02  0.17404479278E+02  0.00000000000E+00 0. -1.
</event>
<event>
 8    1  0.1240174E-006  0.9118800E+02  0.7816164E-02  0.1184000E+00
        -11   -1    0    0    0    0  0.00000000000E+00  0.00000000000E+00  0.45593999997E+02  0.45594000000E+02  0.51100000000E-03 0.  1.
         11   -1    0    0    0    0 -0.00000000000E+00 -0.00000000000E+00 -0.45593999997E+02  0.45594000000E+02  0.51100000000E-03 0. -1.
         23    2    1    2    0    0  0.35527136788E-14  0.00000000000E+00  0.00000000000E+00  0.91188000000E+02  0.91188000000E+02 0.  0.
    9900012    2    3    3    0    0 -0.88446629062E+01  0.86921123502E+01  0.34669868139E+02  0.54367073399E+02  0.39999975427E+02 0.  0.
         12    1    3    3    0    0  0.88446629062E+01 -0.86921123502E+01 -0.34669868139E+02  0.36820926601E+02  0.00000000000E+00 0. -1.
         11    1    4    4    0    0  0.11665553807E+01  0.16907692604E+00 -0.56825969490E+01  0.58035632856E+01  0.51100000000E-03 0. -1.
        -11    1    4    4    0    0 -0.17333458834E+02  0.73517940862E+01  0.23213739962E+02  0.29889385988E+02  0.51100000000E-03 0.  1.
        -12    1    4    4    0    0  0.73222405472E+01  0.11712413379E+01  0.17138725126E+02  0.18674124125E+02  0.00000000000E+00 0.  1.
</event>
<event>
 8    1  0.1240174E-006  0.9118800E+02  0.7816164E-02  0.1184000E+00
        -11   -1    0    0    0    0  0.00000000000E+00  0.00000000000E+00  0.45593999997E+02  0.45594000000E+02  0.51100000000E-03 0.  1.
         11   -1    0    0    0    0 -0.00000000000E+00 -0.00000000000E+00 -0.45593999997E+02  0.45594000000E+02  0.51100000000E-03 0. -1.
         23    2    1    2    0    0  0.00000000000E+00 -0.44408920985E-15  0.00000000000E+00  0.91188000000E+02  0.91188000000E+02 0.  0.
    9900012    2    3    3    0    0 -0.20056925912E+01 -0.10390335012E+01  0.36751571059E+02  0.54367077025E+02  0.39999983695E+02 0.  0.
         12    1    3    3    0    0  0.20056925912E+01  0.10390335012E+01 -0.36751571059E+02  0.36820922975E+02  0.00000000000E+00 0. -1.
         11    1    4    4    0    0 -0.10322287547E+02  0.32306049341E+01 -0.45780188621E+00  0.10825710659E+02  0.51100000000E-03 0. -1.
        -11    1    4    4    0    0  0.66831580866E+00 -0.11587747201E+02  0.15258247459E+02  0.19171245317E+02  0.51100000000E-03 0.  1.
         12    1    4    4    0    0  0.76482791475E+01  0.73181087661E+01  0.21951125487E+02  0.24370121049E+02  0.00000000000E+00 0. -1.
</event>
<event>
 8    1  0.1240174E-006  0.9118800E+02  0.7816164E-02  0.1184000E+00
        -11   -1    0    0    0    0  0.00000000000E+00  0.00000000000E+00  0.45593999997E+02  0.45594000000E+02  0.51100000000E-03 0. -1.
         11   -1    0    0    0    0 -0.00000000000E+00 -0.00000000000E+00 -0.45593999997E+02  0.45594000000E+02  0.51100000000E-03 0.  1.
         23    2    1    2    0    0  0.00000000000E+00  0.00000000000E+00  0.00000000000E+00  0.91188000000E+02  0.91188000000E+02 0.  0.
    9900012    2    3    3    0    0  0.22167836642E+02 -0.19898420659E+02 -0.21643012263E+02  0.54367080594E+02  0.39999991830E+02 0.  0.
         12    1    3    3    0    0 -0.22167836642E+02  0.19898420659E+02  0.21643012263E+02  0.36820919406E+02  0.00000000000E+00 0. -1.
         11    1    4    4    0    0  0.15033314366E+02 -0.54913773922E+01 -0.22257891208E+02  0.27414767695E+02  0.51100000000E-03 0. -1.
        -11    1    4    4    0    0 -0.38037725365E+01 -0.42447860793E+01 -0.79175935526E+01  0.97557768678E+01  0.51100000000E-03 0.  1.
         12    1    4    4    0    0  0.10938294812E+02 -0.10162257188E+02  0.85324724977E+01  0.17196536031E+02  0.00000000000E+00 0. -1.
</event>
<event>
 8    1  0.1240174E-006  0.9118800E+02  0.7816164E-02  0.1184000E+00
        -11   -1    0    0    0    0  0.00000000000E+00  0.00000000000E+00  0.45593999997E+02  0.45594000000E+02  0.51100000000E-03 0.  1.
         11   -1    0    0    0    0 -0.00000000000E+00 -0.00000000000E+00 -0.45593999997E+02  0.45594000000E+02  0.51100000000E-03 0. -1.
         23    2    1    2    0    0  0.00000000000E+00  0.88817841970E-15  0.00000000000E+00  0.91188000000E+02  0.91188000000E+02 0.  0.
    9900012    2    3    3    0    0 -0.30670087641E+02 -0.78462853760E+01 -0.18803292706E+02  0.54367050981E+02  0.39999924321E+02 0.  0.
         12    1    3    3    0    0  0.30670087641E+02  0.78462853760E+01  0.18803292706E+02  0.36820949019E+02  0.00000000000E+00 0. -1.
         11    1    4    4    0    0  0.38173304002E+01 -0.39957658811E+01 -0.17366628438E+02  0.18224651983E+02  0.51100000000E-03 0. -1.
        -11    1    4    4    0    0 -0.57684521354E+01 -0.35553860828E+01  0.23528659238E+01  0.71729902100E+01  0.51100000000E-03 0.  1.
        -12    1    4    4    0    0 -0.28718965905E+02 -0.29513341205E+00 -0.37895301921E+01  0.28969408787E+02  0.00000000000E+00 0.  1.
</event>
<event>
 8    1  0.1240174E-006  0.9118800E+02  0.7816164E-02  0.1184000E+00
        -11   -1    0    0    0    0  0.00000000000E+00  0.00000000000E+00  0.45593999997E+02  0.45594000000E+02  0.51100000000E-03 0. -1.
         11   -1    0    0    0    0 -0.00000000000E+00 -0.00000000000E+00 -0.45593999997E+02  0.45594000000E+02  0.51100000000E-03 0.  1.
         23    2    1    2    0    0  0.19428902931E-15  0.00000000000E+00  0.00000000000E+00  0.91188000000E+02  0.91188000000E+02 0.  0.
    9900012    2    3    3    0    0 -0.23118232174E+00  0.35900392794E+02 -0.81784376549E+01  0.54367102530E+02  0.40000041838E+02 0.  0.
         12    1    3    3    0    0  0.23118232174E+00 -0.35900392794E+02  0.81784376549E+01  0.36820897470E+02  0.00000000000E+00 0. -1.
         11    1    4    4    0    0  0.77767395577E+01 -0.23573765537E+01  0.21423006740E+01  0.84038297700E+01  0.51100000000E-03 0. -1.
        -11    1    4    4    0    0 -0.37254502896E+01 -0.10021546096E+01 -0.46872224136E+01  0.60706958364E+01  0.51100000000E-03 0.  1.
        -12    1    4    4    0    0 -0.42824715898E+01  0.39259923957E+02 -0.56335159152E+01  0.39892576924E+02  0.00000000000E+00 0.  1.
</event>
<event>
 8    1  0.1240174E-006  0.9118800E+02  0.7816164E-02  0.1184000E+00
        -11   -1    0    0    0    0  0.00000000000E+00  0.00000000000E+00  0.45593999997E+02  0.45594000000E+02  0.51100000000E-03 0. -1.
         11   -1    0    0    0    0 -0.00000000000E+00 -0.00000000000E+00 -0.45593999997E+02  0.45594000000E+02  0.51100000000E-03 0.  1.
         23    2    1    2    0    0  0.88817841970E-15  0.00000000000E+00  0.00000000000E+00  0.91188000000E+02  0.91188000000E+02 0.  0.
    9900012    2    3    3    0    0 -0.55925980307E+01 -0.98021145390E+01  0.35048838521E+02  0.54367086325E+02  0.40000004896E+02 0.  0.
        -12    1    3    3    0    0  0.55925980307E+01  0.98021145390E+01 -0.35048838521E+02  0.36820913675E+02  0.00000000000E+00 0.  1.
         11    1    4    4    0    0  0.14126267492E+02 -0.10620679294E+02  0.16100083148E+02  0.23907382533E+02  0.51100000000E-03 0. -1.
        -11    1    4    4    0    0 -0.81466839579E+01  0.59332608628E+01  0.39185946387E+01  0.10813298672E+02  0.51100000000E-03 0.  1.
         12    1    4    4    0    0 -0.11572181565E+02 -0.51146961083E+01  0.15030160734E+02  0.19646405120E+02  0.00000000000E+00 0. -1.
</event>
<event>
 8    1  0.1240174E-006  0.9118800E+02  0.7816164E-02  0.1184000E+00
        -11   -1    0    0    0    0  0.00000000000E+00  0.00000000000E+00  0.45593999997E+02  0.45594000000E+02  0.51100000000E-03 0.  1.
         11   -1    0    0    0    0 -0.00000000000E+00 -0.00000000000E+00 -0.45593999997E+02  0.45594000000E+02  0.51100000000E-03 0. -1.
         23    2    1    2    0    0  0.35527136788E-14  0.17763568394E-14  0.35527136788E-14  0.91188000000E+02  0.91188000000E+02 0.  0.
    9900012    2    3    3    0    0 -0.26458550843E+02  0.59917531365E+01  0.24896268917E+02  0.54367078986E+02  0.39999988165E+02 0.  0.
         12    1    3    3    0    0  0.26458550843E+02 -0.59917531365E+01 -0.24896268917E+02  0.36820921014E+02  0.00000000000E+00 0. -1.
         11    1    4    4    0    0 -0.73399811250E+01  0.19394738222E+02  0.15038398568E+02  0.25616100901E+02  0.51100000000E-03 0. -1.
        -11    1    4    4    0    0 -0.13621010526E+02 -0.12708498097E+02  0.14552364499E+01  0.18685704831E+02  0.51100000000E-03 0.  1.
        -12    1    4    4    0    0 -0.54975591917E+01 -0.69448698867E+00  0.84026338992E+01  0.10065273254E+02  0.00000000000E+00 0.  1.
</event>
<event>
 8    1  0.1240174E-006  0.9118800E+02  0.7816164E-02  0.1184000E+00
        -11   -1    0    0    0    0  0.00000000000E+00  0.00000000000E+00  0.45593999997E+02  0.45594000000E+02  0.51100000000E-03 0.  1.
         11   -1    0    0    0    0 -0.00000000000E+00 -0.00000000000E+00 -0.45593999997E+02  0.45594000000E+02  0.51100000000E-03 0. -1.
         23    2    1    2    0    0  0.00000000000E+00 -0.35527136788E-14  0.00000000000E+00  0.91188000000E+02  0.91188000000E+02 0.  0.
    9900012    2    3    3    0    0 -0.10464416113E+02  0.21481976964E+02 -0.28014290709E+02  0.54367084438E+02  0.40000000594E+02 0.  0.
         12    1    3    3    0    0  0.10464416113E+02 -0.21481976964E+02  0.28014290709E+02  0.36820915562E+02  0.00000000000E+00 0. -1.
         11    1    4    4    0    0 -0.68639050699E+01 -0.33511818413E+00 -0.10203306950E+02  0.12301746624E+02  0.51100000000E-03 0. -1.
        -11    1    4    4    0    0 -0.89679469639E+01 -0.32414708818E+01  0.19143499566E+01  0.97260445322E+01  0.51100000000E-03 0.  1.
        -12    1    4    4    0    0  0.53674359204E+01  0.25058566030E+02 -0.19725333715E+02  0.32339293282E+02  0.00000000000E+00 0.  1.
</event>
<event>
 8    1  0.1240174E-006  0.9118800E+02  0.7816164E-02  0.1184000E+00
        -11   -1    0    0    0    0  0.00000000000E+00  0.00000000000E+00  0.45593999997E+02  0.45594000000E+02  0.51100000000E-03 0. -1.
         11   -1    0    0    0    0 -0.00000000000E+00 -0.00000000000E+00 -0.45593999997E+02  0.45594000000E+02  0.51100000000E-03 0.  1.
         23    2    1    2    0    0  0.71054273576E-14  0.33306690739E-15 -0.35527136788E-14  0.91188000000E+02  0.91188000000E+02 0.  0.
    9900012    2    3    3    0    0  0.24359183213E+02 -0.84865698148E+00 -0.27598731091E+02  0.54367082258E+02  0.39999995624E+02 0.  0.
         12    1    3    3    0    0 -0.24359183213E+02  0.84865698148E+00  0.27598731091E+02  0.36820917742E+02  0.00000000000E+00 0. -1.
         11    1    4    4    0    0  0.39962281157E+01  0.19751298087E+00 -0.15117678217E+01  0.42771828039E+01  0.51100000000E-03 0. -1.
        -11    1    4    4    0    0  0.21619336217E+02  0.12712128807E+02 -0.61309212311E+01  0.25818251542E+02  0.51100000000E-03 0.  1.
         12    1    4    4    0    0 -0.12563811191E+01 -0.13758298769E+02 -0.19956042039E+02  0.24271647913E+02  0.00000000000E+00 0. -1.
</event>
<event>
 8    1  0.1240174E-006  0.9118800E+02  0.7816164E-02  0.1184000E+00
        -11   -1    0    0    0    0  0.00000000000E+00  0.00000000000E+00  0.45593999997E+02  0.45594000000E+02  0.51100000000E-03 0.  1.
         11   -1    0    0    0    0 -0.00000000000E+00 -0.00000000000E+00 -0.45593999997E+02  0.45594000000E+02  0.51100000000E-03 0. -1.
         23    2    1    2    0    0  0.00000000000E+00  0.88817841970E-15  0.00000000000E+00  0.91188000000E+02  0.91188000000E+02 0.  0.
    9900012    2    3    3    0    0 -0.97519964435E+01 -0.39074650823E+01  0.35290368000E+02  0.54367084862E+02  0.40000001560E+02 0.  0.
         12    1    3    3    0    0  0.97519964435E+01  0.39074650823E+01 -0.35290368000E+02  0.36820915138E+02  0.00000000000E+00 0. -1.
         11    1    4    4    0    0 -0.83288136362E+01  0.14367510764E+02  0.17273685816E+02  0.23961943245E+02  0.51100000000E-03 0. -1.
        -11    1    4    4    0    0 -0.52120898251E+01 -0.13210663746E+02  0.35832517604E+01  0.14646747434E+02  0.51100000000E-03 0.  1.
        -12    1    4    4    0    0  0.37889070178E+01 -0.50643120995E+01  0.14433430423E+02  0.15758394183E+02  0.00000000000E+00 0.  1.
</event>
<event>
 8    1  0.1240174E-006  0.9118800E+02  0.7816164E-02  0.1184000E+00
        -11   -1    0    0    0    0  0.00000000000E+00  0.00000000000E+00  0.45593999997E+02  0.45594000000E+02  0.51100000000E-03 0. -1.
         11   -1    0    0    0    0 -0.00000000000E+00 -0.00000000000E+00 -0.45593999997E+02  0.45594000000E+02  0.51100000000E-03 0.  1.
         23    2    1    2    0    0 -0.31086244690E-14  0.00000000000E+00  0.88817841970E-15  0.91188000000E+02  0.91188000000E+02 0.  0.
    9900012    2    3    3    0    0 -0.32767724794E+01 -0.36328777703E+02  0.50262214866E+01  0.54367078912E+02  0.39999987996E+02 0.  0.
         12    1    3    3    0    0  0.32767724794E+01  0.36328777703E+02 -0.50262214866E+01  0.36820921088E+02  0.00000000000E+00 0. -1.
         11    1    4    4    0    0  0.12556121651E+02 -0.15444485718E+02  0.23843490550E+01  0.20046781555E+02  0.51100000000E-03 0. -1.
        -11    1    4    4    0    0 -0.10138105708E+02 -0.23383161932E+02  0.73445472166E+01  0.26523495685E+02  0.51100000000E-03 0.  1.
         12    1    4    4    0    0 -0.56947884232E+01  0.24988699463E+01 -0.47026747850E+01  0.77968016729E+01  0.00000000000E+00 0. -1.
</event>
<event>
 8    1  0.1240174E-006  0.9118800E+02  0.7816164E-02  0.1184000E+00
        -11   -1    0    0    0    0  0.00000000000E+00  0.00000000000E+00  0.45593999997E+02  0.45594000000E+02  0.51100000000E-03 0. -1.
         11   -1    0    0    0    0 -0.00000000000E+00 -0.00000000000E+00 -0.45593999997E+02  0.45594000000E+02  0.51100000000E-03 0.  1.
         23    2    1    2    0    0  0.00000000000E+00  0.00000000000E+00  0.35527136788E-14  0.91188000000E+02  0.91188000000E+02 0.  0.
    9900012    2    3    3    0    0  0.29131557368E+02  0.77208809089E+01  0.21154666250E+02  0.54367088267E+02  0.40000009321E+02 0.  0.
        -12    1    3    3    0    0 -0.29131557368E+02 -0.77208809089E+01 -0.21154666250E+02  0.36820911733E+02  0.00000000000E+00 0.  1.
         11    1    4    4    0    0  0.32693851245E+02  0.32171098187E+01  0.19396248459E+01  0.32908963059E+02  0.51100000000E-03 0. -1.
        -11    1    4    4    0    0  0.67605224171E+00 -0.13061178938E+01  0.80092802364E+01  0.81431910669E+01  0.51100000000E-03 0.  1.
         12    1    4    4    0    0 -0.42383461180E+01  0.58098889839E+01  0.11205761168E+02  0.13314934141E+02  0.00000000000E+00 0. -1.
</event>
<event>
 8    1  0.1240174E-006  0.9118800E+02  0.7816164E-02  0.1184000E+00
        -11   -1    0    0    0    0  0.00000000000E+00  0.00000000000E+00  0.45593999997E+02  0.45594000000E+02  0.51100000000E-03 0. -1.
         11   -1    0    0    0    0 -0.00000000000E+00 -0.00000000000E+00 -0.45593999997E+02  0.45594000000E+02  0.51100000000E-03 0.  1.
         23    2    1    2    0    0  0.00000000000E+00  0.35527136788E-14  0.00000000000E+00  0.91188000000E+02  0.91188000000E+02 0.  0.
    9900012    2    3    3    0    0 -0.45440082897E+01 -0.20153220978E+02 -0.30479152804E+02  0.54367094487E+02  0.40000023501E+02 0.  0.
         12    1    3    3    0    0  0.45440082897E+01  0.20153220978E+02  0.30479152804E+02  0.36820905513E+02  0.00000000000E+00 0. -1.
         11    1    4    4    0    0 -0.14387442347E+02 -0.10203814211E+02 -0.20460586250E+01  0.17756764286E+02  0.51100000000E-03 0. -1.
        -11    1    4    4    0    0  0.47440334305E+01  0.42408193534E+01 -0.29807597586E+01  0.70267582125E+01  0.51100000000E-03 0.  1.
         12    1    4    4    0    0  0.50994006271E+01 -0.14190226121E+02 -0.25452334421E+02  0.29583571988E+02  0.00000000000E+00 0. -1.
</event>
<event>
 8    1  0.1240174E-006  0.9118800E+02  0.7816164E-02  0.1184000E+00
        -11   -1    0    0    0    0  0.00000000000E+00  0.00000000000E+00  0.45593999997E+02  0.45594000000E+02  0.51100000000E-03 0. -1.
         11   -1    0    0    0    0 -0.00000000000E+00 -0.00000000000E+00 -0.45593999997E+02  0.45594000000E+02  0.51100000000E-03 0.  1.
         23    2    1    2    0    0  0.00000000000E+00  0.35527136788E-14  0.00000000000E+00  0.91188000000E+02  0.91188000000E+02 0.  0.
    9900012    2    3    3    0    0  0.25753246955E+02 -0.24247581542E+02 -0.10227653662E+02  0.54367084221E+02  0.40000000099E+02 0.  0.
         12    1    3    3    0    0 -0.25753246955E+02  0.24247581542E+02  0.10227653662E+02  0.36820915779E+02  0.00000000000E+00 0. -1.
         11    1    4    4    0    0  0.13945939363E+01 -0.11042445236E+02  0.20528972449E+01  0.11317900707E+02  0.51100000000E-03 0. -1.
        -11    1    4    4    0    0 -0.66827930299E+01  0.13662818945E+01 -0.34259748793E+01  0.76330696990E+01  0.51100000000E-03 0.  1.
        -12    1    4    4    0    0  0.31041446049E+02 -0.14571418200E+02 -0.88545760277E+01  0.35416113816E+02  0.00000000000E+00 0.  1.
</event>
<event>
 8    1  0.1240174E-006  0.9118800E+02  0.7816164E-02  0.1184000E+00
        -11   -1    0    0    0    0  0.00000000000E+00  0.00000000000E+00  0.45593999997E+02  0.45594000000E+02  0.51100000000E-03 0. -1.
         11   -1    0    0    0    0 -0.00000000000E+00 -0.00000000000E+00 -0.45593999997E+02  0.45594000000E+02  0.51100000000E-03 0.  1.
         23    2    1    2    0    0 -0.26645352591E-14 -0.88817841970E-15  0.00000000000E+00  0.91188000000E+02  0.91188000000E+02 0.  0.
    9900012    2    3    3    0    0 -0.42421103709E+01 -0.47471722971E+01 -0.36266364339E+02  0.54367077584E+02  0.39999984967E+02 0.  0.
         12    1    3    3    0    0  0.42421103709E+01  0.47471722971E+01  0.36266364339E+02  0.36820922416E+02  0.00000000000E+00 0. -1.
         11    1    4    4    0    0  0.28660991041E+01 -0.67736105547E+01 -0.44974930356E+01  0.86211233541E+01  0.51100000000E-03 0. -1.
        -11    1    4    4    0    0  0.90545485567E+01  0.77506584834E+01 -0.30581716076E+01  0.12304875876E+02  0.51100000000E-03 0.  1.
         12    1    4    4    0    0 -0.16162758032E+02 -0.57242202258E+01 -0.28710699696E+02  0.33441078353E+02  0.00000000000E+00 0. -1.
</event>
<event>
 8    1  0.1240174E-006  0.9118800E+02  0.7816164E-02  0.1184000E+00
        -11   -1    0    0    0    0  0.00000000000E+00  0.00000000000E+00  0.45593999997E+02  0.45594000000E+02  0.51100000000E-03 0.  1.
         11   -1    0    0    0    0 -0.00000000000E+00 -0.00000000000E+00 -0.45593999997E+02  0.45594000000E+02  0.51100000000E-03 0. -1.
         23    2    1    2    0    0  0.00000000000E+00  0.00000000000E+00  0.00000000000E+00  0.91188000000E+02  0.91188000000E+02 0.  0.
    9900012    2    3    3    0    0 -0.25627866304E+02 -0.24304750485E+02  0.10405354700E+02  0.54367084288E+02  0.40000000252E+02 0.  0.
         12    1    3    3    0    0  0.25627866304E+02  0.24304750485E+02 -0.10405354700E+02  0.36820915712E+02  0.00000000000E+00 0. -1.
         11    1    4    4    0    0  0.57516372883E+01 -0.13348066629E+01 -0.30156875566E+01  0.66300386140E+01  0.51100000000E-03 0. -1.
        -11    1    4    4    0    0 -0.79287424532E+01 -0.19724032063E+02  0.17159596885E+01  0.21327140353E+02  0.51100000000E-03 0.  1.
        -12    1    4    4    0    0 -0.23450761139E+02 -0.32459117589E+01  0.11705082568E+02  0.26409905321E+02  0.00000000000E+00 0.  1.
</event>
<event>
 8    1  0.1240174E-006  0.9118800E+02  0.7816164E-02  0.1184000E+00
        -11   -1    0    0    0    0  0.00000000000E+00  0.00000000000E+00  0.45593999997E+02  0.45594000000E+02  0.51100000000E-03 0. -1.
         11   -1    0    0    0    0 -0.00000000000E+00 -0.00000000000E+00 -0.45593999997E+02  0.45594000000E+02  0.51100000000E-03 0.  1.
         23    2    1    2    0    0  0.71054273576E-14  0.26645352591E-14  0.00000000000E+00  0.91188000000E+02  0.91188000000E+02 0.  0.
    9900012    2    3    3    0    0 -0.33666251684E+02 -0.52226934079E+01 -0.13967443687E+02  0.54367047921E+02  0.39999917345E+02 0.  0.
        -12    1    3    3    0    0  0.33666251684E+02  0.52226934079E+01  0.13967443687E+02  0.36820952079E+02  0.00000000000E+00 0.  1.
         11    1    4    4    0    0 -0.11436078064E+02 -0.22908735865E+01 -0.70962098860E+01  0.13652405586E+02  0.51100000000E-03 0. -1.
        -11    1    4    4    0    0 -0.92082437434E+01  0.14880773099E+02 -0.64361761535E+01  0.18645469278E+02  0.51100000000E-03 0.  1.
         12    1    4    4    0    0 -0.13021929877E+02 -0.17812592920E+02 -0.43505764712E+00  0.22069173057E+02  0.00000000000E+00 0. -1.
</event>
<event>
 8    1  0.1240174E-006  0.9118800E+02  0.7816164E-02  0.1184000E+00
        -11   -1    0    0    0    0  0.00000000000E+00  0.00000000000E+00  0.45593999997E+02  0.45594000000E+02  0.51100000000E-03 0.  1.
         11   -1    0    0    0    0 -0.00000000000E+00 -0.00000000000E+00 -0.45593999997E+02  0.45594000000E+02  0.51100000000E-03 0. -1.
         23    2    1    2    0    0  0.00000000000E+00  0.88817841970E-15 -0.71054273576E-14  0.91188000000E+02  0.91188000000E+02 0.  0.
    9900012    2    3    3    0    0 -0.22481311636E+02  0.42737283937E+01  0.28846250590E+02  0.54367077954E+02  0.39999985811E+02 0.  0.
         12    1    3    3    0    0  0.22481311636E+02 -0.42737283937E+01 -0.28846250590E+02  0.36820922046E+02  0.00000000000E+00 0. -1.
         11    1    4    4    0    0 -0.45006006081E+01  0.67348997604E+01  0.11966852332E+01  0.81881827303E+01  0.51100000000E-03 0. -1.
        -11    1    4    4    0    0 -0.20800064679E+02 -0.44261583945E+01  0.32192667382E+01  0.21508074005E+02  0.51100000000E-03 0.  1.
        -12    1    4    4    0    0  0.28193536513E+01  0.19649870278E+01  0.24430298618E+02  0.24670821219E+02  0.00000000000E+00 0.  1.
</event>
<event>
 8    1  0.1240174E-006  0.9118800E+02  0.7816164E-02  0.1184000E+00
        -11   -1    0    0    0    0  0.00000000000E+00  0.00000000000E+00  0.45593999997E+02  0.45594000000E+02  0.51100000000E-03 0. -1.
         11   -1    0    0    0    0 -0.00000000000E+00 -0.00000000000E+00 -0.45593999997E+02  0.45594000000E+02  0.51100000000E-03 0.  1.
         23    2    1    2    0    0  0.00000000000E+00  0.88817841970E-15  0.71054273576E-14  0.91188000000E+02  0.91188000000E+02 0.  0.
    9900012    2    3    3    0    0  0.14818784566E+02  0.74911383965E+01  0.32864370943E+02  0.54367076492E+02  0.39999982480E+02 0.  0.
        -12    1    3    3    0    0 -0.14818784566E+02 -0.74911383965E+01 -0.32864370943E+02  0.36820923508E+02  0.00000000000E+00 0.  1.
         11    1    4    4    0    0  0.78264092298E+01  0.10604239187E+02  0.24872585529E+02  0.28148678145E+02  0.51100000000E-03 0. -1.
        -11    1    4    4    0    0  0.15030730194E+02 -0.63071713390E+01  0.47124507454E+01  0.16967924232E+02  0.51100000000E-03 0.  1.
        -12    1    4    4    0    0 -0.80383548575E+01  0.31940705489E+01  0.32793346686E+01  0.92504741152E+01  0.00000000000E+00 0.  1.
</event>
<event>
 8    1  0.1240174E-006  0.9118800E+02  0.7816164E-02  0.1184000E+00
        -11   -1    0    0    0    0  0.00000000000E+00  0.00000000000E+00  0.45593999997E+02  0.45594000000E+02  0.51100000000E-03 0.  1.
         11   -1    0    0    0    0 -0.00000000000E+00 -0.00000000000E+00 -0.45593999997E+02  0.45594000000E+02  0.51100000000E-03 0. -1.
         23    2    1    2    0    0  0.00000000000E+00  0.00000000000E+00 -0.35527136788E-14  0.91188000000E+02  0.91188000000E+02 0.  0.
    9900012    2    3    3    0    0  0.26082019135E+02  0.12092580651E+01  0.25962343888E+02  0.54367118324E+02  0.40000077842E+02 0.  0.
         12    1    3    3    0    0 -0.26082019135E+02 -0.12092580651E+01 -0.25962343888E+02  0.36820881676E+02  0.00000000000E+00 0. -1.
         11    1    4    4    0    0 -0.66664594093E+01  0.15613582913E+01 -0.53908364262E+01  0.87143926010E+01  0.51100000000E-03 0. -1.
        -11    1    4    4    0    0  0.10028510465E+02 -0.11216068838E+01  0.12867341888E+02  0.16352293774E+02  0.51100000000E-03 0.  1.
         12    1    4    4    0    0  0.22719968080E+02  0.76950665756E+00  0.18485838427E+02  0.29300431949E+02  0.00000000000E+00 0. -1.
</event>
<event>
 8    1  0.1240174E-006  0.9118800E+02  0.7816164E-02  0.1184000E+00
        -11   -1    0    0    0    0  0.00000000000E+00  0.00000000000E+00  0.45593999997E+02  0.45594000000E+02  0.51100000000E-03 0. -1.
         11   -1    0    0    0    0 -0.00000000000E+00 -0.00000000000E+00 -0.45593999997E+02  0.45594000000E+02  0.51100000000E-03 0.  1.
         23    2    1    2    0    0 -0.17763568394E-14 -0.35527136788E-14 -0.35527136788E-14  0.91188000000E+02  0.91188000000E+02 0.  0.
    9900012    2    3    3    0    0  0.10513924953E+02  0.30924292281E+02  0.16997810125E+02  0.54367081760E+02  0.39999994488E+02 0.  0.
        -12    1    3    3    0    0 -0.10513924953E+02 -0.30924292281E+02 -0.16997810125E+02  0.36820918240E+02  0.00000000000E+00 0.  1.
         11    1    4    4    0    0  0.24094510047E+01  0.17645071613E+02  0.67307502366E+01  0.19038303637E+02  0.51100000000E-03 0. -1.
        -11    1    4    4    0    0 -0.95960122854E+01  0.10371895633E+02 -0.96779048759E+00  0.14163201950E+02  0.51100000000E-03 0.  1.
         12    1    4    4    0    0  0.17700486233E+02  0.29073250356E+01  0.11234850376E+02  0.21165576173E+02  0.00000000000E+00 0. -1.
</event>
<event>
 8    1  0.1240174E-006  0.9118800E+02  0.7816164E-02  0.1184000E+00
        -11   -1    0    0    0    0  0.00000000000E+00  0.00000000000E+00  0.45593999997E+02  0.45594000000E+02  0.51100000000E-03 0. -1.
         11   -1    0    0    0    0 -0.00000000000E+00 -0.00000000000E+00 -0.45593999997E+02  0.45594000000E+02  0.51100000000E-03 0.  1.
         23    2    1    2    0    0  0.00000000000E+00  0.00000000000E+00  0.00000000000E+00  0.91188000000E+02  0.91188000000E+02 0.  0.
    9900012    2    3    3    0    0 -0.83812895041E+01 -0.83679356060E+01  0.34864160675E+02  0.54367108381E+02  0.40000055176E+02 0.  0.
        -12    1    3    3    0    0  0.83812895041E+01  0.83679356060E+01 -0.34864160675E+02  0.36820891619E+02  0.00000000000E+00 0.  1.
         11    1    4    4    0    0 -0.18134459563E+01 -0.12124610944E+02  0.16817921583E+02  0.20811950015E+02  0.51100000000E-03 0. -1.
        -11    1    4    4    0    0 -0.77659334685E+01 -0.69470423459E+00 -0.55130320931E+01  0.95491287420E+01  0.51100000000E-03 0.  1.
         12    1    4    4    0    0  0.11980899207E+01  0.44513795728E+01  0.23559271185E+02  0.24006029624E+02  0.00000000000E+00 0. -1.
</event>
<event>
 8    1  0.1240174E-006  0.9118800E+02  0.7816164E-02  0.1184000E+00
        -11   -1    0    0    0    0  0.00000000000E+00  0.00000000000E+00  0.45593999997E+02  0.45594000000E+02  0.51100000000E-03 0. -1.
         11   -1    0    0    0    0 -0.00000000000E+00 -0.00000000000E+00 -0.45593999997E+02  0.45594000000E+02  0.51100000000E-03 0.  1.
         23    2    1    2    0    0 -0.35527136788E-14 -0.66613381478E-15  0.35527136788E-14  0.91188000000E+02  0.91188000000E+02 0.  0.
    9900012    2    3    3    0    0  0.21510565722E+02  0.17982940446E+01 -0.29830176422E+02  0.54367112932E+02  0.40000065550E+02 0.  0.
         12    1    3    3    0    0 -0.21510565722E+02 -0.17982940446E+01  0.29830176422E+02  0.36820887068E+02  0.00000000000E+00 0. -1.
         11    1    4    4    0    0  0.28879777688E+01  0.24685861140E+01 -0.27863558773E+02  0.28121384047E+02  0.51100000000E-03 0.  1.
        -11    1    4    4    0    0  0.56974788535E+01 -0.75843718821E+01  0.41607753077E+01  0.10358378906E+02  0.51100000000E-03 0. -1.
        -12    1    4    4    0    0  0.12925109100E+02  0.69140798126E+01 -0.61273929567E+01  0.15887349978E+02  0.00000000000E+00 0.  1.
</event>
<event>
 8    1  0.1240174E-006  0.9118800E+02  0.7816164E-02  0.1184000E+00
        -11   -1    0    0    0    0  0.00000000000E+00  0.00000000000E+00  0.45593999997E+02  0.45594000000E+02  0.51100000000E-03 0.  1.
         11   -1    0    0    0    0 -0.00000000000E+00 -0.00000000000E+00 -0.45593999997E+02  0.45594000000E+02  0.51100000000E-03 0. -1.
         23    2    1    2    0    0 -0.26645352591E-14  0.00000000000E+00  0.44408920985E-15  0.91188000000E+02  0.91188000000E+02 0.  0.
    9900012    2    3    3    0    0 -0.27721447010E+01 -0.36577341176E+02 -0.31926400816E+01  0.54367087132E+02  0.40000006735E+02 0.  0.
        -12    1    3    3    0    0  0.27721447010E+01  0.36577341176E+02  0.31926400816E+01  0.36820912868E+02  0.00000000000E+00 0.  1.
         11    1    4    4    0    0 -0.84702341813E+01 -0.96638828255E+01  0.36687561089E+01  0.13363954130E+02  0.51100000000E-03 0. -1.
        -11    1    4    4    0    0  0.12832907100E+02 -0.23562445497E+01 -0.81746232326E+01  0.15396748302E+02  0.51100000000E-03 0.  1.
        -12    1    4    4    0    0 -0.71348176202E+01 -0.24557213801E+02  0.13132270421E+01  0.25606384700E+02  0.00000000000E+00 0.  1.
</event>
<event>
 8    1  0.1240174E-006  0.9118800E+02  0.7816164E-02  0.1184000E+00
        -11   -1    0    0    0    0  0.00000000000E+00  0.00000000000E+00  0.45593999997E+02  0.45594000000E+02  0.51100000000E-03 0. -1.
         11   -1    0    0    0    0 -0.00000000000E+00 -0.00000000000E+00 -0.45593999997E+02  0.45594000000E+02  0.51100000000E-03 0.  1.
         23    2    1    2    0    0 -0.13322676296E-14  0.00000000000E+00  0.00000000000E+00  0.91188000000E+02  0.91188000000E+02 0.  0.
    9900012    2    3    3    0    0  0.30310542471E+01  0.19049892929E+02 -0.31363992958E+02  0.54367003752E+02  0.39999816653E+02 0.  0.
         12    1    3    3    0    0 -0.30310542471E+01 -0.19049892929E+02  0.31363992958E+02  0.36820996248E+02  0.00000000000E+00 0. -1.
         11    1    4    4    0    0 -0.37489319853E+01  0.14205321723E+02 -0.90908135320E+01  0.17276821097E+02  0.51100000000E-03 0. -1.
        -11    1    4    4    0    0  0.12101566327E+02  0.11587710473E+02 -0.23015440251E+02  0.28468112544E+02  0.51100000000E-03 0.  1.
        -12    1    4    4    0    0 -0.53215800950E+01 -0.67431392665E+01  0.74226082545E+00  0.86220701115E+01  0.00000000000E+00 0.  1.
</event>
<event>
 8    1  0.1240174E-006  0.9118800E+02  0.7816164E-02  0.1184000E+00
        -11   -1    0    0    0    0  0.00000000000E+00  0.00000000000E+00  0.45593999997E+02  0.45594000000E+02  0.51100000000E-03 0.  1.
         11   -1    0    0    0    0 -0.00000000000E+00 -0.00000000000E+00 -0.45593999997E+02  0.45594000000E+02  0.51100000000E-03 0. -1.
         23    2    1    2    0    0 -0.48849813084E-14  0.00000000000E+00  0.00000000000E+00  0.91188000000E+02  0.91188000000E+02 0.  0.
    9900012    2    3    3    0    0  0.89346145244E+00  0.33036972568E+02 -0.16233929917E+02  0.54367077818E+02  0.39999985501E+02 0.  0.
        -12    1    3    3    0    0 -0.89346145244E+00 -0.33036972568E+02  0.16233929917E+02  0.36820922182E+02  0.00000000000E+00 0.  1.
         11    1    4    4    0    0  0.18523923267E+02  0.21248820414E+02 -0.86317710364E+01  0.29481444566E+02  0.51100000000E-03 0. -1.
        -11    1    4    4    0    0 -0.10390182551E+02  0.34562110182E+01  0.85023614666E+00  0.10982904435E+02  0.51100000000E-03 0.  1.
         12    1    4    4    0    0 -0.72402792628E+01  0.83319411351E+01 -0.84523950270E+01  0.13902728818E+02  0.00000000000E+00 0. -1.
</event>
<event>
 8    1  0.1240174E-006  0.9118800E+02  0.7816164E-02  0.1184000E+00
        -11   -1    0    0    0    0  0.00000000000E+00  0.00000000000E+00  0.45593999997E+02  0.45594000000E+02  0.51100000000E-03 0.  1.
         11   -1    0    0    0    0 -0.00000000000E+00 -0.00000000000E+00 -0.45593999997E+02  0.45594000000E+02  0.51100000000E-03 0. -1.
         23    2    1    2    0    0  0.00000000000E+00  0.35527136788E-14  0.00000000000E+00  0.91188000000E+02  0.91188000000E+02 0.  0.
    9900012    2    3    3    0    0  0.16261781646E+02 -0.26284805300E+02  0.20011080369E+02  0.54367083805E+02  0.39999999149E+02 0.  0.
         12    1    3    3    0    0 -0.16261781646E+02  0.26284805300E+02 -0.20011080369E+02  0.36820916195E+02  0.00000000000E+00 0. -1.
         11    1    4    4    0    0  0.64083202850E+01 -0.72898379738E+00  0.41970846093E+01  0.76950312365E+01  0.51100000000E-03 0. -1.
        -11    1    4    4    0    0  0.77346889732E+01 -0.11422629452E+01  0.20305277314E+02  0.21758549244E+02  0.51100000000E-03 0.  1.
        -12    1    4    4    0    0  0.21187723875E+01 -0.24413558557E+02 -0.44912815549E+01  0.24913503324E+02  0.00000000000E+00 0.  1.
</event>
<event>
 8    1  0.1240174E-006  0.9118800E+02  0.7816164E-02  0.1184000E+00
        -11   -1    0    0    0    0  0.00000000000E+00  0.00000000000E+00  0.45593999997E+02  0.45594000000E+02  0.51100000000E-03 0.  1.
         11   -1    0    0    0    0 -0.00000000000E+00 -0.00000000000E+00 -0.45593999997E+02  0.45594000000E+02  0.51100000000E-03 0. -1.
         23    2    1    2    0    0  0.00000000000E+00  0.00000000000E+00 -0.35527136788E-14  0.91188000000E+02  0.91188000000E+02 0.  0.
    9900012    2    3    3    0    0 -0.52736145017E+01  0.18994083564E+02 -0.31099739709E+02  0.54367081620E+02  0.39999994169E+02 0.  0.
        -12    1    3    3    0    0  0.52736145017E+01 -0.18994083564E+02  0.31099739709E+02  0.36820918380E+02  0.00000000000E+00 0.  1.
         11    1    4    4    0    0 -0.32005176782E+01  0.16216220451E+02 -0.14985727656E+01  0.16596832220E+02  0.51100000000E-03 0.  1.
        -11    1    4    4    0    0 -0.38879781486E+01  0.89778315866E+01 -0.27639852797E+01  0.10166486560E+02  0.51100000000E-03 0. -1.
         12    1    4    4    0    0  0.18148813251E+01 -0.61999684738E+01 -0.26837181664E+02  0.27603762841E+02  0.00000000000E+00 0. -1.
</event>
<event>
 8    1  0.1240174E-006  0.9118800E+02  0.7816164E-02  0.1184000E+00
        -11   -1    0    0    0    0  0.00000000000E+00  0.00000000000E+00  0.45593999997E+02  0.45594000000E+02  0.51100000000E-03 0.  1.
         11   -1    0    0    0    0 -0.00000000000E+00 -0.00000000000E+00 -0.45593999997E+02  0.45594000000E+02  0.51100000000E-03 0. -1.
         23    2    1    2    0    0  0.00000000000E+00 -0.88817841970E-15  0.00000000000E+00  0.91188000000E+02  0.91188000000E+02 0.  0.
    9900012    2    3    3    0    0  0.35567465817E+02 -0.62277046306E+01  0.72076680842E+01  0.54367090060E+02  0.40000013410E+02 0.  0.
        -12    1    3    3    0    0 -0.35567465817E+02  0.62277046306E+01 -0.72076680842E+01  0.36820909940E+02  0.00000000000E+00 0.  1.
         11    1    4    4    0    0  0.90350343843E+00 -0.62951888785E+01 -0.76284710723E+01  0.99317316034E+01  0.51100000000E-03 0. -1.
        -11    1    4    4    0    0  0.18790709288E+02 -0.10888577927E+02  0.33149440556E+01  0.21969085988E+02  0.51100000000E-03 0.  1.
        -12    1    4    4    0    0  0.15873253091E+02  0.10956062175E+02  0.11521195101E+02  0.22466272468E+02  0.00000000000E+00 0.  1.
</event>
<event>
 8    1  0.1240174E-006  0.9118800E+02  0.7816164E-02  0.1184000E+00
        -11   -1    0    0    0    0  0.00000000000E+00  0.00000000000E+00  0.45593999997E+02  0.45594000000E+02  0.51100000000E-03 0. -1.
         11   -1    0    0    0    0 -0.00000000000E+00 -0.00000000000E+00 -0.45593999997E+02  0.45594000000E+02  0.51100000000E-03 0.  1.
         23    2    1    2    0    0  0.00000000000E+00  0.00000000000E+00  0.00000000000E+00  0.91188000000E+02  0.91188000000E+02 0.  0.
    9900012    2    3    3    0    0 -0.10258716540E+02 -0.31376947136E+02  0.16310303365E+02  0.54367081048E+02  0.39999992865E+02 0.  0.
        -12    1    3    3    0    0  0.10258716540E+02  0.31376947136E+02 -0.16310303365E+02  0.36820918952E+02  0.00000000000E+00 0.  1.
         11    1    4    4    0    0 -0.74776277365E+01  0.67519949068E+01  0.76203480293E+00  0.10103714618E+02  0.51100000000E-03 0.  1.
        -11    1    4    4    0    0 -0.52294093042E+00 -0.30979904203E+02  0.50964132712E+01  0.31400658594E+02  0.51100000000E-03 0. -1.
         12    1    4    4    0    0 -0.22581478727E+01 -0.71490378401E+01  0.10451855291E+02  0.12862707836E+02  0.00000000000E+00 0. -1.
</event>
<event>
 8    1  0.1240174E-006  0.9118800E+02  0.7816164E-02  0.1184000E+00
        -11   -1    0    0    0    0  0.00000000000E+00  0.00000000000E+00  0.45593999997E+02  0.45594000000E+02  0.51100000000E-03 0.  1.
         11   -1    0    0    0    0 -0.00000000000E+00 -0.00000000000E+00 -0.45593999997E+02  0.45594000000E+02  0.51100000000E-03 0. -1.
         23    2    1    2    0    0  0.11102230246E-15  0.35527136788E-14 -0.71054273576E-14  0.91188000000E+02  0.91188000000E+02 0.  0.
    9900012    2    3    3    0    0 -0.63001672212E+00  0.18526930171E+02 -0.31814068261E+02  0.54367095585E+02  0.40000026005E+02 0.  0.
        -12    1    3    3    0    0  0.63001672212E+00 -0.18526930171E+02  0.31814068261E+02  0.36820904415E+02  0.00000000000E+00 0.  1.
         11    1    4    4    0    0  0.60562414826E+01  0.29262358332E+02 -0.18619238976E+02  0.35208517951E+02  0.51100000000E-03 0. -1.
        -11    1    4    4    0    0 -0.67900031773E+01 -0.95417847421E+01 -0.13549366914E+02  0.17909079911E+02  0.51100000000E-03 0.  1.
        -12    1    4    4    0    0  0.10374497255E+00 -0.11936434182E+01  0.35453762886E+00  0.12494977229E+01  0.00000000000E+00 0.  1.
</event>
<event>
 8    1  0.1240174E-006  0.9118800E+02  0.7816164E-02  0.1184000E+00
        -11   -1    0    0    0    0  0.00000000000E+00  0.00000000000E+00  0.45593999997E+02  0.45594000000E+02  0.51100000000E-03 0. -1.
         11   -1    0    0    0    0 -0.00000000000E+00 -0.00000000000E+00 -0.45593999997E+02  0.45594000000E+02  0.51100000000E-03 0.  1.
         23    2    1    2    0    0  0.00000000000E+00  0.35527136788E-14  0.53290705182E-14  0.91188000000E+02  0.91188000000E+02 0.  0.
    9900012    2    3    3    0    0 -0.33745839346E+02  0.74363642783E+01  0.12716081186E+02  0.54367083288E+02  0.39999997971E+02 0.  0.
         12    1    3    3    0    0  0.33745839346E+02 -0.74363642783E+01 -0.12716081186E+02  0.36820916712E+02  0.00000000000E+00 0. -1.
         11    1    4    4    0    0 -0.21279297511E+02 -0.68027901658E+01 -0.43708096468E+01  0.22763796560E+02  0.51100000000E-03 0.  1.
        -11    1    4    4    0    0 -0.15433962524E+02  0.16374490414E+02  0.12509888916E+02  0.25745455064E+02  0.51100000000E-03 0. -1.
         12    1    4    4    0    0  0.29674206893E+01 -0.21353359696E+01  0.45770019166E+01  0.58578316633E+01  0.00000000000E+00 0. -1.
</event>
<event>
 8    1  0.1240174E-006  0.9118800E+02  0.7816164E-02  0.1184000E+00
        -11   -1    0    0    0    0  0.00000000000E+00  0.00000000000E+00  0.45593999997E+02  0.45594000000E+02  0.51100000000E-03 0. -1.
         11   -1    0    0    0    0 -0.00000000000E+00 -0.00000000000E+00 -0.45593999997E+02  0.45594000000E+02  0.51100000000E-03 0.  1.
         23    2    1    2    0    0  0.00000000000E+00  0.00000000000E+00  0.35527136788E-14  0.91188000000E+02  0.91188000000E+02 0.  0.
    9900012    2    3    3    0    0 -0.11119872974E+02  0.20899371088E+02  0.28201856412E+02  0.54367082142E+02  0.39999995359E+02 0.  0.
        -12    1    3    3    0    0  0.11119872974E+02 -0.20899371088E+02 -0.28201856412E+02  0.36820917858E+02  0.00000000000E+00 0.  1.
         11    1    4    4    0    0 -0.55399439784E+01  0.15630711498E+02  0.57695727618E+01  0.17558419386E+02  0.51100000000E-03 0. -1.
        -11    1    4    4    0    0  0.46722182472E+00 -0.11583894952E+01  0.26892068496E+02  0.26921060728E+02  0.51100000000E-03 0.  1.
        -12    1    4    4    0    0 -0.60471508207E+01  0.64270490844E+01 -0.44597848463E+01  0.98876020276E+01  0.00000000000E+00 0.  1.
</event>
<event>
 8    1  0.1240174E-006  0.9118800E+02  0.7816164E-02  0.1184000E+00
        -11   -1    0    0    0    0  0.00000000000E+00  0.00000000000E+00  0.45593999997E+02  0.45594000000E+02  0.51100000000E-03 0.  1.
         11   -1    0    0    0    0 -0.00000000000E+00 -0.00000000000E+00 -0.45593999997E+02  0.45594000000E+02  0.51100000000E-03 0. -1.
         23    2    1    2    0    0 -0.35527136788E-14  0.00000000000E+00  0.00000000000E+00  0.91188000000E+02  0.91188000000E+02 0.  0.
    9900012    2    3    3    0    0  0.11313252687E+02  0.32995847063E+02 -0.11792570937E+02  0.54367077427E+02  0.39999984611E+02 0.  0.
        -12    1    3    3    0    0 -0.11313252687E+02 -0.32995847063E+02  0.11792570937E+02  0.36820922573E+02  0.00000000000E+00 0.  1.
         11    1    4    4    0    0  0.78985060039E+00  0.16242011290E+02 -0.94462014599E+01  0.18805784137E+02  0.51100000000E-03 0.  1.
        -11    1    4    4    0    0 -0.95988330259E+01  0.19667800640E+01 -0.38905111654E+01  0.10542385720E+02  0.51100000000E-03 0. -1.
        -12    1    4    4    0    0  0.20122235112E+02  0.14787055709E+02  0.15441416884E+01  0.25018907571E+02  0.00000000000E+00 0.  1.
</event>
<event>
 8    1  0.1240174E-006  0.9118800E+02  0.7816164E-02  0.1184000E+00
        -11   -1    0    0    0    0  0.00000000000E+00  0.00000000000E+00  0.45593999997E+02  0.45594000000E+02  0.51100000000E-03 0. -1.
         11   -1    0    0    0    0 -0.00000000000E+00 -0.00000000000E+00 -0.45593999997E+02  0.45594000000E+02  0.51100000000E-03 0.  1.
         23    2    1    2    0    0  0.16653345369E-15  0.00000000000E+00  0.35527136788E-14  0.91188000000E+02  0.91188000000E+02 0.  0.
    9900012    2    3    3    0    0  0.41354542383E+00 -0.22626969398E+02 -0.29045298704E+02  0.54367080121E+02  0.39999990752E+02 0.  0.
         12    1    3    3    0    0 -0.41354542383E+00  0.22626969398E+02  0.29045298704E+02  0.36820919879E+02  0.00000000000E+00 0. -1.
         11    1    4    4    0    0  0.64386123374E+01 -0.79935098022E+01 -0.13178912233E+02  0.16704360380E+02  0.51100000000E-03 0. -1.
        -11    1    4    4    0    0  0.75098172519E+00 -0.14515502622E+02 -0.23389104654E+02  0.27537501824E+02  0.51100000000E-03 0.  1.
         12    1    4    4    0    0 -0.67760486388E+01 -0.11795697368E+00  0.75227181837E+01  0.10125217917E+02  0.00000000000E+00 0. -1.
</event>
<event>
 8    1  0.1240174E-006  0.9118800E+02  0.7816164E-02  0.1184000E+00
        -11   -1    0    0    0    0  0.00000000000E+00  0.00000000000E+00  0.45593999997E+02  0.45594000000E+02  0.51100000000E-03 0.  1.
         11   -1    0    0    0    0 -0.00000000000E+00 -0.00000000000E+00 -0.45593999997E+02  0.45594000000E+02  0.51100000000E-03 0. -1.
         23    2    1    2    0    0  0.00000000000E+00 -0.35527136788E-14  0.00000000000E+00  0.91188000000E+02  0.91188000000E+02 0.  0.
    9900012    2    3    3    0    0  0.18415582219E+02 -0.20995294268E+02  0.23996745003E+02  0.54367084468E+02  0.40000000661E+02 0.  0.
         12    1    3    3    0    0 -0.18415582219E+02  0.20995294268E+02 -0.23996745003E+02  0.36820915532E+02  0.00000000000E+00 0. -1.
         11    1    4    4    0    0  0.92273439654E+01 -0.41375115438E+01  0.13465843443E+02  0.16840184628E+02  0.51100000000E-03 0.  1.
        -11    1    4    4    0    0  0.95836697616E+01  0.11547631073E+01  0.16010335527E+02  0.18695214572E+02  0.51100000000E-03 0. -1.
         12    1    4    4    0    0 -0.39543150816E+00 -0.18012545832E+02 -0.54794339667E+01  0.18831685268E+02  0.00000000000E+00 0. -1.
</event>
<event>
 8    1  0.1240174E-006  0.9118800E+02  0.7816164E-02  0.1184000E+00
        -11   -1    0    0    0    0  0.00000000000E+00  0.00000000000E+00  0.45593999997E+02  0.45594000000E+02  0.51100000000E-03 0.  1.
         11   -1    0    0    0    0 -0.00000000000E+00 -0.00000000000E+00 -0.45593999997E+02  0.45594000000E+02  0.51100000000E-03 0. -1.
         23    2    1    2    0    0  0.00000000000E+00 -0.35527136788E-14  0.00000000000E+00  0.91188000000E+02  0.91188000000E+02 0.  0.
    9900012    2    3    3    0    0 -0.28936118440E+02  0.22769060773E+02  0.22705746152E+00  0.54367073424E+02  0.39999975484E+02 0.  0.
        -12    1    3    3    0    0  0.28936118440E+02 -0.22769060773E+02 -0.22705746152E+00  0.36820926576E+02  0.00000000000E+00 0.  1.
         11    1    4    4    0    0 -0.25793801540E+02  0.19395777942E+02 -0.10719323417E+02  0.34006180242E+02  0.51100000000E-03 0. -1.
        -11    1    4    4    0    0 -0.87863485893E+01 -0.22880982800E+01  0.68820416666E+01  0.11392884316E+02  0.51100000000E-03 0.  1.
        -12    1    4    4    0    0  0.56440316892E+01  0.56613811111E+01  0.40643392120E+01  0.89680088662E+01  0.00000000000E+00 0.  1.
</event>
<event>
 8    1  0.1240174E-006  0.9118800E+02  0.7816164E-02  0.1184000E+00
        -11   -1    0    0    0    0  0.00000000000E+00  0.00000000000E+00  0.45593999997E+02  0.45594000000E+02  0.51100000000E-03 0. -1.
         11   -1    0    0    0    0 -0.00000000000E+00 -0.00000000000E+00 -0.45593999997E+02  0.45594000000E+02  0.51100000000E-03 0.  1.
         23    2    1    2    0    0  0.00000000000E+00 -0.88817841970E-15 -0.71054273576E-14  0.91188000000E+02  0.91188000000E+02 0.  0.
    9900012    2    3    3    0    0 -0.16398745896E+02 -0.46168292887E+01  0.32642705591E+02  0.54367079209E+02  0.39999988673E+02 0.  0.
        -12    1    3    3    0    0  0.16398745896E+02  0.46168292887E+01 -0.32642705591E+02  0.36820920791E+02  0.00000000000E+00 0.  1.
         11    1    4    4    0    0 -0.12596681136E+02  0.85374740735E+01  0.18435976237E+02  0.23905021633E+02  0.51100000000E-03 0. -1.
        -11    1    4    4    0    0 -0.11078630118E+02 -0.65332019163E+00  0.11042093939E+02  0.15655373243E+02  0.51100000000E-03 0.  1.
         12    1    4    4    0    0  0.72765653579E+01 -0.12500983171E+02  0.31646354150E+01  0.14806684333E+02  0.00000000000E+00 0. -1.
</event>
<event>
 8    1  0.1240174E-006  0.9118800E+02  0.7816164E-02  0.1184000E+00
        -11   -1    0    0    0    0  0.00000000000E+00  0.00000000000E+00  0.45593999997E+02  0.45594000000E+02  0.51100000000E-03 0.  1.
         11   -1    0    0    0    0 -0.00000000000E+00 -0.00000000000E+00 -0.45593999997E+02  0.45594000000E+02  0.51100000000E-03 0. -1.
         23    2    1    2    0    0  0.35527136788E-14  0.00000000000E+00  0.35527136788E-14  0.91188000000E+02  0.91188000000E+02 0.  0.
    9900012    2    3    3    0    0  0.14562101845E+02  0.21289687254E+02  0.26276869358E+02  0.54367089408E+02  0.40000011924E+02 0.  0.
         12    1    3    3    0    0 -0.14562101845E+02 -0.21289687254E+02 -0.26276869358E+02  0.36820910592E+02  0.00000000000E+00 0. -1.
         11    1    4    4    0    0  0.89969098631E+01  0.42942530803E+01  0.60910051989E+01  0.11682694090E+02  0.51100000000E-03 0.  1.
        -11    1    4    4    0    0 -0.11436082670E+02  0.63341091933E+01 -0.14755089726E+01  0.13156065259E+02  0.51100000000E-03 0. -1.
         12    1    4    4    0    0  0.17001274652E+02  0.10661324981E+02  0.21661373132E+02  0.29528330059E+02  0.00000000000E+00 0. -1.
</event>
<event>
 8    1  0.1240174E-006  0.9118800E+02  0.7816164E-02  0.1184000E+00
        -11   -1    0    0    0    0  0.00000000000E+00  0.00000000000E+00  0.45593999997E+02  0.45594000000E+02  0.51100000000E-03 0.  1.
         11   -1    0    0    0    0 -0.00000000000E+00 -0.00000000000E+00 -0.45593999997E+02  0.45594000000E+02  0.51100000000E-03 0. -1.
         23    2    1    2    0    0  0.22204460493E-15  0.00000000000E+00  0.00000000000E+00  0.91188000000E+02  0.91188000000E+02 0.  0.
    9900012    2    3    3    0    0  0.97018153420E+00 -0.12804794498E+02 -0.34509070165E+02  0.54367082874E+02  0.39999997028E+02 0.  0.
        -12    1    3    3    0    0 -0.97018153420E+00  0.12804794498E+02  0.34509070165E+02  0.36820917126E+02  0.00000000000E+00 0.  1.
         11    1    4    4    0    0  0.72204692671E+01 -0.18063145410E+02 -0.16414767467E+02  0.25453034982E+02  0.51100000000E-03 0. -1.
        -11    1    4    4    0    0 -0.18944784096E+01  0.12996268231E+02 -0.13799065436E+02  0.19050098256E+02  0.51100000000E-03 0.  1.
         12    1    4    4    0    0 -0.43558093234E+01 -0.77379173190E+01 -0.42952372617E+01  0.98639496365E+01  0.00000000000E+00 0. -1.
</event>
<event>
 8    1  0.1240174E-006  0.9118800E+02  0.7816164E-02  0.1184000E+00
        -11   -1    0    0    0    0  0.00000000000E+00  0.00000000000E+00  0.45593999997E+02  0.45594000000E+02  0.51100000000E-03 0.  1.
         11   -1    0    0    0    0 -0.00000000000E+00 -0.00000000000E+00 -0.45593999997E+02  0.45594000000E+02  0.51100000000E-03 0. -1.
         23    2    1    2    0    0  0.00000000000E+00  0.00000000000E+00  0.00000000000E+00  0.91188000000E+02  0.91188000000E+02 0.  0.
    9900012    2    3    3    0    0  0.34649415914E+02 -0.12030834126E+02 -0.32336232435E+01  0.54367091372E+02  0.40000016401E+02 0.  0.
         12    1    3    3    0    0 -0.34649415914E+02  0.12030834126E+02  0.32336232435E+01  0.36820908628E+02  0.00000000000E+00 0. -1.
         11    1    4    4    0    0 -0.62904865707E+01 -0.14432625590E+01 -0.42217838193E+01  0.77121130041E+01  0.51100000000E-03 0. -1.
        -11    1    4    4    0    0  0.27680359215E+01 -0.26680040620E+01 -0.59240334871E+01  0.70621839083E+01  0.51100000000E-03 0.  1.
        -12    1    4    4    0    0  0.38171866563E+02 -0.79195675048E+01  0.69121940630E+01  0.39592794459E+02  0.00000000000E+00 0.  1.
</event>
<event>
 8    1  0.1240174E-006  0.9118800E+02  0.7816164E-02  0.1184000E+00
        -11   -1    0    0    0    0  0.00000000000E+00  0.00000000000E+00  0.45593999997E+02  0.45594000000E+02  0.51100000000E-03 0. -1.
         11   -1    0    0    0    0 -0.00000000000E+00 -0.00000000000E+00 -0.45593999997E+02  0.45594000000E+02  0.51100000000E-03 0.  1.
         23    2    1    2    0    0  0.00000000000E+00  0.00000000000E+00 -0.35527136788E-14  0.91188000000E+02  0.91188000000E+02 0.  0.
    9900012    2    3    3    0    0  0.22492316641E+02  0.50205009038E+01  0.28717052233E+02  0.54367097972E+02  0.40000031448E+02 0.  0.
        -12    1    3    3    0    0 -0.22492316641E+02 -0.50205009038E+01 -0.28717052233E+02  0.36820902028E+02  0.00000000000E+00 0.  1.
         11    1    4    4    0    0  0.19255075452E+02  0.37324282332E+01  0.16268495277E+02  0.25482403537E+02  0.51100000000E-03 0. -1.
        -11    1    4    4    0    0 -0.51263385366E+01  0.23379402706E+01 -0.62253774937E+01  0.83964657268E+01  0.51100000000E-03 0.  1.
         12    1    4    4    0    0  0.83635797253E+01 -0.10498676000E+01  0.18673934449E+02  0.20488228708E+02  0.00000000000E+00 0. -1.
</event>
<event>
 8    1  0.1240174E-006  0.9118800E+02  0.7816164E-02  0.1184000E+00
        -11   -1    0    0    0    0  0.00000000000E+00  0.00000000000E+00  0.45593999997E+02  0.45594000000E+02  0.51100000000E-03 0.  1.
         11   -1    0    0    0    0 -0.00000000000E+00 -0.00000000000E+00 -0.45593999997E+02  0.45594000000E+02  0.51100000000E-03 0. -1.
         23    2    1    2    0    0  0.00000000000E+00  0.00000000000E+00 -0.35527136788E-14  0.91188000000E+02  0.91188000000E+02 0.  0.
    9900012    2    3    3    0    0 -0.17813468162E+02  0.82061913500E+01 -0.31162838202E+02  0.54367031664E+02  0.39999880283E+02 0.  0.
        -12    1    3    3    0    0  0.17813468162E+02 -0.82061913500E+01  0.31162838202E+02  0.36820968336E+02  0.00000000000E+00 0.  1.
         11    1    4    4    0    0  0.24729465599E+01  0.73704614928E+01 -0.96417377949E+01  0.12385567216E+02  0.51100000000E-03 0.  1.
        -11    1    4    4    0    0 -0.20284518900E+02  0.14829054847E+01 -0.28477682065E+02  0.34994843787E+02  0.51100000000E-03 0. -1.
        -12    1    4    4    0    0 -0.18958222623E-02 -0.64717562749E+00  0.69565816575E+01  0.69866206598E+01  0.00000000000E+00 0.  1.
</event>
<event>
 8    1  0.1240174E-006  0.9118800E+02  0.7816164E-02  0.1184000E+00
        -11   -1    0    0    0    0  0.00000000000E+00  0.00000000000E+00  0.45593999997E+02  0.45594000000E+02  0.51100000000E-03 0. -1.
         11   -1    0    0    0    0 -0.00000000000E+00 -0.00000000000E+00 -0.45593999997E+02  0.45594000000E+02  0.51100000000E-03 0.  1.
         23    2    1    2    0    0 -0.44408920985E-15  0.00000000000E+00  0.00000000000E+00  0.91188000000E+02  0.91188000000E+02 0.  0.
    9900012    2    3    3    0    0  0.37401881741E+01  0.35695764794E+02  0.82220771439E+01  0.54367093108E+02  0.40000020358E+02 0.  0.
        -12    1    3    3    0    0 -0.37401881741E+01 -0.35695764794E+02 -0.82220771439E+01  0.36820906892E+02  0.00000000000E+00 0.  1.
         11    1    4    4    0    0 -0.22159054652E+01  0.13802846552E+02  0.13530767584E+02  0.19455345837E+02  0.51100000000E-03 0. -1.
        -11    1    4    4    0    0  0.44660696658E+00  0.26029090470E+02  0.28975130708E+00  0.26034534076E+02  0.51100000000E-03 0.  1.
        -12    1    4    4    0    0  0.55094866728E+01 -0.41361722279E+01 -0.55984417475E+01  0.88772131943E+01  0.00000000000E+00 0.  1.
</event>
<event>
 8    1  0.1240174E-006  0.9118800E+02  0.7816164E-02  0.1184000E+00
        -11   -1    0    0    0    0  0.00000000000E+00  0.00000000000E+00  0.45593999997E+02  0.45594000000E+02  0.51100000000E-03 0. -1.
         11   -1    0    0    0    0 -0.00000000000E+00 -0.00000000000E+00 -0.45593999997E+02  0.45594000000E+02  0.51100000000E-03 0.  1.
         23    2    1    2    0    0 -0.11102230246E-14  0.00000000000E+00  0.71054273576E-14  0.91188000000E+02  0.91188000000E+02 0.  0.
    9900012    2    3    3    0    0  0.25111449473E+00  0.18051489914E+02 -0.32091360020E+02  0.54367153533E+02  0.40000158109E+02 0.  0.
         12    1    3    3    0    0 -0.25111449473E+00 -0.18051489914E+02  0.32091360020E+02  0.36820846467E+02  0.00000000000E+00 0. -1.
         11    1    4    4    0    0  0.44650706644E+00 -0.60181735045E+01 -0.15453603081E+01  0.62294397528E+01  0.51100000000E-03 0. -1.
        -11    1    4    4    0    0 -0.12367061506E+02  0.19860682706E+02 -0.14354784599E+02  0.27449057707E+02  0.51100000000E-03 0.  1.
         12    1    4    4    0    0  0.12171668934E+02  0.42089807123E+01 -0.16191215113E+02  0.20688656073E+02  0.00000000000E+00 0. -1.
</event>
<event>
 8    1  0.1240174E-006  0.9118800E+02  0.7816164E-02  0.1184000E+00
        -11   -1    0    0    0    0  0.00000000000E+00  0.00000000000E+00  0.45593999997E+02  0.45594000000E+02  0.51100000000E-03 0. -1.
         11   -1    0    0    0    0 -0.00000000000E+00 -0.00000000000E+00 -0.45593999997E+02  0.45594000000E+02  0.51100000000E-03 0.  1.
         23    2    1    2    0    0  0.13322676296E-14 -0.17763568394E-14 -0.71054273576E-14  0.91188000000E+02  0.91188000000E+02 0.  0.
    9900012    2    3    3    0    0  0.32028031533E+01 -0.10816922373E+02 -0.35050244047E+02  0.54367036332E+02  0.39999890927E+02 0.  0.
         12    1    3    3    0    0 -0.32028031533E+01  0.10816922373E+02  0.35050244047E+02  0.36820963668E+02  0.00000000000E+00 0. -1.
         11    1    4    4    0    0  0.16804546989E+02 -0.73011333787E+01 -0.52768156670E+01  0.19066833297E+02  0.51100000000E-03 0. -1.
        -11    1    4    4    0    0 -0.33178669944E+01 -0.33516362334E+01 -0.21750593275E+02  0.22256010759E+02  0.51100000000E-03 0.  1.
         12    1    4    4    0    0 -0.10283876842E+02 -0.16415276125E+00 -0.80228351046E+01  0.13044192276E+02  0.00000000000E+00 0. -1.
</event>
<event>
 8    1  0.1240174E-006  0.9118800E+02  0.7816164E-02  0.1184000E+00
        -11   -1    0    0    0    0  0.00000000000E+00  0.00000000000E+00  0.45593999997E+02  0.45594000000E+02  0.51100000000E-03 0. -1.
         11   -1    0    0    0    0 -0.00000000000E+00 -0.00000000000E+00 -0.45593999997E+02  0.45594000000E+02  0.51100000000E-03 0.  1.
         23    2    1    2    0    0  0.00000000000E+00  0.66613381478E-15  0.00000000000E+00  0.91188000000E+02  0.91188000000E+02 0.  0.
    9900012    2    3    3    0    0 -0.31372209382E+02 -0.12895171149E+01 -0.19232833764E+02  0.54367078359E+02  0.39999986736E+02 0.  0.
        -12    1    3    3    0    0  0.31372209382E+02  0.12895171149E+01  0.19232833764E+02  0.36820921641E+02  0.00000000000E+00 0.  1.
         11    1    4    4    0    0  0.27528147403E+01  0.51259436965E+01  0.45187144607E+00  0.58358783262E+01  0.51100000000E-03 0. -1.
        -11    1    4    4    0    0 -0.55201305284E+01  0.39865160096E-01 -0.18365608475E+02  0.19177304430E+02  0.51100000000E-03 0.  1.
         12    1    4    4    0    0 -0.28604893594E+02 -0.64553259715E+01 -0.13190967354E+01  0.29353895603E+02  0.00000000000E+00 0. -1.
</event>
<event>
 8    1  0.1240174E-006  0.9118800E+02  0.7816164E-02  0.1184000E+00
        -11   -1    0    0    0    0  0.00000000000E+00  0.00000000000E+00  0.45593999997E+02  0.45594000000E+02  0.51100000000E-03 0. -1.
         11   -1    0    0    0    0 -0.00000000000E+00 -0.00000000000E+00 -0.45593999997E+02  0.45594000000E+02  0.51100000000E-03 0.  1.
         23    2    1    2    0    0  0.00000000000E+00  0.00000000000E+00 -0.17763568394E-14  0.91188000000E+02  0.91188000000E+02 0.  0.
    9900012    2    3    3    0    0  0.25356139149E+02 -0.22577659676E+02 -0.14251129517E+02  0.54367092876E+02  0.40000019829E+02 0.  0.
         12    1    3    3    0    0 -0.25356139149E+02  0.22577659676E+02  0.14251129517E+02  0.36820907124E+02  0.00000000000E+00 0. -1.
         11    1    4    4    0    0 -0.41730276526E+00 -0.20374325131E+02 -0.18933085841E+02  0.27816344222E+02  0.51100000000E-03 0. -1.
        -11    1    4    4    0    0  0.11357573351E+01  0.52051948729E+00 -0.25746549348E+00  0.12756073073E+01  0.51100000000E-03 0.  1.
         12    1    4    4    0    0  0.24637684579E+02 -0.27238540315E+01  0.49394218174E+01  0.25275141347E+02  0.00000000000E+00 0. -1.
</event>
<event>
 8    1  0.1240174E-006  0.9118800E+02  0.7816164E-02  0.1184000E+00
        -11   -1    0    0    0    0  0.00000000000E+00  0.00000000000E+00  0.45593999997E+02  0.45594000000E+02  0.51100000000E-03 0.  1.
         11   -1    0    0    0    0 -0.00000000000E+00 -0.00000000000E+00 -0.45593999997E+02  0.45594000000E+02  0.51100000000E-03 0. -1.
         23    2    1    2    0    0 -0.35527136788E-14 -0.35527136788E-14  0.00000000000E+00  0.91188000000E+02  0.91188000000E+02 0.  0.
    9900012    2    3    3    0    0  0.17165238551E+02  0.31809657466E+02  0.70200056926E+01  0.54367079282E+02  0.39999988838E+02 0.  0.
        -12    1    3    3    0    0 -0.17165238551E+02 -0.31809657466E+02 -0.70200056926E+01  0.36820920718E+02  0.00000000000E+00 0.  1.
         11    1    4    4    0    0  0.44576263221E+01  0.27380136005E+02  0.11505559309E+02  0.30031985870E+02  0.51100000000E-03 0. -1.
        -11    1    4    4    0    0  0.24321688224E-01  0.75443905505E+01  0.42151346612E+01  0.86420935424E+01  0.51100000000E-03 0.  1.
        -12    1    4    4    0    0  0.12683290541E+02 -0.31148690891E+01 -0.87006882771E+01  0.15692999869E+02  0.00000000000E+00 0.  1.
</event>
<event>
 8    1  0.1240174E-006  0.9118800E+02  0.7816164E-02  0.1184000E+00
        -11   -1    0    0    0    0  0.00000000000E+00  0.00000000000E+00  0.45593999997E+02  0.45594000000E+02  0.51100000000E-03 0.  1.
         11   -1    0    0    0    0 -0.00000000000E+00 -0.00000000000E+00 -0.45593999997E+02  0.45594000000E+02  0.51100000000E-03 0. -1.
         23    2    1    2    0    0  0.17763568394E-14  0.00000000000E+00  0.00000000000E+00  0.91188000000E+02  0.91188000000E+02 0.  0.
    9900012    2    3    3    0    0 -0.63522239220E+01  0.18584746627E+01  0.36221211406E+02  0.54367070727E+02  0.39999969337E+02 0.  0.
         12    1    3    3    0    0  0.63522239220E+01 -0.18584746627E+01 -0.36221211406E+02  0.36820929273E+02  0.00000000000E+00 0. -1.
         11    1    4    4    0    0 -0.12213971539E+01  0.18445190173E+01 -0.42636410993E+01  0.48034047401E+01  0.51100000000E-03 0. -1.
        -11    1    4    4    0    0 -0.16252973876E+02  0.59514791961E+00  0.16756321481E+02  0.23351395477E+02  0.51100000000E-03 0.  1.
         12    1    4    4    0    0  0.11122147108E+02 -0.58119227422E+00  0.23728531023E+02  0.26212270510E+02  0.00000000000E+00 0. -1.
</event>
<event>
 8    1  0.1240174E-006  0.9118800E+02  0.7816164E-02  0.1184000E+00
        -11   -1    0    0    0    0  0.00000000000E+00  0.00000000000E+00  0.45593999997E+02  0.45594000000E+02  0.51100000000E-03 0.  1.
         11   -1    0    0    0    0 -0.00000000000E+00 -0.00000000000E+00 -0.45593999997E+02  0.45594000000E+02  0.51100000000E-03 0. -1.
         23    2    1    2    0    0  0.88817841970E-15  0.00000000000E+00  0.00000000000E+00  0.91188000000E+02  0.91188000000E+02 0.  0.
    9900012    2    3    3    0    0 -0.45297317680E+00 -0.59630532836E+01  0.36332053871E+02  0.54367064004E+02  0.39999954010E+02 0.  0.
         12    1    3    3    0    0  0.45297317680E+00  0.59630532836E+01 -0.36332053871E+02  0.36820935996E+02  0.00000000000E+00 0. -1.
         11    1    4    4    0    0  0.35408522536E+01  0.13945091924E+02  0.41478403928E+01  0.14973570170E+02  0.51100000000E-03 0. -1.
        -11    1    4    4    0    0  0.44108768655E+00 -0.86729320484E+00  0.90607945575E+01  0.91128894498E+01  0.51100000000E-03 0.  1.
         12    1    4    4    0    0 -0.44349131169E+01 -0.19040852002E+02  0.23123418920E+02  0.30280604385E+02  0.00000000000E+00 0. -1.
</event>
<event>
 8    1  0.1240174E-006  0.9118800E+02  0.7816164E-02  0.1184000E+00
        -11   -1    0    0    0    0  0.00000000000E+00  0.00000000000E+00  0.45593999997E+02  0.45594000000E+02  0.51100000000E-03 0.  1.
         11   -1    0    0    0    0 -0.00000000000E+00 -0.00000000000E+00 -0.45593999997E+02  0.45594000000E+02  0.51100000000E-03 0. -1.
         23    2    1    2    0    0  0.00000000000E+00  0.88817841970E-15  0.88817841970E-15  0.91188000000E+02  0.91188000000E+02 0.  0.
    9900012    2    3    3    0    0 -0.35542722939E+02  0.78478526300E+01 -0.55592511936E+01  0.54367092643E+02  0.40000019297E+02 0.  0.
         12    1    3    3    0    0  0.35542722939E+02 -0.78478526300E+01  0.55592511936E+01  0.36820907357E+02  0.00000000000E+00 0. -1.
         11    1    4    4    0    0 -0.19365291460E+02 -0.77722031661E+01  0.18383631507E+01  0.20947583028E+02  0.51100000000E-03 0. -1.
        -11    1    4    4    0    0  0.46000047265E+01 -0.22418333337E+01 -0.35729912810E+00  0.51296708576E+01  0.51100000000E-03 0.  1.
         12    1    4    4    0    0 -0.20777436205E+02  0.17861889130E+02 -0.70403152163E+01  0.28289838757E+02  0.00000000000E+00 0. -1.
</event>
<event>
 8    1  0.1240174E-006  0.9118800E+02  0.7816164E-02  0.1184000E+00
        -11   -1    0    0    0    0  0.00000000000E+00  0.00000000000E+00  0.45593999997E+02  0.45594000000E+02  0.51100000000E-03 0. -1.
         11   -1    0    0    0    0 -0.00000000000E+00 -0.00000000000E+00 -0.45593999997E+02  0.45594000000E+02  0.51100000000E-03 0.  1.
         23    2    1    2    0    0  0.35527136788E-14 -0.35527136788E-14  0.35527136788E-14  0.91188000000E+02  0.91188000000E+02 0.  0.
    9900012    2    3    3    0    0 -0.28776807886E+02  0.20302602151E+02 -0.10746140716E+02  0.54367083844E+02  0.39999999240E+02 0.  0.
        -12    1    3    3    0    0  0.28776807886E+02 -0.20302602151E+02  0.10746140716E+02  0.36820916156E+02  0.00000000000E+00 0.  1.
         11    1    4    4    0    0 -0.94194140799E+01  0.34725295134E+01  0.17004722423E+01  0.10182113186E+02  0.51100000000E-03 0. -1.
        -11    1    4    4    0    0 -0.20142153399E+02  0.71494411187E+00 -0.18099696943E+02  0.27089047941E+02  0.51100000000E-03 0.  1.
         12    1    4    4    0    0  0.78475959259E+00  0.16115128526E+02  0.56530839846E+01  0.17095922718E+02  0.00000000000E+00 0. -1.
</event>
<event>
 8    1  0.1240174E-006  0.9118800E+02  0.7816164E-02  0.1184000E+00
        -11   -1    0    0    0    0  0.00000000000E+00  0.00000000000E+00  0.45593999997E+02  0.45594000000E+02  0.51100000000E-03 0. -1.
         11   -1    0    0    0    0 -0.00000000000E+00 -0.00000000000E+00 -0.45593999997E+02  0.45594000000E+02  0.51100000000E-03 0.  1.
         23    2    1    2    0    0  0.00000000000E+00  0.17763568394E-14 -0.35527136788E-14  0.91188000000E+02  0.91188000000E+02 0.  0.
    9900012    2    3    3    0    0 -0.28051416611E+02 -0.74262448424E+01  0.22666029820E+02  0.54367082112E+02  0.39999995290E+02 0.  0.
        -12    1    3    3    0    0  0.28051416611E+02  0.74262448424E+01 -0.22666029820E+02  0.36820917888E+02  0.00000000000E+00 0.  1.
         11    1    4    4    0    0 -0.96792041969E+01  0.12754562847E+02  0.86678573055E+01  0.18207076038E+02  0.51100000000E-03 0. -1.
        -11    1    4    4    0    0  0.15737441294E+01 -0.64844530597E+01 -0.22192719592E+01  0.70320672891E+01  0.51100000000E-03 0.  1.
         12    1    4    4    0    0 -0.19945956543E+02 -0.13696354630E+02  0.16217444474E+02  0.29127938785E+02  0.00000000000E+00 0. -1.
</event>
<event>
 8    1  0.1240174E-006  0.9118800E+02  0.7816164E-02  0.1184000E+00
        -11   -1    0    0    0    0  0.00000000000E+00  0.00000000000E+00  0.45593999997E+02  0.45594000000E+02  0.51100000000E-03 0.  1.
         11   -1    0    0    0    0 -0.00000000000E+00 -0.00000000000E+00 -0.45593999997E+02  0.45594000000E+02  0.51100000000E-03 0. -1.
         23    2    1    2    0    0  0.44408920985E-15  0.00000000000E+00  0.35527136788E-14  0.91188000000E+02  0.91188000000E+02 0.  0.
    9900012    2    3    3    0    0 -0.25544134516E+01 -0.32223029232E+02 -0.17633011227E+02  0.54367194388E+02  0.40000251246E+02 0.  0.
        -12    1    3    3    0    0  0.25544134516E+01  0.32223029232E+02  0.17633011227E+02  0.36820805612E+02  0.00000000000E+00 0.  1.
         11    1    4    4    0    0 -0.71787555348E+01 -0.46578751007E+00 -0.83898497140E+00  0.72426089965E+01  0.51100000000E-03 0. -1.
        -11    1    4    4    0    0  0.81255083291E+01 -0.99367802982E+01 -0.21015452556E+02  0.24625448924E+02  0.51100000000E-03 0.  1.
         12    1    4    4    0    0 -0.35011662460E+01 -0.21820461423E+02  0.42214262998E+01  0.22499136468E+02  0.00000000000E+00 0. -1.
</event>
<event>
 8    1  0.1240174E-006  0.9118800E+02  0.7816164E-02  0.1184000E+00
        -11   -1    0    0    0    0  0.00000000000E+00  0.00000000000E+00  0.45593999997E+02  0.45594000000E+02  0.51100000000E-03 0.  1.
         11   -1    0    0    0    0 -0.00000000000E+00 -0.00000000000E+00 -0.45593999997E+02  0.45594000000E+02  0.51100000000E-03 0. -1.
         23    2    1    2    0    0  0.17763568394E-14  0.00000000000E+00  0.00000000000E+00  0.91188000000E+02  0.91188000000E+02 0.  0.
    9900012    2    3    3    0    0  0.11808216430E+02 -0.29172056452E+02  0.19113894969E+02  0.54367029972E+02  0.39999876428E+02 0.  0.
         12    1    3    3    0    0 -0.11808216430E+02  0.29172056452E+02 -0.19113894969E+02  0.36820970028E+02  0.00000000000E+00 0. -1.
         11    1    4    4    0    0  0.52778747570E+01  0.19073379763E+01 -0.83110941362E+00  0.56731510842E+01  0.51100000000E-03 0. -1.
        -11    1    4    4    0    0 -0.34677278234E+01 -0.13571383915E+02 -0.64981769785E+01  0.15441305059E+02  0.51100000000E-03 0.  1.
        -12    1    4    4    0    0  0.99980694964E+01 -0.17508010514E+02  0.26443181361E+02  0.33252573829E+02  0.00000000000E+00 0.  1.
</event>
<event>
 8    1  0.1240174E-006  0.9118800E+02  0.7816164E-02  0.1184000E+00
        -11   -1    0    0    0    0  0.00000000000E+00  0.00000000000E+00  0.45593999997E+02  0.45594000000E+02  0.51100000000E-03 0.  1.
         11   -1    0    0    0    0 -0.00000000000E+00 -0.00000000000E+00 -0.45593999997E+02  0.45594000000E+02  0.51100000000E-03 0. -1.
         23    2    1    2    0    0  0.00000000000E+00 -0.11102230246E-14  0.00000000000E+00  0.91188000000E+02  0.91188000000E+02 0.  0.
    9900012    2    3    3    0    0 -0.18596547462E+02  0.13465933390E+01 -0.31751129046E+02  0.54367094432E+02  0.40000023377E+02 0.  0.
        -12    1    3    3    0    0  0.18596547462E+02 -0.13465933390E+01  0.31751129046E+02  0.36820905568E+02  0.00000000000E+00 0.  1.
         11    1    4    4    0    0  0.15623516518E+01 -0.21807025808E+01 -0.21038240779E+02  0.21208582739E+02  0.51100000000E-03 0. -1.
        -11    1    4    4    0    0 -0.15678363192E+02  0.90272082391E+01 -0.16125903604E+02  0.24235229074E+02  0.51100000000E-03 0.  1.
        -12    1    4    4    0    0 -0.44805359216E+01 -0.54999123193E+01  0.54130153369E+01  0.89232826192E+01  0.00000000000E+00 0.  1.
</event>
<event>
 8    1  0.1240174E-006  0.9118800E+02  0.7816164E-02  0.1184000E+00
        -11   -1    0    0    0    0  0.00000000000E+00  0.00000000000E+00  0.45593999997E+02  0.45594000000E+02  0.51100000000E-03 0. -1.
         11   -1    0    0    0    0 -0.00000000000E+00 -0.00000000000E+00 -0.45593999997E+02  0.45594000000E+02  0.51100000000E-03 0.  1.
         23    2    1    2    0    0  0.11102230246E-14  0.00000000000E+00  0.00000000000E+00  0.91188000000E+02  0.91188000000E+02 0.  0.
    9900012    2    3    3    0    0 -0.85534804803E+00  0.34152998510E+02  0.13733931397E+02  0.54367084760E+02  0.40000001327E+02 0.  0.
        -12    1    3    3    0    0  0.85534804803E+00 -0.34152998510E+02 -0.13733931397E+02  0.36820915240E+02  0.00000000000E+00 0.  1.
         11    1    4    4    0    0 -0.11035001965E+02  0.20032790451E+01  0.75294282347E+01  0.13508393136E+02  0.51100000000E-03 0. -1.
        -11    1    4    4    0    0 -0.30946533242E+01  0.10683116404E+02 -0.62023745548E+01  0.12734806856E+02  0.51100000000E-03 0.  1.
         12    1    4    4    0    0  0.13274307242E+02  0.21466603061E+02  0.12406877717E+02  0.28123884768E+02  0.00000000000E+00 0. -1.
</event>
<event>
 8    1  0.1240174E-006  0.9118800E+02  0.7816164E-02  0.1184000E+00
        -11   -1    0    0    0    0  0.00000000000E+00  0.00000000000E+00  0.45593999997E+02  0.45594000000E+02  0.51100000000E-03 0.  1.
         11   -1    0    0    0    0 -0.00000000000E+00 -0.00000000000E+00 -0.45593999997E+02  0.45594000000E+02  0.51100000000E-03 0. -1.
         23    2    1    2    0    0 -0.44408920985E-15 -0.35527136788E-14 -0.35527136788E-14  0.91188000000E+02  0.91188000000E+02 0.  0.
    9900012    2    3    3    0    0 -0.30884296687E+01 -0.21310585985E+02 -0.29868045894E+02  0.54367086943E+02  0.40000006303E+02 0.  0.
        -12    1    3    3    0    0  0.30884296687E+01  0.21310585985E+02  0.29868045894E+02  0.36820913057E+02  0.00000000000E+00 0.  1.
         11    1    4    4    0    0 -0.49921273101E+01 -0.13740842557E+02 -0.18378726278E+02  0.23484242997E+02  0.51100000000E-03 0. -1.
        -11    1    4    4    0    0  0.14159698837E+02 -0.82444556344E+01 -0.68948450412E+01  0.17776585956E+02  0.51100000000E-03 0.  1.
         12    1    4    4    0    0 -0.12256001196E+02  0.67471220680E+00 -0.45944745750E+01  0.13106257989E+02  0.00000000000E+00 0. -1.
</event>
<event>
 8    1  0.1240174E-006  0.9118800E+02  0.7816164E-02  0.1184000E+00
        -11   -1    0    0    0    0  0.00000000000E+00  0.00000000000E+00  0.45593999997E+02  0.45594000000E+02  0.51100000000E-03 0.  1.
         11   -1    0    0    0    0 -0.00000000000E+00 -0.00000000000E+00 -0.45593999997E+02  0.45594000000E+02  0.51100000000E-03 0. -1.
         23    2    1    2    0    0  0.00000000000E+00  0.71054273576E-14  0.00000000000E+00  0.91188000000E+02  0.91188000000E+02 0.  0.
    9900012    2    3    3    0    0  0.26258580612E+02  0.18474205926E+02  0.18026864552E+02  0.54367120245E+02  0.40000082223E+02 0.  0.
         12    1    3    3    0    0 -0.26258580612E+02 -0.18474205926E+02 -0.18026864552E+02  0.36820879755E+02  0.00000000000E+00 0. -1.
         11    1    4    4    0    0  0.25003447562E+02  0.24406522236E+02  0.50458939836E+01  0.35303140993E+02  0.51100000000E-03 0. -1.
        -11    1    4    4    0    0  0.22268160863E+01  0.32916287336E+01  0.13707183682E+01  0.42038552197E+01  0.51100000000E-03 0.  1.
         12    1    4    4    0    0 -0.97168303666E+00 -0.92239450438E+01  0.11610252200E+02  0.14860124032E+02  0.00000000000E+00 0. -1.
</event>
<event>
 8    1  0.1240174E-006  0.9118800E+02  0.7816164E-02  0.1184000E+00
        -11   -1    0    0    0    0  0.00000000000E+00  0.00000000000E+00  0.45593999997E+02  0.45594000000E+02  0.51100000000E-03 0. -1.
         11   -1    0    0    0    0 -0.00000000000E+00 -0.00000000000E+00 -0.45593999997E+02  0.45594000000E+02  0.51100000000E-03 0.  1.
         23    2    1    2    0    0  0.88817841970E-15  0.00000000000E+00  0.00000000000E+00  0.91188000000E+02  0.91188000000E+02 0.  0.
    9900012    2    3    3    0    0 -0.51094004944E+01 -0.66041537577E+01 -0.35861674602E+02  0.54367074896E+02  0.39999978840E+02 0.  0.
         12    1    3    3    0    0  0.51094004944E+01  0.66041537577E+01  0.35861674602E+02  0.36820925104E+02  0.00000000000E+00 0. -1.
         11    1    4    4    0    0  0.27257478397E+01  0.43218934999E+01  0.42682903372E+00  0.51274406866E+01  0.51100000000E-03 0. -1.
        -11    1    4    4    0    0  0.84505936203E+01 -0.13838499180E+02 -0.22315126124E+02  0.27584079580E+02  0.51100000000E-03 0.  1.
        -12    1    4    4    0    0 -0.16285741954E+02  0.29124519220E+01 -0.13973377512E+02  0.21655554629E+02  0.00000000000E+00 0.  1.
</event>
<event>
 8    1  0.1240174E-006  0.9118800E+02  0.7816164E-02  0.1184000E+00
        -11   -1    0    0    0    0  0.00000000000E+00  0.00000000000E+00  0.45593999997E+02  0.45594000000E+02  0.51100000000E-03 0.  1.
         11   -1    0    0    0    0 -0.00000000000E+00 -0.00000000000E+00 -0.45593999997E+02  0.45594000000E+02  0.51100000000E-03 0. -1.
         23    2    1    2    0    0  0.00000000000E+00  0.00000000000E+00  0.00000000000E+00  0.91188000000E+02  0.91188000000E+02 0.  0.
    9900012    2    3    3    0    0  0.28854965301E+02 -0.17239038502E+02 -0.15032809568E+02  0.54367097859E+02  0.40000031188E+02 0.  0.
        -12    1    3    3    0    0 -0.28854965301E+02  0.17239038502E+02  0.15032809568E+02  0.36820902141E+02  0.00000000000E+00 0.  1.
         11    1    4    4    0    0  0.15298312128E+02 -0.28811451018E+01 -0.24437936546E+01  0.15757902105E+02  0.51100000000E-03 0. -1.
        -11    1    4    4    0    0  0.63548301312E+01  0.87361796678E+01 -0.91850724266E+01  0.14179924433E+02  0.51100000000E-03 0.  1.
        -12    1    4    4    0    0  0.72018230417E+01 -0.23094073068E+02 -0.34039434872E+01  0.24429271320E+02  0.00000000000E+00 0.  1.
</event>
<event>
 8    1  0.1240174E-006  0.9118800E+02  0.7816164E-02  0.1184000E+00
        -11   -1    0    0    0    0  0.00000000000E+00  0.00000000000E+00  0.45593999997E+02  0.45594000000E+02  0.51100000000E-03 0.  1.
         11   -1    0    0    0    0 -0.00000000000E+00 -0.00000000000E+00 -0.45593999997E+02  0.45594000000E+02  0.51100000000E-03 0. -1.
         23    2    1    2    0    0  0.00000000000E+00  0.00000000000E+00  0.00000000000E+00  0.91188000000E+02  0.91188000000E+02 0.  0.
    9900012    2    3    3    0    0  0.14746915387E+02  0.33406013564E+02  0.47272406179E+01  0.54367081224E+02  0.39999993266E+02 0.  0.
        -12    1    3    3    0    0 -0.14746915387E+02 -0.33406013564E+02 -0.47272406179E+01  0.36820918776E+02  0.00000000000E+00 0.  1.
         11    1    4    4    0    0 -0.80509137007E+01  0.47334929285E+01  0.73212150920E+01  0.11866901761E+02  0.51100000000E-03 0. -1.
        -11    1    4    4    0    0 -0.30366095024E+01  0.12054642222E+01 -0.34918563920E+01  0.47819663931E+01  0.51100000000E-03 0.  1.
         12    1    4    4    0    0  0.25834438590E+02  0.27467056413E+02  0.89788191788E+00  0.37718213070E+02  0.00000000000E+00 0. -1.
</event>
<event>
 8    1  0.1240174E-006  0.9118800E+02  0.7816164E-02  0.1184000E+00
        -11   -1    0    0    0    0  0.00000000000E+00  0.00000000000E+00  0.45593999997E+02  0.45594000000E+02  0.51100000000E-03 0. -1.
         11   -1    0    0    0    0 -0.00000000000E+00 -0.00000000000E+00 -0.45593999997E+02  0.45594000000E+02  0.51100000000E-03 0.  1.
         23    2    1    2    0    0  0.00000000000E+00  0.00000000000E+00 -0.35527136788E-14  0.91188000000E+02  0.91188000000E+02 0.  0.
    9900012    2    3    3    0    0  0.58748683461E+01  0.25539630066E+02 -0.25864945697E+02  0.54367052186E+02  0.39999927069E+02 0.  0.
         12    1    3    3    0    0 -0.58748683461E+01 -0.25539630066E+02  0.25864945697E+02  0.36820947814E+02  0.00000000000E+00 0. -1.
         11    1    4    4    0    0  0.26873374086E+01  0.13721201141E+02  0.29715560456E+01  0.14294169744E+02  0.51100000000E-03 0. -1.
        -11    1    4    4    0    0 -0.10596956812E+02  0.85928057096E+01 -0.15021856167E+02  0.20292559390E+02  0.51100000000E-03 0.  1.
         12    1    4    4    0    0  0.13784487750E+02  0.32256232159E+01 -0.13814645576E+02  0.19780323052E+02  0.00000000000E+00 0. -1.
</event>
<event>
 8    1  0.1240174E-006  0.9118800E+02  0.7816164E-02  0.1184000E+00
        -11   -1    0    0    0    0  0.00000000000E+00  0.00000000000E+00  0.45593999997E+02  0.45594000000E+02  0.51100000000E-03 0.  1.
         11   -1    0    0    0    0 -0.00000000000E+00 -0.00000000000E+00 -0.45593999997E+02  0.45594000000E+02  0.51100000000E-03 0. -1.
         23    2    1    2    0    0  0.00000000000E+00  0.00000000000E+00  0.00000000000E+00  0.91188000000E+02  0.91188000000E+02 0.  0.
    9900012    2    3    3    0    0 -0.16141665840E+02 -0.22202142787E+02  0.24541636080E+02  0.54367076303E+02  0.39999982049E+02 0.  0.
         12    1    3    3    0    0  0.16141665840E+02  0.22202142787E+02 -0.24541636080E+02  0.36820923697E+02  0.00000000000E+00 0. -1.
         11    1    4    4    0    0 -0.12165683380E+02 -0.39392372226E+01  0.13635869784E+02  0.18693806114E+02  0.51100000000E-03 0. -1.
        -11    1    4    4    0    0 -0.60859248767E+01 -0.19202544101E+02  0.18735535250E+02  0.27509933895E+02  0.51100000000E-03 0.  1.
         12    1    4    4    0    0  0.21099424163E+01  0.93963853707E+00 -0.78297689541E+01  0.81633362944E+01  0.00000000000E+00 0. -1.
</event>
<event>
 8    1  0.1240174E-006  0.9118800E+02  0.7816164E-02  0.1184000E+00
        -11   -1    0    0    0    0  0.00000000000E+00  0.00000000000E+00  0.45593999997E+02  0.45594000000E+02  0.51100000000E-03 0. -1.
         11   -1    0    0    0    0 -0.00000000000E+00 -0.00000000000E+00 -0.45593999997E+02  0.45594000000E+02  0.51100000000E-03 0.  1.
         23    2    1    2    0    0  0.44408920985E-15  0.35527136788E-14 -0.35527136788E-14  0.91188000000E+02  0.91188000000E+02 0.  0.
    9900012    2    3    3    0    0  0.35236250668E+01  0.29694465597E+02 -0.21484955834E+02  0.54367074592E+02  0.39999978148E+02 0.  0.
         12    1    3    3    0    0 -0.35236250668E+01 -0.29694465597E+02  0.21484955834E+02  0.36820925408E+02  0.00000000000E+00 0. -1.
         11    1    4    4    0    0 -0.39993101650E+01 -0.10582623182E+01  0.92121162833E+00  0.42382817339E+01  0.51100000000E-03 0. -1.
        -11    1    4    4    0    0  0.69402292866E+01  0.30782445613E+02 -0.29389246093E+02  0.43121381316E+02  0.51100000000E-03 0.  1.
        -12    1    4    4    0    0  0.58270594517E+00 -0.29717697775E-01  0.69830786303E+01  0.70074115419E+01  0.00000000000E+00 0.  1.
</event>
<event>
 8    1  0.1240174E-006  0.9118800E+02  0.7816164E-02  0.1184000E+00
        -11   -1    0    0    0    0  0.00000000000E+00  0.00000000000E+00  0.45593999997E+02  0.45594000000E+02  0.51100000000E-03 0. -1.
         11   -1    0    0    0    0 -0.00000000000E+00 -0.00000000000E+00 -0.45593999997E+02  0.45594000000E+02  0.51100000000E-03 0.  1.
         23    2    1    2    0    0  0.35527136788E-14  0.00000000000E+00  0.00000000000E+00  0.91188000000E+02  0.91188000000E+02 0.  0.
    9900012    2    3    3    0    0  0.28790784596E+02 -0.15939676422E+02  0.16516590550E+02  0.54367077613E+02  0.39999985033E+02 0.  0.
        -12    1    3    3    0    0 -0.28790784596E+02  0.15939676422E+02 -0.16516590550E+02  0.36820922387E+02  0.00000000000E+00 0.  1.
         11    1    4    4    0    0  0.15548002189E+02  0.79171839438E+01  0.51462509010E+01  0.18190823848E+02  0.51100000000E-03 0. -1.
        -11    1    4    4    0    0  0.37757660740E+01 -0.18094888792E+02 -0.22451206561E+01  0.18620471983E+02  0.51100000000E-03 0.  1.
         12    1    4    4    0    0  0.94670163330E+01 -0.57619715739E+01  0.13615460305E+02  0.17555781782E+02  0.00000000000E+00 0. -1.
</event>
<event>
 8    1  0.1240174E-006  0.9118800E+02  0.7816164E-02  0.1184000E+00
        -11   -1    0    0    0    0  0.00000000000E+00  0.00000000000E+00  0.45593999997E+02  0.45594000000E+02  0.51100000000E-03 0. -1.
         11   -1    0    0    0    0 -0.00000000000E+00 -0.00000000000E+00 -0.45593999997E+02  0.45594000000E+02  0.51100000000E-03 0.  1.
         23    2    1    2    0    0 -0.22204460493E-15  0.00000000000E+00  0.00000000000E+00  0.91188000000E+02  0.91188000000E+02 0.  0.
    9900012    2    3    3    0    0  0.10614755778E+01  0.17319351339E+02 -0.32476038503E+02  0.54367085589E+02  0.40000003216E+02 0.  0.
         12    1    3    3    0    0 -0.10614755778E+01 -0.17319351339E+02  0.32476038503E+02  0.36820914411E+02  0.00000000000E+00 0. -1.
         11    1    4    4    0    0  0.34561256018E+00  0.55258766230E+01  0.45047688420E+01  0.71377659723E+01  0.51100000000E-03 0. -1.
        -11    1    4    4    0    0 -0.98921013587E+00  0.16045821974E+02 -0.39029425396E+02  0.42210697537E+02  0.51100000000E-03 0.  1.
         12    1    4    4    0    0  0.17050731535E+01 -0.42523472579E+01  0.20486180508E+01  0.50186220797E+01  0.00000000000E+00 0. -1.
</event>
<event>
 8    1  0.1240174E-006  0.9118800E+02  0.7816164E-02  0.1184000E+00
        -11   -1    0    0    0    0  0.00000000000E+00  0.00000000000E+00  0.45593999997E+02  0.45594000000E+02  0.51100000000E-03 0.  1.
         11   -1    0    0    0    0 -0.00000000000E+00 -0.00000000000E+00 -0.45593999997E+02  0.45594000000E+02  0.51100000000E-03 0. -1.
         23    2    1    2    0    0  0.88817841970E-15  0.88817841970E-15  0.00000000000E+00  0.91188000000E+02  0.91188000000E+02 0.  0.
    9900012    2    3    3    0    0  0.42104711498E+01 -0.64776644640E+00  0.36573773301E+02  0.54366965765E+02  0.39999730054E+02 0.  0.
         12    1    3    3    0    0 -0.42104711498E+01  0.64776644640E+00 -0.36573773301E+02  0.36821034235E+02  0.00000000000E+00 0. -1.
         11    1    4    4    0    0 -0.73365254190E+01  0.56104792622E+01  0.12111900482E+02  0.15231553313E+02  0.51100000000E-03 0. -1.
        -11    1    4    4    0    0  0.18515052185E+02 -0.11124477984E+02  0.14378944870E+02  0.25948318320E+02  0.51100000000E-03 0.  1.
        -12    1    4    4    0    0 -0.69680556157E+01  0.48662322758E+01  0.10082927949E+02  0.13187094132E+02  0.00000000000E+00 0.  1.
</event>
<event>
 8    1  0.1240174E-006  0.9118800E+02  0.7816164E-02  0.1184000E+00
        -11   -1    0    0    0    0  0.00000000000E+00  0.00000000000E+00  0.45593999997E+02  0.45594000000E+02  0.51100000000E-03 0. -1.
         11   -1    0    0    0    0 -0.00000000000E+00 -0.00000000000E+00 -0.45593999997E+02  0.45594000000E+02  0.51100000000E-03 0.  1.
         23    2    1    2    0    0  0.00000000000E+00  0.00000000000E+00  0.00000000000E+00  0.91188000000E+02  0.91188000000E+02 0.  0.
    9900012    2    3    3    0    0 -0.99546859896E+01 -0.21650528943E+02 -0.28070277787E+02  0.54367059332E+02  0.39999943359E+02 0.  0.
         12    1    3    3    0    0  0.99546859896E+01  0.21650528943E+02  0.28070277787E+02  0.36820940668E+02  0.00000000000E+00 0. -1.
         11    1    4    4    0    0 -0.13795494370E+01 -0.13040190512E+02 -0.82189279064E+01  0.15475803741E+02  0.51100000000E-03 0. -1.
        -11    1    4    4    0    0 -0.71347443483E+01 -0.20333822673E+02 -0.11503245253E+02  0.24427312030E+02  0.51100000000E-03 0.  1.
         12    1    4    4    0    0 -0.14403922043E+01  0.11723484242E+02 -0.83481046275E+01  0.14463943561E+02  0.00000000000E+00 0. -1.
</event>
<event>
 8    1  0.1240174E-006  0.9118800E+02  0.7816164E-02  0.1184000E+00
        -11   -1    0    0    0    0  0.00000000000E+00  0.00000000000E+00  0.45593999997E+02  0.45594000000E+02  0.51100000000E-03 0.  1.
         11   -1    0    0    0    0 -0.00000000000E+00 -0.00000000000E+00 -0.45593999997E+02  0.45594000000E+02  0.51100000000E-03 0. -1.
         23    2    1    2    0    0  0.00000000000E+00  0.00000000000E+00  0.35527136788E-14  0.91188000000E+02  0.91188000000E+02 0.  0.
    9900012    2    3    3    0    0 -0.14095183316E+02  0.13647380393E+02  0.31158523011E+02  0.54367099134E+02  0.40000034096E+02 0.  0.
         12    1    3    3    0    0  0.14095183316E+02 -0.13647380393E+02 -0.31158523011E+02  0.36820900866E+02  0.00000000000E+00 0. -1.
         11    1    4    4    0    0 -0.11532459485E+02  0.83574737450E-01 -0.56021516896E+01  0.12821416081E+02  0.51100000000E-03 0. -1.
        -11    1    4    4    0    0 -0.39063362899E+01  0.15285398189E+02  0.35871809623E+02  0.39187875509E+02  0.51100000000E-03 0.  1.
         12    1    4    4    0    0  0.13436124584E+01 -0.17215925334E+01  0.88886507759E+00  0.23578075442E+01  0.00000000000E+00 0. -1.
</event>
<event>
 8    1  0.1240174E-006  0.9118800E+02  0.7816164E-02  0.1184000E+00
        -11   -1    0    0    0    0  0.00000000000E+00  0.00000000000E+00  0.45593999997E+02  0.45594000000E+02  0.51100000000E-03 0.  1.
         11   -1    0    0    0    0 -0.00000000000E+00 -0.00000000000E+00 -0.45593999997E+02  0.45594000000E+02  0.51100000000E-03 0. -1.
         23    2    1    2    0    0  0.35527136788E-14  0.00000000000E+00  0.00000000000E+00  0.91188000000E+02  0.91188000000E+02 0.  0.
    9900012    2    3    3    0    0  0.30746056834E+02  0.89012095672E+01 -0.18199662094E+02  0.54367092313E+02  0.40000018545E+02 0.  0.
         12    1    3    3    0    0 -0.30746056834E+02 -0.89012095672E+01  0.18199662094E+02  0.36820907687E+02  0.00000000000E+00 0. -1.
         11    1    4    4    0    0 -0.56677772986E+01  0.56393139121E+01 -0.36569562457E+00  0.80037050456E+01  0.51100000000E-03 0. -1.
        -11    1    4    4    0    0  0.15844231983E+02 -0.44160439416E+00 -0.19809050014E+02  0.25369926375E+02  0.51100000000E-03 0.  1.
         12    1    4    4    0    0  0.20569602149E+02  0.37035000493E+01  0.19750835446E+01  0.20993460892E+02  0.00000000000E+00 0. -1.
</event>
<event>
 8    1  0.1240174E-006  0.9118800E+02  0.7816164E-02  0.1184000E+00
        -11   -1    0    0    0    0  0.00000000000E+00  0.00000000000E+00  0.45593999997E+02  0.45594000000E+02  0.51100000000E-03 0. -1.
         11   -1    0    0    0    0 -0.00000000000E+00 -0.00000000000E+00 -0.45593999997E+02  0.45594000000E+02  0.51100000000E-03 0.  1.
         23    2    1    2    0    0  0.00000000000E+00  0.00000000000E+00  0.00000000000E+00  0.91188000000E+02  0.91188000000E+02 0.  0.
    9900012    2    3    3    0    0  0.88099692829E+01  0.31049758462E+02 -0.17722327619E+02  0.54367028318E+02  0.39999872657E+02 0.  0.
         12    1    3    3    0    0 -0.88099692829E+01 -0.31049758462E+02  0.17722327619E+02  0.36820971682E+02  0.00000000000E+00 0. -1.
         11    1    4    4    0    0 -0.86248938214E+01  0.10835870385E+02 -0.11901705618E+02  0.18260763327E+02  0.51100000000E-03 0. -1.
        -11    1    4    4    0    0  0.10829224651E+02  0.22894856155E+02  0.21437167818E+01  0.25417357589E+02  0.51100000000E-03 0.  1.
        -12    1    4    4    0    0  0.66056384527E+01 -0.26809680771E+01 -0.79643387832E+01  0.10688907402E+02  0.00000000000E+00 0.  1.
</event>
<event>
 8    1  0.1240174E-006  0.9118800E+02  0.7816164E-02  0.1184000E+00
        -11   -1    0    0    0    0  0.00000000000E+00  0.00000000000E+00  0.45593999997E+02  0.45594000000E+02  0.51100000000E-03 0.  1.
         11   -1    0    0    0    0 -0.00000000000E+00 -0.00000000000E+00 -0.45593999997E+02  0.45594000000E+02  0.51100000000E-03 0. -1.
         23    2    1    2    0    0  0.00000000000E+00  0.00000000000E+00  0.14432899320E-14  0.91188000000E+02  0.91188000000E+02 0.  0.
    9900012    2    3    3    0    0  0.36195973448E+02  0.66858962507E+01  0.96327902526E+00  0.54367114500E+02  0.40000069125E+02 0.  0.
         12    1    3    3    0    0 -0.36195973448E+02 -0.66858962507E+01 -0.96327902526E+00  0.36820885500E+02  0.00000000000E+00 0. -1.
         11    1    4    4    0    0  0.20219923246E+02 -0.89573567242E+00 -0.15647773521E+02  0.25583206501E+02  0.51100000000E-03 0. -1.
        -11    1    4    4    0    0  0.43266038937E+01  0.26296880913E+00 -0.26751368240E+01  0.50936245578E+01  0.51100000000E-03 0.  1.
         12    1    4    4    0    0  0.11649446309E+02  0.73186631140E+01  0.19286189370E+02  0.23690283441E+02  0.00000000000E+00 0. -1.
</event>
<event>
 8    1  0.1240174E-006  0.9118800E+02  0.7816164E-02  0.1184000E+00
        -11   -1    0    0    0    0  0.00000000000E+00  0.00000000000E+00  0.45593999997E+02  0.45594000000E+02  0.51100000000E-03 0. -1.
         11   -1    0    0    0    0 -0.00000000000E+00 -0.00000000000E+00 -0.45593999997E+02  0.45594000000E+02  0.51100000000E-03 0.  1.
         23    2    1    2    0    0  0.35527136788E-14 -0.35527136788E-14  0.00000000000E+00  0.91188000000E+02  0.91188000000E+02 0.  0.
    9900012    2    3    3    0    0 -0.14029632552E+02  0.21001266833E+02 -0.26793593777E+02  0.54367075710E+02  0.39999980695E+02 0.  0.
         12    1    3    3    0    0  0.14029632552E+02 -0.21001266833E+02  0.26793593777E+02  0.36820924290E+02  0.00000000000E+00 0. -1.
         11    1    4    4    0    0 -0.10311661306E+01  0.16504678126E+02  0.30858617104E+01  0.16822313942E+02  0.51100000000E-03 0. -1.
        -11    1    4    4    0    0 -0.24998434746E+01 -0.43769459381E+01 -0.19977064906E+02  0.20603154992E+02  0.51100000000E-03 0.  1.
        -12    1    4    4    0    0 -0.10498622946E+02  0.88735346458E+01 -0.99023905816E+01  0.16941606775E+02  0.00000000000E+00 0.  1.
</event>
<event>
 8    1  0.1240174E-006  0.9118800E+02  0.7816164E-02  0.1184000E+00
        -11   -1    0    0    0    0  0.00000000000E+00  0.00000000000E+00  0.45593999997E+02  0.45594000000E+02  0.51100000000E-03 0. -1.
         11   -1    0    0    0    0 -0.00000000000E+00 -0.00000000000E+00 -0.45593999997E+02  0.45594000000E+02  0.51100000000E-03 0.  1.
         23    2    1    2    0    0  0.00000000000E+00  0.00000000000E+00  0.17763568394E-14  0.91188000000E+02  0.91188000000E+02 0.  0.
    9900012    2    3    3    0    0  0.35624858212E+02 -0.42050432676E+01 -0.83045906445E+01  0.54367093747E+02  0.40000021815E+02 0.  0.
         12    1    3    3    0    0 -0.35624858212E+02  0.42050432676E+01  0.83045906445E+01  0.36820906253E+02  0.00000000000E+00 0. -1.
         11    1    4    4    0    0 -0.29064864506E+01  0.47484320098E+01  0.42818359460E+01  0.70234884045E+01  0.51100000000E-03 0. -1.
        -11    1    4    4    0    0  0.32005454692E+02  0.20348798107E+01 -0.12880656875E+02  0.34560109775E+02  0.51100000000E-03 0.  1.
        -12    1    4    4    0    0  0.65258899709E+01 -0.10988355088E+02  0.29423028454E+00  0.12783495567E+02  0.00000000000E+00 0.  1.
</event>
<event>
 8    1  0.1240174E-006  0.9118800E+02  0.7816164E-02  0.1184000E+00
        -11   -1    0    0    0    0  0.00000000000E+00  0.00000000000E+00  0.45593999997E+02  0.45594000000E+02  0.51100000000E-03 0.  1.
         11   -1    0    0    0    0 -0.00000000000E+00 -0.00000000000E+00 -0.45593999997E+02  0.45594000000E+02  0.51100000000E-03 0. -1.
         23    2    1    2    0    0 -0.17763568394E-14  0.12212453271E-14  0.00000000000E+00  0.91188000000E+02  0.91188000000E+02 0.  0.
    9900012    2    3    3    0    0 -0.98752083355E+01 -0.55500234788E+00  0.35467614366E+02  0.54367089689E+02  0.40000012564E+02 0.  0.
         12    1    3    3    0    0  0.98752083355E+01  0.55500234788E+00 -0.35467614366E+02  0.36820910311E+02  0.00000000000E+00 0. -1.
         11    1    4    4    0    0  0.61895049901E+01  0.51555076625E+01  0.70885987109E+01  0.10730212637E+02  0.51100000000E-03 0. -1.
        -11    1    4    4    0    0 -0.90336850653E+00  0.37640428707E+01  0.25178556470E+02  0.25474375352E+02  0.51100000000E-03 0.  1.
         12    1    4    4    0    0 -0.15161344819E+02 -0.94745528811E+01  0.32004591852E+01  0.18162501700E+02  0.00000000000E+00 0. -1.
</event>
<event>
 8    1  0.1240174E-006  0.9118800E+02  0.7816164E-02  0.1184000E+00
        -11   -1    0    0    0    0  0.00000000000E+00  0.00000000000E+00  0.45593999997E+02  0.45594000000E+02  0.51100000000E-03 0.  1.
         11   -1    0    0    0    0 -0.00000000000E+00 -0.00000000000E+00 -0.45593999997E+02  0.45594000000E+02  0.51100000000E-03 0. -1.
         23    2    1    2    0    0  0.00000000000E+00  0.00000000000E+00  0.00000000000E+00  0.91188000000E+02  0.91188000000E+02 0.  0.
    9900012    2    3    3    0    0 -0.10397151714E+02 -0.12613348578E+02 -0.32993659286E+02  0.54367097252E+02  0.40000029805E+02 0.  0.
        -12    1    3    3    0    0  0.10397151714E+02  0.12613348578E+02  0.32993659286E+02  0.36820902748E+02  0.00000000000E+00 0.  1.
         11    1    4    4    0    0 -0.96644058372E+01 -0.15508180355E+02 -0.70194034544E+01  0.19574892675E+02  0.51100000000E-03 0. -1.
        -11    1    4    4    0    0  0.40861257044E+01  0.55403588114E+01  0.12687202572E+01  0.70001178835E+01  0.51100000000E-03 0.  1.
         12    1    4    4    0    0 -0.48188715814E+01 -0.26455270346E+01 -0.27242976089E+02  0.27792086694E+02  0.00000000000E+00 0. -1.
</event>
<event>
 8    1  0.1240174E-006  0.9118800E+02  0.7816164E-02  0.1184000E+00
        -11   -1    0    0    0    0  0.00000000000E+00  0.00000000000E+00  0.45593999997E+02  0.45594000000E+02  0.51100000000E-03 0.  1.
         11   -1    0    0    0    0 -0.00000000000E+00 -0.00000000000E+00 -0.45593999997E+02  0.45594000000E+02  0.51100000000E-03 0. -1.
         23    2    1    2    0    0  0.88817841970E-15 -0.88817841970E-15  0.00000000000E+00  0.91188000000E+02  0.91188000000E+02 0.  0.
    9900012    2    3    3    0    0  0.62598088436E+01 -0.71323006875E+01  0.35577031425E+02  0.54367080880E+02  0.39999992482E+02 0.  0.
         12    1    3    3    0    0 -0.62598088436E+01  0.71323006875E+01 -0.35577031425E+02  0.36820919120E+02  0.00000000000E+00 0. -1.
         11    1    4    4    0    0  0.11948548912E+02  0.31425670729E+01  0.36355740447E+02  0.38397700617E+02  0.51100000000E-03 0. -1.
        -11    1    4    4    0    0  0.14637333737E+01 -0.68087692234E+01  0.24610603391E+01  0.73863842291E+01  0.51100000000E-03 0.  1.
         12    1    4    4    0    0 -0.71524734420E+01 -0.34660985371E+01 -0.32397693618E+01  0.85829960343E+01  0.00000000000E+00 0. -1.
</event>
<event>
 8    1  0.1240174E-006  0.9118800E+02  0.7816164E-02  0.1184000E+00
        -11   -1    0    0    0    0  0.00000000000E+00  0.00000000000E+00  0.45593999997E+02  0.45594000000E+02  0.51100000000E-03 0.  1.
         11   -1    0    0    0    0 -0.00000000000E+00 -0.00000000000E+00 -0.45593999997E+02  0.45594000000E+02  0.51100000000E-03 0. -1.
         23    2    1    2    0    0  0.00000000000E+00  0.17763568394E-14 -0.71054273576E-14  0.91188000000E+02  0.91188000000E+02 0.  0.
    9900012    2    3    3    0    0  0.99506416061E+01 -0.27182101639E+01 -0.35346514281E+02  0.54367081941E+02  0.39999994901E+02 0.  0.
        -12    1    3    3    0    0 -0.99506416061E+01  0.27182101639E+01  0.35346514281E+02  0.36820918059E+02  0.00000000000E+00 0.  1.
         11    1    4    4    0    0  0.85195388941E+01 -0.42658238209E+01  0.87660384535E+00  0.95680839462E+01  0.51100000000E-03 0. -1.
        -11    1    4    4    0    0  0.54412202720E+01 -0.11460420189E+02 -0.19000130809E+02  0.22846292478E+02  0.51100000000E-03 0.  1.
        -12    1    4    4    0    0 -0.40101175600E+01  0.13008033846E+02 -0.17222987317E+02  0.21952705517E+02  0.00000000000E+00 0.  1.
</event>
<event>
 8    1  0.1240174E-006  0.9118800E+02  0.7816164E-02  0.1184000E+00
        -11   -1    0    0    0    0  0.00000000000E+00  0.00000000000E+00  0.45593999997E+02  0.45594000000E+02  0.51100000000E-03 0.  1.
         11   -1    0    0    0    0 -0.00000000000E+00 -0.00000000000E+00 -0.45593999997E+02  0.45594000000E+02  0.51100000000E-03 0. -1.
         23    2    1    2    0    0 -0.17763568394E-14  0.00000000000E+00  0.00000000000E+00  0.91188000000E+02  0.91188000000E+02 0.  0.
    9900012    2    3    3    0    0  0.29448800754E+01  0.34584296342E+02  0.12289620648E+02  0.54367073235E+02  0.39999975054E+02 0.  0.
         12    1    3    3    0    0 -0.29448800754E+01 -0.34584296342E+02 -0.12289620648E+02  0.36820926765E+02  0.00000000000E+00 0. -1.
         11    1    4    4    0    0 -0.12595033432E+02  0.25101507845E+02 -0.35251658817E+01  0.28304546596E+02  0.51100000000E-03 0. -1.
        -11    1    4    4    0    0  0.63249052412E+01  0.88749076049E+01  0.54651007559E+01  0.12191625726E+02  0.51100000000E-03 0.  1.
         12    1    4    4    0    0  0.92150082665E+01  0.60788089209E+00  0.10349685774E+02  0.13870900913E+02  0.00000000000E+00 0. -1.
</event>
<event>
 8    1  0.1240174E-006  0.9118800E+02  0.7816164E-02  0.1184000E+00
        -11   -1    0    0    0    0  0.00000000000E+00  0.00000000000E+00  0.45593999997E+02  0.45594000000E+02  0.51100000000E-03 0. -1.
         11   -1    0    0    0    0 -0.00000000000E+00 -0.00000000000E+00 -0.45593999997E+02  0.45594000000E+02  0.51100000000E-03 0.  1.
         23    2    1    2    0    0  0.00000000000E+00  0.00000000000E+00 -0.17763568394E-14  0.91188000000E+02  0.91188000000E+02 0.  0.
    9900012    2    3    3    0    0  0.21978929231E+02  0.26440805129E+02  0.13175398900E+02  0.54367073312E+02  0.39999975229E+02 0.  0.
        -12    1    3    3    0    0 -0.21978929231E+02 -0.26440805129E+02 -0.13175398900E+02  0.36820926688E+02  0.00000000000E+00 0.  1.
         11    1    4    4    0    0  0.21059857634E+02  0.16121223477E+02 -0.16865537090E+01  0.26575475793E+02  0.51100000000E-03 0. -1.
        -11    1    4    4    0    0  0.90113824894E+01  0.17184835111E+01  0.48555341899E+00  0.91866186560E+01  0.51100000000E-03 0.  1.
        -12    1    4    4    0    0 -0.80923108923E+01  0.86010981408E+01  0.14376399190E+02  0.18604978863E+02  0.00000000000E+00 0.  1.
</event>
<event>
 8    1  0.1240174E-006  0.9118800E+02  0.7816164E-02  0.1184000E+00
        -11   -1    0    0    0    0  0.00000000000E+00  0.00000000000E+00  0.45593999997E+02  0.45594000000E+02  0.51100000000E-03 0. -1.
         11   -1    0    0    0    0 -0.00000000000E+00 -0.00000000000E+00 -0.45593999997E+02  0.45594000000E+02  0.51100000000E-03 0.  1.
         23    2    1    2    0    0 -0.17763568394E-14  0.00000000000E+00  0.71054273576E-14  0.91188000000E+02  0.91188000000E+02 0.  0.
    9900012    2    3    3    0    0  0.16107496185E+01 -0.11833916370E+02 -0.34830149760E+02  0.54367144180E+02  0.40000136788E+02 0.  0.
         12    1    3    3    0    0 -0.16107496185E+01  0.11833916370E+02  0.34830149760E+02  0.36820855820E+02  0.00000000000E+00 0. -1.
         11    1    4    4    0    0 -0.14573012475E+02 -0.55817030016E+01 -0.10852339331E+02  0.19007929141E+02  0.51100000000E-03 0. -1.
        -11    1    4    4    0    0  0.12810928982E+02 -0.12615259934E+02 -0.20782505804E+02  0.27480488211E+02  0.51100000000E-03 0.  1.
         12    1    4    4    0    0  0.33728331117E+01  0.63630465651E+01 -0.31953046248E+01  0.78787268282E+01  0.00000000000E+00 0. -1.
</event>
<event>
 8    1  0.1240174E-006  0.9118800E+02  0.7816164E-02  0.1184000E+00
        -11   -1    0    0    0    0  0.00000000000E+00  0.00000000000E+00  0.45593999997E+02  0.45594000000E+02  0.51100000000E-03 0.  1.
         11   -1    0    0    0    0 -0.00000000000E+00 -0.00000000000E+00 -0.45593999997E+02  0.45594000000E+02  0.51100000000E-03 0. -1.
         23    2    1    2    0    0  0.00000000000E+00 -0.88817841970E-15  0.35527136788E-14  0.91188000000E+02  0.91188000000E+02 0.  0.
    9900012    2    3    3    0    0  0.29665790973E+02  0.25822491715E+01 -0.21657646204E+02  0.54367071115E+02  0.39999970221E+02 0.  0.
        -12    1    3    3    0    0 -0.29665790973E+02 -0.25822491715E+01  0.21657646204E+02  0.36820928885E+02  0.00000000000E+00 0.  1.
         11    1    4    4    0    0  0.24580827977E+02  0.52727375440E+01 -0.25306136768E+02  0.35670988543E+02  0.51100000000E-03 0. -1.
        -11    1    4    4    0    0  0.11518298472E+02 -0.17422007599E+01  0.36005775990E+01  0.12193056323E+02  0.51100000000E-03 0.  1.
        -12    1    4    4    0    0 -0.64333354764E+01 -0.94828761259E+00  0.47912964704E-01  0.65030262494E+01  0.00000000000E+00 0.  1.
</event>
<event>
 8    1  0.1240174E-006  0.9118800E+02  0.7816164E-02  0.1184000E+00
        -11   -1    0    0    0    0  0.00000000000E+00  0.00000000000E+00  0.45593999997E+02  0.45594000000E+02  0.51100000000E-03 0.  1.
         11   -1    0    0    0    0 -0.00000000000E+00 -0.00000000000E+00 -0.45593999997E+02  0.45594000000E+02  0.51100000000E-03 0. -1.
         23    2    1    2    0    0  0.00000000000E+00 -0.35527136788E-14  0.00000000000E+00  0.91188000000E+02  0.91188000000E+02 0.  0.
    9900012    2    3    3    0    0 -0.10942673912E+02 -0.23382652395E+02  0.26254310733E+02  0.54367090486E+02  0.40000014381E+02 0.  0.
         12    1    3    3    0    0  0.10942673912E+02  0.23382652395E+02 -0.26254310733E+02  0.36820909514E+02  0.00000000000E+00 0. -1.
         11    1    4    4    0    0 -0.93006942523E+00 -0.69338403393E+01  0.14117972268E+02  0.15756278501E+02  0.51100000000E-03 0. -1.
        -11    1    4    4    0    0 -0.82680766313E+01 -0.25113493775E+02  0.13468603996E+02  0.29672410664E+02  0.51100000000E-03 0.  1.
         12    1    4    4    0    0 -0.17445278558E+01  0.86646817191E+01 -0.13322655304E+01  0.89384013211E+01  0.00000000000E+00 0. -1.
</event>
<event>
 8    1  0.1240174E-006  0.9118800E+02  0.7816164E-02  0.1184000E+00
        -11   -1    0    0    0    0  0.00000000000E+00  0.00000000000E+00  0.45593999997E+02  0.45594000000E+02  0.51100000000E-03 0.  1.
         11   -1    0    0    0    0 -0.00000000000E+00 -0.00000000000E+00 -0.45593999997E+02  0.45594000000E+02  0.51100000000E-03 0. -1.
         23    2    1    2    0    0  0.00000000000E+00 -0.71054273576E-14  0.00000000000E+00  0.91188000000E+02  0.91188000000E+02 0.  0.
    9900012    2    3    3    0    0 -0.15770369842E+02 -0.26693662338E+02  0.19862648440E+02  0.54367068765E+02  0.39999964864E+02 0.  0.
        -12    1    3    3    0    0  0.15770369842E+02  0.26693662338E+02 -0.19862648440E+02  0.36820931235E+02  0.00000000000E+00 0.  1.
         11    1    4    4    0    0 -0.72608341813E+01 -0.28067658814E+01  0.47201703033E+01  0.91037165858E+01  0.51100000000E-03 0. -1.
        -11    1    4    4    0    0 -0.10920225036E+02  0.30108816024E+01  0.14302169679E+02  0.18244691849E+02  0.51100000000E-03 0.  1.
         12    1    4    4    0    0  0.24106893748E+01 -0.26897778059E+02  0.84030845694E+00  0.27018660331E+02  0.00000000000E+00 0. -1.
</event>
<event>
 8    1  0.1240174E-006  0.9118800E+02  0.7816164E-02  0.1184000E+00
        -11   -1    0    0    0    0  0.00000000000E+00  0.00000000000E+00  0.45593999997E+02  0.45594000000E+02  0.51100000000E-03 0. -1.
         11   -1    0    0    0    0 -0.00000000000E+00 -0.00000000000E+00 -0.45593999997E+02  0.45594000000E+02  0.51100000000E-03 0.  1.
         23    2    1    2    0    0  0.35527136788E-14 -0.88817841970E-15  0.35527136788E-14  0.91188000000E+02  0.91188000000E+02 0.  0.
    9900012    2    3    3    0    0  0.21301066195E+02 -0.74990473166E+01  0.29082781890E+02  0.54367091074E+02  0.40000015722E+02 0.  0.
        -12    1    3    3    0    0 -0.21301066195E+02  0.74990473166E+01 -0.29082781890E+02  0.36820908926E+02  0.00000000000E+00 0.  1.
         11    1    4    4    0    0  0.28690584698E+01 -0.16820745101E+02  0.11695452903E+02  0.20687014795E+02  0.51100000000E-03 0. -1.
        -11    1    4    4    0    0  0.10468086547E+01  0.11203275978E+02  0.82304518601E+01  0.13940930352E+02  0.51100000000E-03 0.  1.
         12    1    4    4    0    0  0.17385199070E+02 -0.18815781938E+01  0.91568771265E+01  0.19739145927E+02  0.00000000000E+00 0. -1.
</event>
<event>
 8    1  0.1240174E-006  0.9118800E+02  0.7816164E-02  0.1184000E+00
        -11   -1    0    0    0    0  0.00000000000E+00  0.00000000000E+00  0.45593999997E+02  0.45594000000E+02  0.51100000000E-03 0. -1.
         11   -1    0    0    0    0 -0.00000000000E+00 -0.00000000000E+00 -0.45593999997E+02  0.45594000000E+02  0.51100000000E-03 0.  1.
         23    2    1    2    0    0 -0.35527136788E-14 -0.35527136788E-14  0.00000000000E+00  0.91188000000E+02  0.91188000000E+02 0.  0.
    9900012    2    3    3    0    0  0.25815024598E+02  0.21965206916E+02  0.14383807138E+02  0.54367085866E+02  0.40000003848E+02 0.  0.
         12    1    3    3    0    0 -0.25815024598E+02 -0.21965206916E+02 -0.14383807138E+02  0.36820914134E+02  0.00000000000E+00 0. -1.
         11    1    4    4    0    0  0.26479512755E+01 -0.84244681664E+01  0.41475672428E+01  0.97563120153E+01  0.51100000000E-03 0. -1.
        -11    1    4    4    0    0  0.10830837423E+02  0.66684565351E+00  0.52177546229E+01  0.12040626477E+02  0.51100000000E-03 0.  1.
        -12    1    4    4    0    0  0.12336235900E+02  0.29722829429E+02  0.50184852728E+01  0.32570147373E+02  0.00000000000E+00 0.  1.
</event>
<event>
 8    1  0.1240174E-006  0.9118800E+02  0.7816164E-02  0.1184000E+00
        -11   -1    0    0    0    0  0.00000000000E+00  0.00000000000E+00  0.45593999997E+02  0.45594000000E+02  0.51100000000E-03 0. -1.
         11   -1    0    0    0    0 -0.00000000000E+00 -0.00000000000E+00 -0.45593999997E+02  0.45594000000E+02  0.51100000000E-03 0.  1.
         23    2    1    2    0    0  0.00000000000E+00 -0.35527136788E-14 -0.17763568394E-14  0.91188000000E+02  0.91188000000E+02 0.  0.
    9900012    2    3    3    0    0  0.31113871475E+02 -0.17051477204E+02 -0.98465541735E+01  0.54367075214E+02  0.39999979566E+02 0.  0.
         12    1    3    3    0    0 -0.31113871475E+02  0.17051477204E+02  0.98465541735E+01  0.36820924786E+02  0.00000000000E+00 0. -1.
         11    1    4    4    0    0  0.22587222221E+02 -0.32538842227E+01 -0.36213951823E+01  0.23105948878E+02  0.51100000000E-03 0. -1.
        -11    1    4    4    0    0  0.10684513756E+02  0.26385624908E+01 -0.92908862781E+01  0.14402826608E+02  0.51100000000E-03 0.  1.
         12    1    4    4    0    0 -0.21578645026E+01 -0.16436155472E+02  0.30657272868E+01  0.16858299728E+02  0.00000000000E+00 0. -1.
</event>
<event>
 8    1  0.1240174E-006  0.9118800E+02  0.7816164E-02  0.1184000E+00
        -11   -1    0    0    0    0  0.00000000000E+00  0.00000000000E+00  0.45593999997E+02  0.45594000000E+02  0.51100000000E-03 0. -1.
         11   -1    0    0    0    0 -0.00000000000E+00 -0.00000000000E+00 -0.45593999997E+02  0.45594000000E+02  0.51100000000E-03 0.  1.
         23    2    1    2    0    0  0.00000000000E+00  0.33306690739E-15  0.00000000000E+00  0.91188000000E+02  0.91188000000E+02 0.  0.
    9900012    2    3    3    0    0  0.35097302744E+02  0.81512527913E+00 -0.11103822681E+02  0.54367082477E+02  0.39999996122E+02 0.  0.
         12    1    3    3    0    0 -0.35097302744E+02 -0.81512527913E+00  0.11103822681E+02  0.36820917523E+02  0.00000000000E+00 0. -1.
         11    1    4    4    0    0 -0.18173069007E+01  0.11264552204E+02 -0.11178342618E+02  0.15973355461E+02  0.51100000000E-03 0. -1.
        -11    1    4    4    0    0  0.16123752689E+02 -0.52817507589E+01 -0.22064893247E+00  0.16968234383E+02  0.51100000000E-03 0.  1.
         12    1    4    4    0    0  0.20790856956E+02 -0.51676761659E+01  0.29516886945E+00  0.21425492633E+02  0.00000000000E+00 0. -1.
</event>
<event>
 8    1  0.1240174E-006  0.9118800E+02  0.7816164E-02  0.1184000E+00
        -11   -1    0    0    0    0  0.00000000000E+00  0.00000000000E+00  0.45593999997E+02  0.45594000000E+02  0.51100000000E-03 0. -1.
         11   -1    0    0    0    0 -0.00000000000E+00 -0.00000000000E+00 -0.45593999997E+02  0.45594000000E+02  0.51100000000E-03 0.  1.
         23    2    1    2    0    0  0.88817841970E-15  0.00000000000E+00  0.88817841970E-15  0.91188000000E+02  0.91188000000E+02 0.  0.
    9900012    2    3    3    0    0 -0.12042056640E+01 -0.36470593778E+02 -0.49219342007E+01  0.54367085317E+02  0.40000002598E+02 0.  0.
         12    1    3    3    0    0  0.12042056640E+01  0.36470593778E+02  0.49219342007E+01  0.36820914683E+02  0.00000000000E+00 0. -1.
         11    1    4    4    0    0  0.61972536926E+01 -0.38833352001E+01  0.18465380924E+01  0.75429403282E+01  0.51100000000E-03 0. -1.
        -11    1    4    4    0    0  0.10146938862E+02 -0.21177739227E+02 -0.10218988876E+02  0.25610246796E+02  0.51100000000E-03 0.  1.
         12    1    4    4    0    0 -0.17548398219E+02 -0.11409519351E+02  0.34505165833E+01  0.21213898193E+02  0.00000000000E+00 0. -1.
</event>
<event>
 8    1  0.1240174E-006  0.9118800E+02  0.7816164E-02  0.1184000E+00
        -11   -1    0    0    0    0  0.00000000000E+00  0.00000000000E+00  0.45593999997E+02  0.45594000000E+02  0.51100000000E-03 0. -1.
         11   -1    0    0    0    0 -0.00000000000E+00 -0.00000000000E+00 -0.45593999997E+02  0.45594000000E+02  0.51100000000E-03 0.  1.
         23    2    1    2    0    0  0.00000000000E+00 -0.17763568394E-14  0.00000000000E+00  0.91188000000E+02  0.91188000000E+02 0.  0.
    9900012    2    3    3    0    0 -0.31769553669E+02  0.15863261609E+02  0.97383189982E+01  0.54367048544E+02  0.39999918766E+02 0.  0.
         12    1    3    3    0    0  0.31769553669E+02 -0.15863261609E+02 -0.97383189982E+01  0.36820951456E+02  0.00000000000E+00 0. -1.
         11    1    4    4    0    0 -0.42821699508E+01  0.13579843036E+02  0.11888377949E+02  0.18549464869E+02  0.51100000000E-03 0. -1.
        -11    1    4    4    0    0 -0.79255672020E+01  0.88006580779E+01  0.64397596832E+01  0.13480975600E+02  0.51100000000E-03 0.  1.
        -12    1    4    4    0    0 -0.19561816516E+02 -0.65172395049E+01 -0.85898186344E+01  0.22336608076E+02  0.00000000000E+00 0.  1.
</event>
<event>
 8    1  0.1240174E-006  0.9118800E+02  0.7816164E-02  0.1184000E+00
        -11   -1    0    0    0    0  0.00000000000E+00  0.00000000000E+00  0.45593999997E+02  0.45594000000E+02  0.51100000000E-03 0.  1.
         11   -1    0    0    0    0 -0.00000000000E+00 -0.00000000000E+00 -0.45593999997E+02  0.45594000000E+02  0.51100000000E-03 0. -1.
         23    2    1    2    0    0 -0.17763568394E-14  0.00000000000E+00  0.00000000000E+00  0.91188000000E+02  0.91188000000E+02 0.  0.
    9900012    2    3    3    0    0 -0.14083011506E+02 -0.31224982952E+02 -0.13507378664E+02  0.54367081329E+02  0.39999993505E+02 0.  0.
         12    1    3    3    0    0  0.14083011506E+02  0.31224982952E+02  0.13507378664E+02  0.36820918671E+02  0.00000000000E+00 0. -1.
         11    1    4    4    0    0 -0.12292670483E+02 -0.30623353141E+01 -0.11066821510E+02  0.16821479833E+02  0.51100000000E-03 0. -1.
        -11    1    4    4    0    0 -0.10329542232E+02 -0.18849840712E+02 -0.90077722467E+01  0.23305705282E+02  0.51100000000E-03 0.  1.
         12    1    4    4    0    0  0.85392012081E+01 -0.93128069256E+01  0.65672150922E+01  0.14239896214E+02  0.00000000000E+00 0. -1.
</event>
<event>
 8    1  0.1240174E-006  0.9118800E+02  0.7816164E-02  0.1184000E+00
        -11   -1    0    0    0    0  0.00000000000E+00  0.00000000000E+00  0.45593999997E+02  0.45594000000E+02  0.51100000000E-03 0. -1.
         11   -1    0    0    0    0 -0.00000000000E+00 -0.00000000000E+00 -0.45593999997E+02  0.45594000000E+02  0.51100000000E-03 0.  1.
         23    2    1    2    0    0  0.35527136788E-14 -0.17763568394E-14  0.35527136788E-14  0.91188000000E+02  0.91188000000E+02 0.  0.
    9900012    2    3    3    0    0 -0.31558976853E+02  0.12399221150E+02 -0.14355163501E+02  0.54367076270E+02  0.39999981974E+02 0.  0.
         12    1    3    3    0    0  0.31558976853E+02 -0.12399221150E+02  0.14355163501E+02  0.36820923730E+02  0.00000000000E+00 0. -1.
         11    1    4    4    0    0 -0.52434814301E+01 -0.20045624334E+01  0.15320556341E+01  0.58188970419E+01  0.51100000000E-03 0. -1.
        -11    1    4    4    0    0 -0.27448349426E+02 -0.30649221878E+01 -0.54002982162E+01  0.28141941215E+02  0.51100000000E-03 0.  1.
         12    1    4    4    0    0  0.11328540030E+01  0.17468705771E+02 -0.10486920919E+02  0.20406238014E+02  0.00000000000E+00 0. -1.
</event>
<event>
 8    1  0.1240174E-006  0.9118800E+02  0.7816164E-02  0.1184000E+00
        -11   -1    0    0    0    0  0.00000000000E+00  0.00000000000E+00  0.45593999997E+02  0.45594000000E+02  0.51100000000E-03 0.  1.
         11   -1    0    0    0    0 -0.00000000000E+00 -0.00000000000E+00 -0.45593999997E+02  0.45594000000E+02  0.51100000000E-03 0. -1.
         23    2    1    2    0    0  0.00000000000E+00  0.00000000000E+00  0.00000000000E+00  0.91188000000E+02  0.91188000000E+02 0.  0.
    9900012    2    3    3    0    0 -0.27172631547E+02  0.13553374681E+02  0.20826295429E+02  0.54367075898E+02  0.39999981125E+02 0.  0.
         12    1    3    3    0    0  0.27172631547E+02 -0.13553374681E+02 -0.20826295429E+02  0.36820924102E+02  0.00000000000E+00 0. -1.
         11    1    4    4    0    0 -0.15310482823E+02  0.16751937431E+02 -0.30548679949E+01  0.22899137772E+02  0.51100000000E-03 0. -1.
        -11    1    4    4    0    0 -0.14824933121E+02 -0.42645738333E+01  0.13105080467E+02  0.20241254070E+02  0.51100000000E-03 0.  1.
         12    1    4    4    0    0  0.29627843968E+01  0.10660110836E+01  0.10776082957E+02  0.11226684056E+02  0.00000000000E+00 0. -1.
</event>
<event>
 8    1  0.1240174E-006  0.9118800E+02  0.7816164E-02  0.1184000E+00
        -11   -1    0    0    0    0  0.00000000000E+00  0.00000000000E+00  0.45593999997E+02  0.45594000000E+02  0.51100000000E-03 0. -1.
         11   -1    0    0    0    0 -0.00000000000E+00 -0.00000000000E+00 -0.45593999997E+02  0.45594000000E+02  0.51100000000E-03 0.  1.
         23    2    1    2    0    0 -0.71054273576E-14  0.71054273576E-14  0.00000000000E+00  0.91188000000E+02  0.91188000000E+02 0.  0.
    9900012    2    3    3    0    0 -0.24713543349E+02  0.26204332755E+02 -0.76389095623E+01  0.54367092634E+02  0.40000019277E+02 0.  0.
        -12    1    3    3    0    0  0.24713543349E+02 -0.26204332755E+02  0.76389095623E+01  0.36820907366E+02  0.00000000000E+00 0.  1.
         11    1    4    4    0    0 -0.40418390391E+00 -0.31985064023E+01  0.48059780319E+01  0.57871610430E+01  0.51100000000E-03 0. -1.
        -11    1    4    4    0    0 -0.11032443204E+02  0.31103282010E+02 -0.12222886357E+02  0.35192725186E+02  0.51100000000E-03 0.  1.
         12    1    4    4    0    0 -0.13276916241E+02 -0.17004428528E+01 -0.22200123674E+00  0.13387206405E+02  0.00000000000E+00 0. -1.
</event>
<event>
 8    1  0.1240174E-006  0.9118800E+02  0.7816164E-02  0.1184000E+00
        -11   -1    0    0    0    0  0.00000000000E+00  0.00000000000E+00  0.45593999997E+02  0.45594000000E+02  0.51100000000E-03 0. -1.
         11   -1    0    0    0    0 -0.00000000000E+00 -0.00000000000E+00 -0.45593999997E+02  0.45594000000E+02  0.51100000000E-03 0.  1.
         23    2    1    2    0    0  0.00000000000E+00  0.00000000000E+00  0.71054273576E-14  0.91188000000E+02  0.91188000000E+02 0.  0.
    9900012    2    3    3    0    0  0.23696716361E+02 -0.19126818207E+02  0.20698069698E+02  0.54367087053E+02  0.40000006555E+02 0.  0.
        -12    1    3    3    0    0 -0.23696716361E+02  0.19126818207E+02 -0.20698069698E+02  0.36820912947E+02  0.00000000000E+00 0.  1.
         11    1    4    4    0    0  0.45426667064E+01 -0.59361413365E+01 -0.10091721894E+02  0.12558520845E+02  0.51100000000E-03 0.  1.
        -11    1    4    4    0    0  0.14067353115E+02 -0.16851813363E+02  0.25086039400E+02  0.33334417804E+02  0.51100000000E-03 0. -1.
         12    1    4    4    0    0  0.50866965390E+01  0.36611364930E+01  0.57037521920E+01  0.84741484037E+01  0.00000000000E+00 0. -1.
</event>
<event>
 8    1  0.1240174E-006  0.9118800E+02  0.7816164E-02  0.1184000E+00
        -11   -1    0    0    0    0  0.00000000000E+00  0.00000000000E+00  0.45593999997E+02  0.45594000000E+02  0.51100000000E-03 0. -1.
         11   -1    0    0    0    0 -0.00000000000E+00 -0.00000000000E+00 -0.45593999997E+02  0.45594000000E+02  0.51100000000E-03 0.  1.
         23    2    1    2    0    0  0.35527136788E-14  0.35527136788E-14  0.35527136788E-14  0.91188000000E+02  0.91188000000E+02 0.  0.
    9900012    2    3    3    0    0 -0.16072790932E+02 -0.22982467981E+02 -0.23859010793E+02  0.54367070641E+02  0.39999969139E+02 0.  0.
         12    1    3    3    0    0  0.16072790932E+02  0.22982467981E+02  0.23859010793E+02  0.36820929359E+02  0.00000000000E+00 0. -1.
         11    1    4    4    0    0  0.79968188782E+00 -0.99835480487E+01 -0.50708221992E+01  0.11226039408E+02  0.51100000000E-03 0. -1.
        -11    1    4    4    0    0  0.39488169122E+01 -0.16372464232E+02 -0.12979327862E+02  0.21262965270E+02  0.51100000000E-03 0.  1.
         12    1    4    4    0    0 -0.20821289732E+02  0.33735442997E+01 -0.58088607316E+01  0.21878065963E+02  0.00000000000E+00 0. -1.
</event>
<event>
 8    1  0.1240174E-006  0.9118800E+02  0.7816164E-02  0.1184000E+00
        -11   -1    0    0    0    0  0.00000000000E+00  0.00000000000E+00  0.45593999997E+02  0.45594000000E+02  0.51100000000E-03 0.  1.
         11   -1    0    0    0    0 -0.00000000000E+00 -0.00000000000E+00 -0.45593999997E+02  0.45594000000E+02  0.51100000000E-03 0. -1.
         23    2    1    2    0    0  0.00000000000E+00  0.00000000000E+00  0.17763568394E-14  0.91188000000E+02  0.91188000000E+02 0.  0.
    9900012    2    3    3    0    0  0.35160029953E+02 -0.86512668023E+01  0.66864713733E+01  0.54367068140E+02  0.39999963440E+02 0.  0.
         12    1    3    3    0    0 -0.35160029953E+02  0.86512668023E+01 -0.66864713733E+01  0.36820931860E+02  0.00000000000E+00 0. -1.
         11    1    4    4    0    0 -0.17127038193E+01  0.25064976037E+01 -0.11751681661E+01  0.32552887875E+01  0.51100000000E-03 0. -1.
        -11    1    4    4    0    0  0.34281148955E+02 -0.98882478979E+01 -0.66695566718E+01  0.36296798848E+02  0.51100000000E-03 0.  1.
        -12    1    4    4    0    0  0.25915848176E+01 -0.12695165080E+01  0.14531196211E+02  0.14814980505E+02  0.00000000000E+00 0.  1.
</event>
<event>
 8    1  0.1240174E-006  0.9118800E+02  0.7816164E-02  0.1184000E+00
        -11   -1    0    0    0    0  0.00000000000E+00  0.00000000000E+00  0.45593999997E+02  0.45594000000E+02  0.51100000000E-03 0.  1.
         11   -1    0    0    0    0 -0.00000000000E+00 -0.00000000000E+00 -0.45593999997E+02  0.45594000000E+02  0.51100000000E-03 0. -1.
         23    2    1    2    0    0 -0.88817841970E-15 -0.88817841970E-15  0.00000000000E+00  0.91188000000E+02  0.91188000000E+02 0.  0.
    9900012    2    3    3    0    0  0.42648347672E+01  0.71415123686E+01  0.35869059431E+02  0.54367089651E+02  0.40000012477E+02 0.  0.
         12    1    3    3    0    0 -0.42648347672E+01 -0.71415123686E+01 -0.35869059431E+02  0.36820910349E+02  0.00000000000E+00 0. -1.
         11    1    4    4    0    0  0.81499453174E+01 -0.78792939331E+01  0.23300418574E+02  0.25911665086E+02  0.51100000000E-03 0. -1.
        -11    1    4    4    0    0 -0.98051077455E+01  0.14640386142E+02  0.40586663606E+01  0.18081864317E+02  0.51100000000E-03 0.  1.
         12    1    4    4    0    0  0.59199971953E+01  0.38042016013E+00  0.85099744962E+01  0.10373560248E+02  0.00000000000E+00 0. -1.
</event>
<event>
 8    1  0.1240174E-006  0.9118800E+02  0.7816164E-02  0.1184000E+00
        -11   -1    0    0    0    0  0.00000000000E+00  0.00000000000E+00  0.45593999997E+02  0.45594000000E+02  0.51100000000E-03 0.  1.
         11   -1    0    0    0    0 -0.00000000000E+00 -0.00000000000E+00 -0.45593999997E+02  0.45594000000E+02  0.51100000000E-03 0. -1.
         23    2    1    2    0    0 -0.17763568394E-14 -0.26645352591E-14  0.71054273576E-14  0.91188000000E+02  0.91188000000E+02 0.  0.
    9900012    2    3    3    0    0  0.94157348743E+01  0.67568535018E+01 -0.34949527350E+02  0.54367073960E+02  0.39999976707E+02 0.  0.
        -12    1    3    3    0    0 -0.94157348743E+01 -0.67568535018E+01  0.34949527350E+02  0.36820926040E+02  0.00000000000E+00 0.  1.
         11    1    4    4    0    0  0.26950464405E+01 -0.12630456753E+01 -0.13960885687E+02  0.14274623957E+02  0.51100000000E-03 0. -1.
        -11    1    4    4    0    0  0.40983514340E+01 -0.43579078453E+01 -0.25853704150E+02  0.26536802064E+02  0.51100000000E-03 0.  1.
        -12    1    4    4    0    0  0.26223369999E+01  0.12377807022E+02  0.48650624876E+01  0.13555647939E+02  0.00000000000E+00 0.  1.
</event>
<event>
 8    1  0.1240174E-006  0.9118800E+02  0.7816164E-02  0.1184000E+00
        -11   -1    0    0    0    0  0.00000000000E+00  0.00000000000E+00  0.45593999997E+02  0.45594000000E+02  0.51100000000E-03 0.  1.
         11   -1    0    0    0    0 -0.00000000000E+00 -0.00000000000E+00 -0.45593999997E+02  0.45594000000E+02  0.51100000000E-03 0. -1.
         23    2    1    2    0    0 -0.17763568394E-14 -0.35527136788E-14 -0.35527136788E-14  0.91188000000E+02  0.91188000000E+02 0.  0.
    9900012    2    3    3    0    0 -0.10798927926E+02  0.22494033440E+02  0.27077314610E+02  0.54367090842E+02  0.40000015192E+02 0.  0.
         12    1    3    3    0    0  0.10798927926E+02 -0.22494033440E+02 -0.27077314610E+02  0.36820909158E+02  0.00000000000E+00 0. -1.
         11    1    4    4    0    0  0.43850347335E+01  0.22461398420E+01  0.94674282040E+01  0.10672669341E+02  0.51100000000E-03 0. -1.
        -11    1    4    4    0    0 -0.19258570990E+02  0.25314544023E+02  0.18993705185E+02  0.37046990871E+02  0.51100000000E-03 0.  1.
        -12    1    4    4    0    0  0.40746083298E+01 -0.50666504248E+01 -0.13838187788E+01  0.66474306300E+01  0.00000000000E+00 0.  1.
</event>
<event>
 8    1  0.1240174E-006  0.9118800E+02  0.7816164E-02  0.1184000E+00
        -11   -1    0    0    0    0  0.00000000000E+00  0.00000000000E+00  0.45593999997E+02  0.45594000000E+02  0.51100000000E-03 0.  1.
         11   -1    0    0    0    0 -0.00000000000E+00 -0.00000000000E+00 -0.45593999997E+02  0.45594000000E+02  0.51100000000E-03 0. -1.
         23    2    1    2    0    0 -0.17763568394E-14  0.00000000000E+00  0.00000000000E+00  0.91188000000E+02  0.91188000000E+02 0.  0.
    9900012    2    3    3    0    0 -0.91999018226E+01 -0.21666254568E+02  0.28314580002E+02  0.54367079028E+02  0.39999988260E+02 0.  0.
        -12    1    3    3    0    0  0.91999018226E+01  0.21666254568E+02 -0.28314580002E+02  0.36820920972E+02  0.00000000000E+00 0.  1.
         11    1    4    4    0    0 -0.60747563649E+01 -0.12134189013E+02 -0.48408745184E+01  0.14407472861E+02  0.51100000000E-03 0. -1.
        -11    1    4    4    0    0 -0.11375923225E+01  0.61973824841E+01  0.74414630317E+01  0.97507455233E+01  0.51100000000E-03 0.  1.
         12    1    4    4    0    0 -0.19875531352E+01 -0.15729448039E+02  0.25713991488E+02  0.30208860643E+02  0.00000000000E+00 0. -1.
</event>
<event>
 8    1  0.1240174E-006  0.9118800E+02  0.7816164E-02  0.1184000E+00
        -11   -1    0    0    0    0  0.00000000000E+00  0.00000000000E+00  0.45593999997E+02  0.45594000000E+02  0.51100000000E-03 0.  1.
         11   -1    0    0    0    0 -0.00000000000E+00 -0.00000000000E+00 -0.45593999997E+02  0.45594000000E+02  0.51100000000E-03 0. -1.
         23    2    1    2    0    0 -0.44408920985E-15  0.00000000000E+00  0.35527136788E-14  0.91188000000E+02  0.91188000000E+02 0.  0.
    9900012    2    3    3    0    0  0.15441512370E+01 -0.28409643029E+02 -0.23372760905E+02  0.54367106849E+02  0.40000051685E+02 0.  0.
        -12    1    3    3    0    0 -0.15441512370E+01  0.28409643029E+02  0.23372760905E+02  0.36820893151E+02  0.00000000000E+00 0.  1.
         11    1    4    4    0    0  0.38282491303E+01 -0.39653037200E+01  0.34767382270E+01  0.65166581893E+01  0.51100000000E-03 0. -1.
        -11    1    4    4    0    0  0.13765389446E+01  0.33626957228E+01 -0.18113655992E+02  0.18474499064E+02  0.51100000000E-03 0.  1.
         12    1    4    4    0    0 -0.36606368379E+01 -0.27807035032E+02 -0.87358431398E+01  0.29375949596E+02  0.00000000000E+00 0. -1.
</event>
<event>
 8    1  0.1240174E-006  0.9118800E+02  0.7816164E-02  0.1184000E+00
        -11   -1    0    0    0    0  0.00000000000E+00  0.00000000000E+00  0.45593999997E+02  0.45594000000E+02  0.51100000000E-03 0. -1.
         11   -1    0    0    0    0 -0.00000000000E+00 -0.00000000000E+00 -0.45593999997E+02  0.45594000000E+02  0.51100000000E-03 0.  1.
         23    2    1    2    0    0  0.00000000000E+00  0.00000000000E+00 -0.88817841970E-15  0.91188000000E+02  0.91188000000E+02 0.  0.
    9900012    2    3    3    0    0 -0.18085123053E+02  0.31976125093E+02  0.24970214315E+01  0.54367090616E+02  0.40000014678E+02 0.  0.
         12    1    3    3    0    0  0.18085123053E+02 -0.31976125093E+02 -0.24970214315E+01  0.36820909384E+02  0.00000000000E+00 0. -1.
         11    1    4    4    0    0 -0.10905772884E+01 -0.39762028100E+01  0.41977786584E+01  0.58839522036E+01  0.51100000000E-03 0. -1.
        -11    1    4    4    0    0 -0.37244901693E+01  0.19687509707E+02 -0.13729763229E+02  0.24289427001E+02  0.51100000000E-03 0.  1.
        -12    1    4    4    0    0 -0.13270055595E+02  0.16264818196E+02  0.12029006002E+02  0.24193711411E+02  0.00000000000E+00 0.  1.
</event>
<event>
 8    1  0.1240174E-006  0.9118800E+02  0.7816164E-02  0.1184000E+00
        -11   -1    0    0    0    0  0.00000000000E+00  0.00000000000E+00  0.45593999997E+02  0.45594000000E+02  0.51100000000E-03 0. -1.
         11   -1    0    0    0    0 -0.00000000000E+00 -0.00000000000E+00 -0.45593999997E+02  0.45594000000E+02  0.51100000000E-03 0.  1.
         23    2    1    2    0    0 -0.26645352591E-14  0.35527136788E-14  0.00000000000E+00  0.91188000000E+02  0.91188000000E+02 0.  0.
    9900012    2    3    3    0    0 -0.71360158095E+01  0.20077462011E+02 -0.30029196598E+02  0.54367084059E+02  0.39999999728E+02 0.  0.
         12    1    3    3    0    0  0.71360158095E+01 -0.20077462011E+02  0.30029196598E+02  0.36820915941E+02  0.00000000000E+00 0. -1.
         11    1    4    4    0    0 -0.11812573350E+02  0.35092677218E+01 -0.30427137986E+02  0.32827771404E+02  0.51100000000E-03 0. -1.
        -11    1    4    4    0    0  0.23748686474E+01  0.10249924876E+02 -0.61220659000E+01  0.12172947556E+02  0.51100000000E-03 0.  1.
        -12    1    4    4    0    0  0.23016888931E+01  0.63182694132E+01  0.65200072874E+01  0.93663650989E+01  0.00000000000E+00 0.  1.
</event>
<event>
 8    1  0.1240174E-006  0.9118800E+02  0.7816164E-02  0.1184000E+00
        -11   -1    0    0    0    0  0.00000000000E+00  0.00000000000E+00  0.45593999997E+02  0.45594000000E+02  0.51100000000E-03 0.  1.
         11   -1    0    0    0    0 -0.00000000000E+00 -0.00000000000E+00 -0.45593999997E+02  0.45594000000E+02  0.51100000000E-03 0. -1.
         23    2    1    2    0    0  0.00000000000E+00  0.12212453271E-14  0.00000000000E+00  0.91188000000E+02  0.91188000000E+02 0.  0.
    9900012    2    3    3    0    0 -0.39669699677E+01  0.92041697950E+00 -0.36594953801E+02  0.54367154520E+02  0.40000160360E+02 0.  0.
        -12    1    3    3    0    0  0.39669699677E+01 -0.92041697950E+00  0.36594953801E+02  0.36820845480E+02  0.00000000000E+00 0.  1.
         11    1    4    4    0    0  0.96303326954E+00  0.13254519941E+02 -0.17503648851E+01  0.13404234758E+02  0.51100000000E-03 0. -1.
        -11    1    4    4    0    0  0.52839960574E+01 -0.12799939195E+01 -0.43736340414E+01  0.69776553195E+01  0.51100000000E-03 0.  1.
         12    1    4    4    0    0 -0.10213999295E+02 -0.11054109042E+02 -0.30470954875E+02  0.33985264443E+02  0.00000000000E+00 0. -1.
</event>
<event>
 8    1  0.1240174E-006  0.9118800E+02  0.7816164E-02  0.1184000E+00
        -11   -1    0    0    0    0  0.00000000000E+00  0.00000000000E+00  0.45593999997E+02  0.45594000000E+02  0.51100000000E-03 0. -1.
         11   -1    0    0    0    0 -0.00000000000E+00 -0.00000000000E+00 -0.45593999997E+02  0.45594000000E+02  0.51100000000E-03 0.  1.
         23    2    1    2    0    0  0.00000000000E+00 -0.17763568394E-14  0.00000000000E+00  0.91188000000E+02  0.91188000000E+02 0.  0.
    9900012    2    3    3    0    0 -0.33445264594E+02 -0.13041698485E+02  0.81919709010E+01  0.54367081891E+02  0.39999994787E+02 0.  0.
        -12    1    3    3    0    0  0.33445264594E+02  0.13041698485E+02 -0.81919709010E+01  0.36820918109E+02  0.00000000000E+00 0.  1.
         11    1    4    4    0    0 -0.65527976844E+01 -0.96217574207E+01  0.13574322687E+01  0.11720068088E+02  0.51100000000E-03 0. -1.
        -11    1    4    4    0    0  0.26450229260E+01  0.40334532933E+01 -0.75492632627E+01  0.89585862624E+01  0.51100000000E-03 0.  1.
        -12    1    4    4    0    0 -0.29537489836E+02 -0.74533943576E+01  0.14383801895E+02  0.33688427541E+02  0.00000000000E+00 0.  1.
</event>
<event>
 8    1  0.1240174E-006  0.9118800E+02  0.7816164E-02  0.1184000E+00
        -11   -1    0    0    0    0  0.00000000000E+00  0.00000000000E+00  0.45593999997E+02  0.45594000000E+02  0.51100000000E-03 0.  1.
         11   -1    0    0    0    0 -0.00000000000E+00 -0.00000000000E+00 -0.45593999997E+02  0.45594000000E+02  0.51100000000E-03 0. -1.
         23    2    1    2    0    0  0.44408920985E-15  0.00000000000E+00  0.71054273576E-14  0.91188000000E+02  0.91188000000E+02 0.  0.
    9900012    2    3    3    0    0 -0.30058211094E+01  0.93341873496E+01  0.35491096128E+02  0.54367083140E+02  0.39999997635E+02 0.  0.
         12    1    3    3    0    0  0.30058211094E+01 -0.93341873496E+01 -0.35491096128E+02  0.36820916860E+02  0.00000000000E+00 0. -1.
         11    1    4    4    0    0  0.55701170004E+01  0.59760255543E+01  0.27967394705E+01  0.86348617100E+01  0.51100000000E-03 0. -1.
        -11    1    4    4    0    0 -0.13745478061E+02 -0.69058645961E+00  0.35883595367E+02  0.38432375590E+02  0.51100000000E-03 0.  1.
        -12    1    4    4    0    0  0.51695399507E+01  0.40487482549E+01 -0.31892387098E+01  0.72998458396E+01  0.00000000000E+00 0.  1.
</event>
<event>
 8    1  0.1240174E-006  0.9118800E+02  0.7816164E-02  0.1184000E+00
        -11   -1    0    0    0    0  0.00000000000E+00  0.00000000000E+00  0.45593999997E+02  0.45594000000E+02  0.51100000000E-03 0. -1.
         11   -1    0    0    0    0 -0.00000000000E+00 -0.00000000000E+00 -0.45593999997E+02  0.45594000000E+02  0.51100000000E-03 0.  1.
         23    2    1    2    0    0 -0.35527136788E-14  0.00000000000E+00  0.35527136788E-14  0.91188000000E+02  0.91188000000E+02 0.  0.
    9900012    2    3    3    0    0 -0.25908101516E+02  0.13467438055E+02  0.22431585901E+02  0.54367113836E+02  0.40000067611E+02 0.  0.
        -12    1    3    3    0    0  0.25908101516E+02 -0.13467438055E+02 -0.22431585901E+02  0.36820886164E+02  0.00000000000E+00 0.  1.
         11    1    4    4    0    0 -0.69544245250E+01 -0.47520350123E+01 -0.48044225594E+01  0.96968207998E+01  0.51100000000E-03 0. -1.
        -11    1    4    4    0    0  0.96680720820E+00 -0.40817858304E+01  0.82337175563E+01  0.92406599765E+01  0.51100000000E-03 0.  1.
         12    1    4    4    0    0 -0.19920484199E+02  0.22301258897E+02  0.19002290904E+02  0.35429633059E+02  0.00000000000E+00 0. -1.
</event>
<event>
 8    1  0.1240174E-006  0.9118800E+02  0.7816164E-02  0.1184000E+00
        -11   -1    0    0    0    0  0.00000000000E+00  0.00000000000E+00  0.45593999997E+02  0.45594000000E+02  0.51100000000E-03 0.  1.
         11   -1    0    0    0    0 -0.00000000000E+00 -0.00000000000E+00 -0.45593999997E+02  0.45594000000E+02  0.51100000000E-03 0. -1.
         23    2    1    2    0    0  0.35527136788E-14  0.00000000000E+00  0.00000000000E+00  0.91188000000E+02  0.91188000000E+02 0.  0.
    9900012    2    3    3    0    0 -0.31213972916E+02 -0.12484299456E+01 -0.19491247316E+02  0.54367090119E+02  0.40000013544E+02 0.  0.
        -12    1    3    3    0    0  0.31213972916E+02  0.12484299456E+01  0.19491247316E+02  0.36820909881E+02  0.00000000000E+00 0.  1.
         11    1    4    4    0    0 -0.75860741184E+01 -0.42584232644E+01 -0.16109985253E+02  0.18308858903E+02  0.51100000000E-03 0. -1.
        -11    1    4    4    0    0 -0.11585166476E+01 -0.22069873918E+01  0.93737863947E+01  0.96995270918E+01  0.51100000000E-03 0.  1.
        -12    1    4    4    0    0 -0.22469382150E+02  0.52169807105E+01 -0.12755048458E+02  0.26358704124E+02  0.00000000000E+00 0.  1.
</event>
<event>
 8    1  0.1240174E-006  0.9118800E+02  0.7816164E-02  0.1184000E+00
        -11   -1    0    0    0    0  0.00000000000E+00  0.00000000000E+00  0.45593999997E+02  0.45594000000E+02  0.51100000000E-03 0.  1.
         11   -1    0    0    0    0 -0.00000000000E+00 -0.00000000000E+00 -0.45593999997E+02  0.45594000000E+02  0.51100000000E-03 0. -1.
         23    2    1    2    0    0 -0.71054273576E-14 -0.88817841970E-15  0.00000000000E+00  0.91188000000E+02  0.91188000000E+02 0.  0.
    9900012    2    3    3    0    0 -0.35400086549E+02  0.43964681627E+01 -0.91260546727E+01  0.54367082930E+02  0.39999997155E+02 0.  0.
        -12    1    3    3    0    0  0.35400086549E+02 -0.43964681627E+01  0.91260546727E+01  0.36820917070E+02  0.00000000000E+00 0.  1.
         11    1    4    4    0    0 -0.21202219546E+02  0.16086636719E+02 -0.97434781825E+01  0.28341654185E+02  0.51100000000E-03 0. -1.
        -11    1    4    4    0    0 -0.17361748100E+02 -0.42495745607E+01  0.12327282581E+01  0.17916718456E+02  0.51100000000E-03 0.  1.
        -12    1    4    4    0    0  0.31638810963E+01 -0.74405939959E+01 -0.61530474833E+00  0.81087102881E+01  0.00000000000E+00 0.  1.
</event>
<event>
 8    1  0.1240174E-006  0.9118800E+02  0.7816164E-02  0.1184000E+00
        -11   -1    0    0    0    0  0.00000000000E+00  0.00000000000E+00  0.45593999997E+02  0.45594000000E+02  0.51100000000E-03 0.  1.
         11   -1    0    0    0    0 -0.00000000000E+00 -0.00000000000E+00 -0.45593999997E+02  0.45594000000E+02  0.51100000000E-03 0. -1.
         23    2    1    2    0    0 -0.35527136788E-14  0.00000000000E+00  0.00000000000E+00  0.91188000000E+02  0.91188000000E+02 0.  0.
    9900012    2    3    3    0    0  0.17572918941E+02 -0.17555608752E+02 -0.27180378067E+02  0.54367084332E+02  0.40000000352E+02 0.  0.
        -12    1    3    3    0    0 -0.17572918941E+02  0.17555608752E+02  0.27180378067E+02  0.36820915668E+02  0.00000000000E+00 0.  1.
         11    1    4    4    0    0  0.21854655881E+02 -0.19628830165E+02 -0.10224178866E+02  0.31103870998E+02  0.51100000000E-03 0. -1.
        -11    1    4    4    0    0 -0.59780506659E+00  0.21003819148E+01  0.25814585203E+01  0.33812576712E+01  0.51100000000E-03 0.  1.
         12    1    4    4    0    0 -0.36839318736E+01 -0.27160502237E-01 -0.19537657721E+02  0.19881955663E+02  0.00000000000E+00 0. -1.
</event>
<event>
 8    1  0.1240174E-006  0.9118800E+02  0.7816164E-02  0.1184000E+00
        -11   -1    0    0    0    0  0.00000000000E+00  0.00000000000E+00  0.45593999997E+02  0.45594000000E+02  0.51100000000E-03 0.  1.
         11   -1    0    0    0    0 -0.00000000000E+00 -0.00000000000E+00 -0.45593999997E+02  0.45594000000E+02  0.51100000000E-03 0. -1.
         23    2    1    2    0    0 -0.35527136788E-14  0.44408920985E-15  0.00000000000E+00  0.91188000000E+02  0.91188000000E+02 0.  0.
    9900012    2    3    3    0    0 -0.29624571245E+02  0.16006483325E+01  0.21808318549E+02  0.54367081293E+02  0.39999993424E+02 0.  0.
         12    1    3    3    0    0  0.29624571245E+02 -0.16006483325E+01 -0.21808318549E+02  0.36820918707E+02  0.00000000000E+00 0. -1.
         11    1    4    4    0    0 -0.16713152450E+02  0.68998584893E+01 -0.64434955679E+01  0.19195211574E+02  0.51100000000E-03 0. -1.
        -11    1    4    4    0    0 -0.65330326917E+01  0.38959726863E+01  0.19607275820E+02  0.21031033847E+02  0.51100000000E-03 0.  1.
        -12    1    4    4    0    0 -0.63783861030E+01 -0.91951828431E+01  0.86445382966E+01  0.14140835872E+02  0.00000000000E+00 0.  1.
</event>
<event>
 8    1  0.1240174E-006  0.9118800E+02  0.7816164E-02  0.1184000E+00
        -11   -1    0    0    0    0  0.00000000000E+00  0.00000000000E+00  0.45593999997E+02  0.45594000000E+02  0.51100000000E-03 0. -1.
         11   -1    0    0    0    0 -0.00000000000E+00 -0.00000000000E+00 -0.45593999997E+02  0.45594000000E+02  0.51100000000E-03 0.  1.
         23    2    1    2    0    0 -0.35527136788E-14 -0.35527136788E-14  0.17763568394E-14  0.91188000000E+02  0.91188000000E+02 0.  0.
    9900012    2    3    3    0    0  0.24984585500E+02 -0.22633494463E+02 -0.14807978707E+02  0.54367070930E+02  0.39999969800E+02 0.  0.
        -12    1    3    3    0    0 -0.24984585500E+02  0.22633494463E+02  0.14807978707E+02  0.36820929070E+02  0.00000000000E+00 0.  1.
         11    1    4    4    0    0  0.18696490292E+02 -0.10167114259E+02 -0.13135960308E+02  0.25009646440E+02  0.51100000000E-03 0. -1.
        -11    1    4    4    0    0 -0.80925427554E+01 -0.70753466801E+01  0.58698065086E+01  0.12247628652E+02  0.51100000000E-03 0.  1.
        -12    1    4    4    0    0  0.14380637963E+02 -0.53910335233E+01 -0.75418249074E+01  0.17109795838E+02  0.00000000000E+00 0.  1.
</event>
<event>
 8    1  0.1240174E-006  0.9118800E+02  0.7816164E-02  0.1184000E+00
        -11   -1    0    0    0    0  0.00000000000E+00  0.00000000000E+00  0.45593999997E+02  0.45594000000E+02  0.51100000000E-03 0. -1.
         11   -1    0    0    0    0 -0.00000000000E+00 -0.00000000000E+00 -0.45593999997E+02  0.45594000000E+02  0.51100000000E-03 0.  1.
         23    2    1    2    0    0  0.00000000000E+00 -0.88817841970E-15  0.00000000000E+00  0.91188000000E+02  0.91188000000E+02 0.  0.
    9900012    2    3    3    0    0 -0.16477316806E+02 -0.41871302617E+01 -0.32661112837E+02  0.54367050518E+02  0.39999923267E+02 0.  0.
         12    1    3    3    0    0  0.16477316806E+02  0.41871302617E+01  0.32661112837E+02  0.36820949482E+02  0.00000000000E+00 0. -1.
         11    1    4    4    0    0  0.61192495624E+01  0.35142903202E+01  0.74967983331E-01  0.70569874679E+01  0.51100000000E-03 0. -1.
        -11    1    4    4    0    0 -0.14209498256E+02 -0.92608883135E+01 -0.34639914188E+02  0.38569386153E+02  0.51100000000E-03 0.  1.
        -12    1    4    4    0    0 -0.83870681126E+01  0.15594677315E+01  0.19038333672E+01  0.87406768972E+01  0.00000000000E+00 0.  1.
</event>
<event>
 8    1  0.1240174E-006  0.9118800E+02  0.7816164E-02  0.1184000E+00
        -11   -1    0    0    0    0  0.00000000000E+00  0.00000000000E+00  0.45593999997E+02  0.45594000000E+02  0.51100000000E-03 0.  1.
         11   -1    0    0    0    0 -0.00000000000E+00 -0.00000000000E+00 -0.45593999997E+02  0.45594000000E+02  0.51100000000E-03 0. -1.
         23    2    1    2    0    0  0.35527136788E-14 -0.35527136788E-14 -0.53290705182E-14  0.91188000000E+02  0.91188000000E+02 0.  0.
    9900012    2    3    3    0    0  0.22035046785E+02 -0.25149856667E+02 -0.15418129857E+02  0.54367118622E+02  0.40000078522E+02 0.  0.
        -12    1    3    3    0    0 -0.22035046785E+02  0.25149856667E+02  0.15418129857E+02  0.36820881378E+02  0.00000000000E+00 0.  1.
         11    1    4    4    0    0  0.20986038239E+01 -0.22303875685E+02 -0.37024130830E+01  0.22706273835E+02  0.51100000000E-03 0. -1.
        -11    1    4    4    0    0 -0.18530630609E+00 -0.38871495082E+01  0.43897581925E+01  0.58663657383E+01  0.51100000000E-03 0.  1.
         12    1    4    4    0    0  0.20121749267E+02  0.10411685263E+01 -0.16105474966E+02  0.25794479048E+02  0.00000000000E+00 0. -1.
</event>
<event>
 8    1  0.1240174E-006  0.9118800E+02  0.7816164E-02  0.1184000E+00
        -11   -1    0    0    0    0  0.00000000000E+00  0.00000000000E+00  0.45593999997E+02  0.45594000000E+02  0.51100000000E-03 0. -1.
         11   -1    0    0    0    0 -0.00000000000E+00 -0.00000000000E+00 -0.45593999997E+02  0.45594000000E+02  0.51100000000E-03 0.  1.
         23    2    1    2    0    0 -0.71054273576E-14 -0.88817841970E-15  0.00000000000E+00  0.91188000000E+02  0.91188000000E+02 0.  0.
    9900012    2    3    3    0    0 -0.34564695109E+02 -0.53498497108E+01  0.11508237556E+02  0.54367101429E+02  0.40000039328E+02 0.  0.
        -12    1    3    3    0    0  0.34564695109E+02  0.53498497108E+01 -0.11508237556E+02  0.36820898571E+02  0.00000000000E+00 0.  1.
         11    1    4    4    0    0 -0.19732500132E+02  0.94509781384E+01  0.18406950640E+02  0.28592103479E+02  0.51100000000E-03 0. -1.
        -11    1    4    4    0    0 -0.14102307131E+02 -0.58306099391E+01 -0.16314532348E+01  0.15347075245E+02  0.51100000000E-03 0.  1.
        -12    1    4    4    0    0 -0.72988784710E+00 -0.89702179100E+01 -0.52672598489E+01  0.10427922705E+02  0.00000000000E+00 0.  1.
</event>
<event>
 8    1  0.1240174E-006  0.9118800E+02  0.7816164E-02  0.1184000E+00
        -11   -1    0    0    0    0  0.00000000000E+00  0.00000000000E+00  0.45593999997E+02  0.45594000000E+02  0.51100000000E-03 0.  1.
         11   -1    0    0    0    0 -0.00000000000E+00 -0.00000000000E+00 -0.45593999997E+02  0.45594000000E+02  0.51100000000E-03 0. -1.
         23    2    1    2    0    0  0.00000000000E+00  0.35527136788E-14 -0.35527136788E-14  0.91188000000E+02  0.91188000000E+02 0.  0.
    9900012    2    3    3    0    0 -0.20628979652E+02 -0.25751985428E+02  0.16341975622E+02  0.54367085804E+02  0.40000003708E+02 0.  0.
         12    1    3    3    0    0  0.20628979652E+02  0.25751985428E+02 -0.16341975622E+02  0.36820914196E+02  0.00000000000E+00 0. -1.
         11    1    4    4    0    0  0.58855757816E+01  0.23440312165E+01  0.31299517888E+01  0.70661929698E+01  0.51100000000E-03 0. -1.
        -11    1    4    4    0    0 -0.14268677369E+02 -0.22408566401E+02  0.18948109121E+02  0.32630811230E+02  0.51100000000E-03 0.  1.
        -12    1    4    4    0    0 -0.12245878065E+02 -0.56874502441E+01 -0.57360852880E+01  0.14670081605E+02  0.00000000000E+00 0.  1.
</event>
<event>
 8    1  0.1240174E-006  0.9118800E+02  0.7816164E-02  0.1184000E+00
        -11   -1    0    0    0    0  0.00000000000E+00  0.00000000000E+00  0.45593999997E+02  0.45594000000E+02  0.51100000000E-03 0.  1.
         11   -1    0    0    0    0 -0.00000000000E+00 -0.00000000000E+00 -0.45593999997E+02  0.45594000000E+02  0.51100000000E-03 0. -1.
         23    2    1    2    0    0  0.17763568394E-14  0.00000000000E+00  0.00000000000E+00  0.91188000000E+02  0.91188000000E+02 0.  0.
    9900012    2    3    3    0    0  0.13509710869E+02  0.15285127428E+02  0.30653426915E+02  0.54367082170E+02  0.39999995422E+02 0.  0.
         12    1    3    3    0    0 -0.13509710869E+02 -0.15285127428E+02 -0.30653426915E+02  0.36820917830E+02  0.00000000000E+00 0. -1.
         11    1    4    4    0    0  0.15170079094E+02  0.40638578107E+01  0.21190822365E+02  0.26376072353E+02  0.51100000000E-03 0. -1.
        -11    1    4    4    0    0 -0.39419780514E+01  0.59219984587E+01  0.17040988973E+02  0.18466308840E+02  0.51100000000E-03 0.  1.
         12    1    4    4    0    0  0.22816098264E+01  0.52992711589E+01 -0.75783844239E+01  0.95247009765E+01  0.00000000000E+00 0. -1.
</event>
<event>
 8    1  0.1240174E-006  0.9118800E+02  0.7816164E-02  0.1184000E+00
        -11   -1    0    0    0    0  0.00000000000E+00  0.00000000000E+00  0.45593999997E+02  0.45594000000E+02  0.51100000000E-03 0.  1.
         11   -1    0    0    0    0 -0.00000000000E+00 -0.00000000000E+00 -0.45593999997E+02  0.45594000000E+02  0.51100000000E-03 0. -1.
         23    2    1    2    0    0  0.35527136788E-14  0.00000000000E+00 -0.35527136788E-14  0.91188000000E+02  0.91188000000E+02 0.  0.
    9900012    2    3    3    0    0  0.28132948939E+02  0.81379044844E+01 -0.22317938206E+02  0.54367100077E+02  0.40000036245E+02 0.  0.
        -12    1    3    3    0    0 -0.28132948939E+02 -0.81379044844E+01  0.22317938206E+02  0.36820899923E+02  0.00000000000E+00 0.  1.
         11    1    4    4    0    0  0.11174190747E+02  0.22791708155E+01 -0.88843560183E+01  0.14456449791E+02  0.51100000000E-03 0. -1.
        -11    1    4    4    0    0  0.17303888792E+02  0.86628544258E+01  0.60098918973E+01  0.20262981395E+02  0.51100000000E-03 0.  1.
         12    1    4    4    0    0 -0.34513059957E+00 -0.28041207569E+01 -0.19443474085E+02  0.19647668891E+02  0.00000000000E+00 0. -1.
</event>
<event>
 8    1  0.1240174E-006  0.9118800E+02  0.7816164E-02  0.1184000E+00
        -11   -1    0    0    0    0  0.00000000000E+00  0.00000000000E+00  0.45593999997E+02  0.45594000000E+02  0.51100000000E-03 0.  1.
         11   -1    0    0    0    0 -0.00000000000E+00 -0.00000000000E+00 -0.45593999997E+02  0.45594000000E+02  0.51100000000E-03 0. -1.
         23    2    1    2    0    0  0.44408920985E-15  0.00000000000E+00  0.17763568394E-14  0.91188000000E+02  0.91188000000E+02 0.  0.
    9900012    2    3    3    0    0 -0.36600402757E+01 -0.35291578998E+02 -0.98431458167E+01  0.54367096119E+02  0.40000027224E+02 0.  0.
        -12    1    3    3    0    0  0.36600402757E+01  0.35291578998E+02  0.98431458167E+01  0.36820903881E+02  0.00000000000E+00 0.  1.
         11    1    4    4    0    0 -0.12385476156E+02 -0.94669846512E+01 -0.11132468204E+02  0.19156086933E+02  0.51100000000E-03 0. -1.
        -11    1    4    4    0    0  0.12701511563E+02 -0.52941519106E+01  0.34534362772E+01  0.14187412125E+02  0.51100000000E-03 0.  1.
        -12    1    4    4    0    0 -0.39760756821E+01 -0.20530442436E+02 -0.21641138897E+01  0.21023597061E+02  0.00000000000E+00 0.  1.
</event>
<event>
 8    1  0.1240174E-006  0.9118800E+02  0.7816164E-02  0.1184000E+00
        -11   -1    0    0    0    0  0.00000000000E+00  0.00000000000E+00  0.45593999997E+02  0.45594000000E+02  0.51100000000E-03 0.  1.
         11   -1    0    0    0    0 -0.00000000000E+00 -0.00000000000E+00 -0.45593999997E+02  0.45594000000E+02  0.51100000000E-03 0. -1.
         23    2    1    2    0    0  0.00000000000E+00  0.00000000000E+00 -0.35527136788E-14  0.91188000000E+02  0.91188000000E+02 0.  0.
    9900012    2    3    3    0    0  0.33077068162E+02  0.93509165547E+01  0.13200286629E+02  0.54367086843E+02  0.40000006075E+02 0.  0.
         12    1    3    3    0    0 -0.33077068162E+02 -0.93509165547E+01 -0.13200286629E+02  0.36820913157E+02  0.00000000000E+00 0. -1.
         11    1    4    4    0    0  0.17633373506E+01 -0.26105973000E+01 -0.18331348124E+01  0.36448539581E+01  0.51100000000E-03 0. -1.
        -11    1    4    4    0    0  0.11013005187E+02  0.13349611421E+02 -0.87746131664E+01  0.19403408072E+02  0.51100000000E-03 0.  1.
        -12    1    4    4    0    0  0.20300725625E+02 -0.13880975658E+01  0.23808034608E+02  0.31318824813E+02  0.00000000000E+00 0.  1.
</event>
<event>
 8    1  0.1240174E-006  0.9118800E+02  0.7816164E-02  0.1184000E+00
        -11   -1    0    0    0    0  0.00000000000E+00  0.00000000000E+00  0.45593999997E+02  0.45594000000E+02  0.51100000000E-03 0. -1.
         11   -1    0    0    0    0 -0.00000000000E+00 -0.00000000000E+00 -0.45593999997E+02  0.45594000000E+02  0.51100000000E-03 0.  1.
         23    2    1    2    0    0 -0.88817841970E-15  0.00000000000E+00  0.00000000000E+00  0.91188000000E+02  0.91188000000E+02 0.  0.
    9900012    2    3    3    0    0 -0.53181475540E+01 -0.18097033454E+02 -0.31622698959E+02  0.54367076564E+02  0.39999982643E+02 0.  0.
         12    1    3    3    0    0  0.53181475540E+01  0.18097033454E+02  0.31622698959E+02  0.36820923436E+02  0.00000000000E+00 0. -1.
         11    1    4    4    0    0  0.10982604890E+02 -0.12813892091E+02 -0.43533125936E+01  0.17428848828E+02  0.51100000000E-03 0. -1.
        -11    1    4    4    0    0 -0.35673462865E+01 -0.58709090045E+01 -0.22168526184E+02  0.23208556299E+02  0.51100000000E-03 0.  1.
         12    1    4    4    0    0 -0.12733406157E+02  0.58776764158E+00 -0.51008601816E+01  0.13729671437E+02  0.00000000000E+00 0. -1.
</event>
<event>
 8    1  0.1240174E-006  0.9118800E+02  0.7816164E-02  0.1184000E+00
        -11   -1    0    0    0    0  0.00000000000E+00  0.00000000000E+00  0.45593999997E+02  0.45594000000E+02  0.51100000000E-03 0.  1.
         11   -1    0    0    0    0 -0.00000000000E+00 -0.00000000000E+00 -0.45593999997E+02  0.45594000000E+02  0.51100000000E-03 0. -1.
         23    2    1    2    0    0  0.00000000000E+00  0.00000000000E+00 -0.71054273576E-14  0.91188000000E+02  0.91188000000E+02 0.  0.
    9900012    2    3    3    0    0 -0.26921568332E+02 -0.65240712768E+01 -0.24257873071E+02  0.54367098960E+02  0.40000033700E+02 0.  0.
        -12    1    3    3    0    0  0.26921568332E+02  0.65240712768E+01  0.24257873071E+02  0.36820901040E+02  0.00000000000E+00 0.  1.
         11    1    4    4    0    0 -0.16932324948E+02 -0.35007750315E+01  0.33810903411E+01  0.17617912082E+02  0.51100000000E-03 0.  1.
        -11    1    4    4    0    0 -0.89885641533E+01 -0.10220058163E+02 -0.79497604593E+01  0.15762060970E+02  0.51100000000E-03 0. -1.
        -12    1    4    4    0    0 -0.10006792303E+01  0.71967619177E+01 -0.19689202952E+02  0.20987125909E+02  0.00000000000E+00 0.  1.
</event>
<event>
 8    1  0.1240174E-006  0.9118800E+02  0.7816164E-02  0.1184000E+00
        -11   -1    0    0    0    0  0.00000000000E+00  0.00000000000E+00  0.45593999997E+02  0.45594000000E+02  0.51100000000E-03 0.  1.
         11   -1    0    0    0    0 -0.00000000000E+00 -0.00000000000E+00 -0.45593999997E+02  0.45594000000E+02  0.51100000000E-03 0. -1.
         23    2    1    2    0    0  0.71054273576E-14  0.22204460493E-15  0.00000000000E+00  0.91188000000E+02  0.91188000000E+02 0.  0.
    9900012    2    3    3    0    0 -0.36114438959E+02 -0.14142613831E+01 -0.70374979565E+01  0.54367092705E+02  0.40000019439E+02 0.  0.
         12    1    3    3    0    0  0.36114438959E+02  0.14142613831E+01  0.70374979565E+01  0.36820907295E+02  0.00000000000E+00 0. -1.
         11    1    4    4    0    0 -0.16388409410E+02 -0.12062580585E+02  0.41246781518E+01  0.20762918472E+02  0.51100000000E-03 0. -1.
        -11    1    4    4    0    0  0.49451208733E+01  0.13128204853E+01 -0.32635328991E+01  0.60686378474E+01  0.51100000000E-03 0.  1.
        -12    1    4    4    0    0 -0.24671150422E+02  0.93354987170E+01 -0.78986432092E+01  0.27535536385E+02  0.00000000000E+00 0.  1.
</event>
<event>
 8    1  0.1240174E-006  0.9118800E+02  0.7816164E-02  0.1184000E+00
        -11   -1    0    0    0    0  0.00000000000E+00  0.00000000000E+00  0.45593999997E+02  0.45594000000E+02  0.51100000000E-03 0.  1.
         11   -1    0    0    0    0 -0.00000000000E+00 -0.00000000000E+00 -0.45593999997E+02  0.45594000000E+02  0.51100000000E-03 0. -1.
         23    2    1    2    0    0 -0.35527136788E-14  0.00000000000E+00  0.00000000000E+00  0.91188000000E+02  0.91188000000E+02 0.  0.
    9900012    2    3    3    0    0 -0.16019684334E+02 -0.20150899820E+02  0.26326629178E+02  0.54367075872E+02  0.39999981066E+02 0.  0.
         12    1    3    3    0    0  0.16019684334E+02  0.20150899820E+02 -0.26326629178E+02  0.36820924128E+02  0.00000000000E+00 0. -1.
         11    1    4    4    0    0  0.20788710103E+01 -0.40593961250E+01  0.41822833080E+01  0.61880445625E+01  0.51100000000E-03 0. -1.
        -11    1    4    4    0    0 -0.57048525726E+01 -0.18730569451E+02  0.28042700144E+02  0.34201938636E+02  0.51100000000E-03 0.  1.
        -12    1    4    4    0    0 -0.12393702772E+02  0.26390657567E+01 -0.58983542735E+01  0.13977092674E+02  0.00000000000E+00 0.  1.
</event>
<event>
 8    1  0.1240174E-006  0.9118800E+02  0.7816164E-02  0.1184000E+00
        -11   -1    0    0    0    0  0.00000000000E+00  0.00000000000E+00  0.45593999997E+02  0.45594000000E+02  0.51100000000E-03 0. -1.
         11   -1    0    0    0    0 -0.00000000000E+00 -0.00000000000E+00 -0.45593999997E+02  0.45594000000E+02  0.51100000000E-03 0.  1.
         23    2    1    2    0    0  0.00000000000E+00  0.71054273576E-14  0.00000000000E+00  0.91188000000E+02  0.91188000000E+02 0.  0.
    9900012    2    3    3    0    0 -0.16682241044E+02  0.32793310912E+02  0.14430062732E+01  0.54367072881E+02  0.39999974247E+02 0.  0.
        -12    1    3    3    0    0  0.16682241044E+02 -0.32793310912E+02 -0.14430062732E+01  0.36820927119E+02  0.00000000000E+00 0.  1.
         11    1    4    4    0    0 -0.10490062007E+02  0.59046073951E+01 -0.20281115650E+00  0.12039390435E+02  0.51100000000E-03 0. -1.
        -11    1    4    4    0    0  0.11261208252E+02  0.20452866035E+02  0.35965899070E+01  0.23623505234E+02  0.51100000000E-03 0.  1.
        -12    1    4    4    0    0 -0.17453387288E+02  0.64358374816E+01 -0.19507724773E+01  0.18704177212E+02  0.00000000000E+00 0.  1.
</event>
<event>
 8    1  0.1240174E-006  0.9118800E+02  0.7816164E-02  0.1184000E+00
        -11   -1    0    0    0    0  0.00000000000E+00  0.00000000000E+00  0.45593999997E+02  0.45594000000E+02  0.51100000000E-03 0. -1.
         11   -1    0    0    0    0 -0.00000000000E+00 -0.00000000000E+00 -0.45593999997E+02  0.45594000000E+02  0.51100000000E-03 0.  1.
         23    2    1    2    0    0  0.00000000000E+00 -0.53290705182E-14  0.17763568394E-14  0.91188000000E+02  0.91188000000E+02 0.  0.
    9900012    2    3    3    0    0  0.32427981135E+02 -0.13667864458E+02 -0.10834931171E+02  0.54367079142E+02  0.39999988521E+02 0.  0.
         12    1    3    3    0    0 -0.32427981135E+02  0.13667864458E+02  0.10834931171E+02  0.36820920858E+02  0.00000000000E+00 0. -1.
         11    1    4    4    0    0  0.81239444321E+01  0.85366521335E+01  0.19646858768E+01  0.11947087245E+02  0.51100000000E-03 0. -1.
        -11    1    4    4    0    0  0.12031216849E+02 -0.44323217743E+01  0.56531610626E+01  0.14012633066E+02  0.51100000000E-03 0.  1.
        -12    1    4    4    0    0  0.12272819854E+02 -0.17772194817E+02 -0.18452778111E+02  0.28407358832E+02  0.00000000000E+00 0.  1.
</event>
<event>
 8    1  0.1240174E-006  0.9118800E+02  0.7816164E-02  0.1184000E+00
        -11   -1    0    0    0    0  0.00000000000E+00  0.00000000000E+00  0.45593999997E+02  0.45594000000E+02  0.51100000000E-03 0.  1.
         11   -1    0    0    0    0 -0.00000000000E+00 -0.00000000000E+00 -0.45593999997E+02  0.45594000000E+02  0.51100000000E-03 0. -1.
         23    2    1    2    0    0  0.44408920985E-15 -0.88817841970E-15  0.00000000000E+00  0.91188000000E+02  0.91188000000E+02 0.  0.
    9900012    2    3    3    0    0  0.26369122200E+01  0.69671973944E+01 -0.36059464826E+02  0.54367080007E+02  0.39999990491E+02 0.  0.
        -12    1    3    3    0    0 -0.26369122200E+01 -0.69671973944E+01  0.36059464826E+02  0.36820919993E+02  0.00000000000E+00 0.  1.
         11    1    4    4    0    0 -0.10438206343E+02 -0.55797818536E+01 -0.71564277662E+01  0.13831289738E+02  0.51100000000E-03 0. -1.
        -11    1    4    4    0    0 -0.47504279720E+01  0.90483595810E+01 -0.94370444048E+01  0.13910326538E+02  0.51100000000E-03 0.  1.
        -12    1    4    4    0    0  0.17825546535E+02  0.34986196669E+01 -0.19465992655E+02  0.26625463731E+02  0.00000000000E+00 0.  1.
</event>
<event>
 8    1  0.1240174E-006  0.9118800E+02  0.7816164E-02  0.1184000E+00
        -11   -1    0    0    0    0  0.00000000000E+00  0.00000000000E+00  0.45593999997E+02  0.45594000000E+02  0.51100000000E-03 0. -1.
         11   -1    0    0    0    0 -0.00000000000E+00 -0.00000000000E+00 -0.45593999997E+02  0.45594000000E+02  0.51100000000E-03 0.  1.
         23    2    1    2    0    0  0.00000000000E+00  0.00000000000E+00  0.00000000000E+00  0.91188000000E+02  0.91188000000E+02 0.  0.
    9900012    2    3    3    0    0 -0.15549774596E+02  0.32910854757E+02  0.55550663586E+01  0.54367100866E+02  0.40000038044E+02 0.  0.
         12    1    3    3    0    0  0.15549774596E+02 -0.32910854757E+02 -0.55550663586E+01  0.36820899134E+02  0.00000000000E+00 0. -1.
         11    1    4    4    0    0  0.18910646445E+01  0.33316426654E+01  0.56317201005E+01  0.68111849109E+01  0.51100000000E-03 0. -1.
        -11    1    4    4    0    0 -0.87121217543E+01  0.35589273651E+02  0.22379640063E+01  0.36708390697E+02  0.51100000000E-03 0.  1.
        -12    1    4    4    0    0 -0.87287174859E+01 -0.60100615594E+01 -0.23146177482E+01  0.10847525258E+02  0.00000000000E+00 0.  1.
</event>
<event>
 8    1  0.1240174E-006  0.9118800E+02  0.7816164E-02  0.1184000E+00
        -11   -1    0    0    0    0  0.00000000000E+00  0.00000000000E+00  0.45593999997E+02  0.45594000000E+02  0.51100000000E-03 0.  1.
         11   -1    0    0    0    0 -0.00000000000E+00 -0.00000000000E+00 -0.45593999997E+02  0.45594000000E+02  0.51100000000E-03 0. -1.
         23    2    1    2    0    0  0.22204460493E-15  0.00000000000E+00  0.35527136788E-14  0.91188000000E+02  0.91188000000E+02 0.  0.
    9900012    2    3    3    0    0  0.11107180807E+01  0.26264368581E+02  0.25782333576E+02  0.54367089145E+02  0.40000011323E+02 0.  0.
         12    1    3    3    0    0 -0.11107180807E+01 -0.26264368581E+02 -0.25782333576E+02  0.36820910855E+02  0.00000000000E+00 0. -1.
         11    1    4    4    0    0 -0.89934178005E+01 -0.18112130896E+01  0.15446195053E+02  0.17965160685E+02  0.51100000000E-03 0. -1.
        -11    1    4    4    0    0  0.13437647456E+01  0.23298628395E+02  0.12070605631E+02  0.26274156682E+02  0.51100000000E-03 0.  1.
         12    1    4    4    0    0  0.87603711356E+01  0.47769532754E+01 -0.17344671080E+01  0.10127771777E+02  0.00000000000E+00 0. -1.
</event>
<event>
 8    1  0.1240174E-006  0.9118800E+02  0.7816164E-02  0.1184000E+00
        -11   -1    0    0    0    0  0.00000000000E+00  0.00000000000E+00  0.45593999997E+02  0.45594000000E+02  0.51100000000E-03 0.  1.
         11   -1    0    0    0    0 -0.00000000000E+00 -0.00000000000E+00 -0.45593999997E+02  0.45594000000E+02  0.51100000000E-03 0. -1.
         23    2    1    2    0    0  0.17763568394E-14  0.00000000000E+00  0.00000000000E+00  0.91188000000E+02  0.91188000000E+02 0.  0.
    9900012    2    3    3    0    0 -0.30972917530E+01 -0.71187156883E+01  0.35993160639E+02  0.54367123557E+02  0.40000089772E+02 0.  0.
         12    1    3    3    0    0  0.30972917530E+01  0.71187156883E+01 -0.35993160639E+02  0.36820876443E+02  0.00000000000E+00 0. -1.
         11    1    4    4    0    0 -0.16904003896E+02 -0.27522013345E+01  0.29577966108E+02  0.34178590364E+02  0.51100000000E-03 0. -1.
        -11    1    4    4    0    0  0.11020999757E+02  0.25899788480E+01  0.56594042567E+01  0.12656985536E+02  0.51100000000E-03 0.  1.
         12    1    4    4    0    0  0.27857123861E+01 -0.69564932018E+01  0.75579027403E+00  0.75315476566E+01  0.00000000000E+00 0. -1.
</event>
<event>
 8    1  0.1240174E-006  0.9118800E+02  0.7816164E-02  0.1184000E+00
        -11   -1    0    0    0    0  0.00000000000E+00  0.00000000000E+00  0.45593999997E+02  0.45594000000E+02  0.51100000000E-03 0. -1.
         11   -1    0    0    0    0 -0.00000000000E+00 -0.00000000000E+00 -0.45593999997E+02  0.45594000000E+02  0.51100000000E-03 0.  1.
         23    2    1    2    0    0  0.00000000000E+00  0.35527136788E-14  0.35527136788E-14  0.91188000000E+02  0.91188000000E+02 0.  0.
    9900012    2    3    3    0    0 -0.99756453252E+01  0.22689671727E+02 -0.27229455261E+02  0.54367110052E+02  0.40000058986E+02 0.  0.
         12    1    3    3    0    0  0.99756453252E+01 -0.22689671727E+02  0.27229455261E+02  0.36820889948E+02  0.00000000000E+00 0. -1.
         11    1    4    4    0    0 -0.19132003305E+01  0.27286653990E+02 -0.60472179209E+01  0.28014115484E+02  0.51100000000E-03 0. -1.
        -11    1    4    4    0    0  0.34057319955E+01 -0.31982246277E+00 -0.41289442155E+01  0.53618539171E+01  0.51100000000E-03 0.  1.
        -12    1    4    4    0    0 -0.11468176990E+02 -0.42771598004E+01 -0.17053293125E+02  0.20991140651E+02  0.00000000000E+00 0.  1.
</event>
<event>
 8    1  0.1240174E-006  0.9118800E+02  0.7816164E-02  0.1184000E+00
        -11   -1    0    0    0    0  0.00000000000E+00  0.00000000000E+00  0.45593999997E+02  0.45594000000E+02  0.51100000000E-03 0. -1.
         11   -1    0    0    0    0 -0.00000000000E+00 -0.00000000000E+00 -0.45593999997E+02  0.45594000000E+02  0.51100000000E-03 0.  1.
         23    2    1    2    0    0  0.00000000000E+00  0.35527136788E-14 -0.71054273576E-14  0.91188000000E+02  0.91188000000E+02 0.  0.
    9900012    2    3    3    0    0 -0.23622361981E+01 -0.16751828453E+02  0.32704396719E+02  0.54367061919E+02  0.39999949258E+02 0.  0.
        -12    1    3    3    0    0  0.23622361981E+01  0.16751828453E+02 -0.32704396719E+02  0.36820938081E+02  0.00000000000E+00 0.  1.
         11    1    4    4    0    0  0.11683273486E+02 -0.12910567190E+02 -0.10205209986E+01  0.17441992085E+02  0.51100000000E-03 0.  1.
        -11    1    4    4    0    0 -0.37110158783E+01 -0.97231532246E-01  0.12256385279E+02  0.12806251332E+02  0.51100000000E-03 0. -1.
        -12    1    4    4    0    0 -0.10334493806E+02 -0.37440297308E+01  0.21468532439E+02  0.24118818502E+02  0.00000000000E+00 0.  1.
</event>
<event>
 8    1  0.1240174E-006  0.9118800E+02  0.7816164E-02  0.1184000E+00
        -11   -1    0    0    0    0  0.00000000000E+00  0.00000000000E+00  0.45593999997E+02  0.45594000000E+02  0.51100000000E-03 0. -1.
         11   -1    0    0    0    0 -0.00000000000E+00 -0.00000000000E+00 -0.45593999997E+02  0.45594000000E+02  0.51100000000E-03 0.  1.
         23    2    1    2    0    0  0.00000000000E+00 -0.35527136788E-14  0.00000000000E+00  0.91188000000E+02  0.91188000000E+02 0.  0.
    9900012    2    3    3    0    0  0.25562209713E+02  0.23881601834E+02 -0.11490016356E+02  0.54367109905E+02  0.40000058650E+02 0.  0.
        -12    1    3    3    0    0 -0.25562209713E+02 -0.23881601834E+02  0.11490016356E+02  0.36820890095E+02  0.00000000000E+00 0.  1.
         11    1    4    4    0    0  0.39475479983E+01  0.11201968105E+02 -0.15242769019E+01  0.11974583289E+02  0.51100000000E-03 0. -1.
        -11    1    4    4    0    0  0.10717963273E+02  0.12472521417E+02 -0.21140149443E+02  0.26783286691E+02  0.51100000000E-03 0.  1.
        -12    1    4    4    0    0  0.10896698441E+02  0.20711231147E+00  0.11174409989E+02  0.15609239925E+02  0.00000000000E+00 0.  1.
</event>
<event>
 8    1  0.1240174E-006  0.9118800E+02  0.7816164E-02  0.1184000E+00
        -11   -1    0    0    0    0  0.00000000000E+00  0.00000000000E+00  0.45593999997E+02  0.45594000000E+02  0.51100000000E-03 0.  1.
         11   -1    0    0    0    0 -0.00000000000E+00 -0.00000000000E+00 -0.45593999997E+02  0.45594000000E+02  0.51100000000E-03 0. -1.
         23    2    1    2    0    0 -0.17763568394E-14  0.00000000000E+00  0.00000000000E+00  0.91188000000E+02  0.91188000000E+02 0.  0.
    9900012    2    3    3    0    0 -0.13212278453E+02 -0.33878574574E+02 -0.57841732602E+01  0.54367098634E+02  0.40000032956E+02 0.  0.
        -12    1    3    3    0    0  0.13212278453E+02  0.33878574574E+02  0.57841732602E+01  0.36820901366E+02  0.00000000000E+00 0.  1.
         11    1    4    4    0    0 -0.14566403018E+02 -0.16909549663E+02  0.15490568741E+01  0.22372137675E+02  0.51100000000E-03 0. -1.
        -11    1    4    4    0    0  0.55254185483E+01 -0.18065433039E+02 -0.14373996110E+02  0.23738194654E+02  0.51100000000E-03 0.  1.
        -12    1    4    4    0    0 -0.41712939840E+01  0.10964081285E+01  0.70407659756E+01  0.82567663046E+01  0.00000000000E+00 0.  1.
</event>
<event>
 8    1  0.1240174E-006  0.9118800E+02  0.7816164E-02  0.1184000E+00
        -11   -1    0    0    0    0  0.00000000000E+00  0.00000000000E+00  0.45593999997E+02  0.45594000000E+02  0.51100000000E-03 0.  1.
         11   -1    0    0    0    0 -0.00000000000E+00 -0.00000000000E+00 -0.45593999997E+02  0.45594000000E+02  0.51100000000E-03 0. -1.
         23    2    1    2    0    0  0.44408920985E-15  0.00000000000E+00  0.00000000000E+00  0.91188000000E+02  0.91188000000E+02 0.  0.
    9900012    2    3    3    0    0 -0.34833291476E+01  0.35009594247E+02  0.10861816299E+02  0.54367023307E+02  0.39999861234E+02 0.  0.
         12    1    3    3    0    0  0.34833291476E+01 -0.35009594247E+02 -0.10861816299E+02  0.36820976693E+02  0.00000000000E+00 0. -1.
         11    1    4    4    0    0 -0.43311219839E+01  0.12374088020E+02 -0.10976977037E+02  0.17098850754E+02  0.51100000000E-03 0. -1.
        -11    1    4    4    0    0 -0.35851267287E+01  0.20024724648E+02  0.69210077064E+01  0.21488207902E+02  0.51100000000E-03 0.  1.
         12    1    4    4    0    0  0.44329195650E+01  0.26107815783E+01  0.14917785630E+02  0.15779964652E+02  0.00000000000E+00 0. -1.
</event>
<event>
 8    1  0.1240174E-006  0.9118800E+02  0.7816164E-02  0.1184000E+00
        -11   -1    0    0    0    0  0.00000000000E+00  0.00000000000E+00  0.45593999997E+02  0.45594000000E+02  0.51100000000E-03 0. -1.
         11   -1    0    0    0    0 -0.00000000000E+00 -0.00000000000E+00 -0.45593999997E+02  0.45594000000E+02  0.51100000000E-03 0.  1.
         23    2    1    2    0    0  0.00000000000E+00  0.00000000000E+00  0.88817841970E-15  0.91188000000E+02  0.91188000000E+02 0.  0.
    9900012    2    3    3    0    0 -0.26004833402E+02  0.25670062518E+02 -0.45365566642E+01  0.54367030209E+02  0.39999876968E+02 0.  0.
         12    1    3    3    0    0  0.26004833402E+02 -0.25670062518E+02  0.45365566642E+01  0.36820969791E+02  0.00000000000E+00 0. -1.
         11    1    4    4    0    0  0.36628081047E+01  0.11206016847E+02  0.11733326413E+02  0.16633157420E+02  0.51100000000E-03 0. -1.
        -11    1    4    4    0    0 -0.87478319798E+01  0.85267950974E+01 -0.71354969250E+01  0.14147300647E+02  0.51100000000E-03 0.  1.
        -12    1    4    4    0    0 -0.20919809527E+02  0.59372505737E+01 -0.91343861522E+01  0.23586572142E+02  0.00000000000E+00 0.  1.
</event>
<event>
 8    1  0.1240174E-006  0.9118800E+02  0.7816164E-02  0.1184000E+00
        -11   -1    0    0    0    0  0.00000000000E+00  0.00000000000E+00  0.45593999997E+02  0.45594000000E+02  0.51100000000E-03 0. -1.
         11   -1    0    0    0    0 -0.00000000000E+00 -0.00000000000E+00 -0.45593999997E+02  0.45594000000E+02  0.51100000000E-03 0.  1.
         23    2    1    2    0    0 -0.17763568394E-14  0.00000000000E+00  0.71054273576E-14  0.91188000000E+02  0.91188000000E+02 0.  0.
    9900012    2    3    3    0    0 -0.83082153093E+01  0.13448848454E+02 -0.33254800601E+02  0.54367085707E+02  0.40000003486E+02 0.  0.
         12    1    3    3    0    0  0.83082153093E+01 -0.13448848454E+02  0.33254800601E+02  0.36820914293E+02  0.00000000000E+00 0. -1.
         11    1    4    4    0    0 -0.53055997405E+01  0.21972501378E+01  0.60032432856E+00  0.57738796606E+01  0.51100000000E-03 0. -1.
        -11    1    4    4    0    0 -0.17309675499E+02  0.10437595492E+02 -0.22972936117E+02  0.30599412734E+02  0.51100000000E-03 0.  1.
        -12    1    4    4    0    0  0.14307059930E+02  0.81400282465E+00 -0.10882188812E+02  0.17993793313E+02  0.00000000000E+00 0.  1.
</event>
<event>
 8    1  0.1240174E-006  0.9118800E+02  0.7816164E-02  0.1184000E+00
        -11   -1    0    0    0    0  0.00000000000E+00  0.00000000000E+00  0.45593999997E+02  0.45594000000E+02  0.51100000000E-03 0. -1.
         11   -1    0    0    0    0 -0.00000000000E+00 -0.00000000000E+00 -0.45593999997E+02  0.45594000000E+02  0.51100000000E-03 0.  1.
         23    2    1    2    0    0  0.00000000000E+00  0.00000000000E+00  0.35527136788E-14  0.91188000000E+02  0.91188000000E+02 0.  0.
    9900012    2    3    3    0    0 -0.24447883651E+02  0.22000863066E+02 -0.16554266434E+02  0.54367072148E+02  0.39999972577E+02 0.  0.
         12    1    3    3    0    0  0.24447883651E+02 -0.22000863066E+02  0.16554266434E+02  0.36820927852E+02  0.00000000000E+00 0. -1.
         11    1    4    4    0    0  0.51382835759E+01  0.59245420829E+01  0.32264688946E+01  0.84801095976E+01  0.51100000000E-03 0. -1.
        -11    1    4    4    0    0 -0.88596308628E+01  0.20354376195E+01  0.52398984163E+01  0.10492502133E+02  0.51100000000E-03 0.  1.
        -12    1    4    4    0    0 -0.20726536364E+02  0.14040883364E+02 -0.25020633745E+02  0.35394460418E+02  0.00000000000E+00 0.  1.
</event>
<event>
 8    1  0.1240174E-006  0.9118800E+02  0.7816164E-02  0.1184000E+00
        -11   -1    0    0    0    0  0.00000000000E+00  0.00000000000E+00  0.45593999997E+02  0.45594000000E+02  0.51100000000E-03 0.  1.
         11   -1    0    0    0    0 -0.00000000000E+00 -0.00000000000E+00 -0.45593999997E+02  0.45594000000E+02  0.51100000000E-03 0. -1.
         23    2    1    2    0    0  0.17763568394E-14 -0.44408920985E-15  0.00000000000E+00  0.91188000000E+02  0.91188000000E+02 0.  0.
    9900012    2    3    3    0    0  0.14178080911E+02 -0.34395970239E+01 -0.33807263757E+02  0.54367083543E+02  0.39999998553E+02 0.  0.
        -12    1    3    3    0    0 -0.14178080911E+02  0.34395970239E+01  0.33807263757E+02  0.36820916457E+02  0.00000000000E+00 0.  1.
         11    1    4    4    0    0 -0.24846804478E+01 -0.99975139736E+01 -0.16693878008E+02  0.19616561518E+02  0.51100000000E-03 0. -1.
        -11    1    4    4    0    0  0.58345986236E+01 -0.64958305578E+01  0.22430064702E+01  0.90149561297E+01  0.51100000000E-03 0.  1.
        -12    1    4    4    0    0  0.10828162735E+02  0.13053747507E+02 -0.19356392219E+02  0.25735565895E+02  0.00000000000E+00 0.  1.
</event>
<event>
 8    1  0.1240174E-006  0.9118800E+02  0.7816164E-02  0.1184000E+00
        -11   -1    0    0    0    0  0.00000000000E+00  0.00000000000E+00  0.45593999997E+02  0.45594000000E+02  0.51100000000E-03 0.  1.
         11   -1    0    0    0    0 -0.00000000000E+00 -0.00000000000E+00 -0.45593999997E+02  0.45594000000E+02  0.51100000000E-03 0. -1.
         23    2    1    2    0    0 -0.35527136788E-14  0.66613381478E-15 -0.71054273576E-14  0.91188000000E+02  0.91188000000E+02 0.  0.
    9900012    2    3    3    0    0  0.10559655449E+02  0.16491709634E+01  0.35235697810E+02  0.54367075402E+02  0.39999979995E+02 0.  0.
         12    1    3    3    0    0 -0.10559655449E+02 -0.16491709634E+01 -0.35235697810E+02  0.36820924598E+02  0.00000000000E+00 0. -1.
         11    1    4    4    0    0  0.47798498465E+00  0.74063171143E+01  0.56301100499E+00  0.74430494084E+01  0.51100000000E-03 0. -1.
        -11    1    4    4    0    0 -0.35407164471E+01 -0.68145526027E+01 -0.18756171135E+01  0.79052349713E+01  0.51100000000E-03 0.  1.
        -12    1    4    4    0    0  0.13622386911E+02  0.10574064519E+01  0.36548303918E+02  0.39018791023E+02  0.00000000000E+00 0.  1.
</event>
<event>
 8    1  0.1240174E-006  0.9118800E+02  0.7816164E-02  0.1184000E+00
        -11   -1    0    0    0    0  0.00000000000E+00  0.00000000000E+00  0.45593999997E+02  0.45594000000E+02  0.51100000000E-03 0. -1.
         11   -1    0    0    0    0 -0.00000000000E+00 -0.00000000000E+00 -0.45593999997E+02  0.45594000000E+02  0.51100000000E-03 0.  1.
         23    2    1    2    0    0 -0.26645352591E-14  0.00000000000E+00 -0.88817841970E-15  0.91188000000E+02  0.91188000000E+02 0.  0.
    9900012    2    3    3    0    0 -0.45811382171E+01 -0.35651755783E+02 -0.79840488066E+01  0.54367088100E+02  0.40000008942E+02 0.  0.
         12    1    3    3    0    0  0.45811382171E+01  0.35651755783E+02  0.79840488066E+01  0.36820911900E+02  0.00000000000E+00 0. -1.
         11    1    4    4    0    0  0.44761866016E+01 -0.32856519230E+01 -0.58445858227E+00  0.55833096947E+01  0.51100000000E-03 0. -1.
        -11    1    4    4    0    0  0.77266543400E+01 -0.65616662168E+01  0.93055629766E+01  0.13760456148E+02  0.51100000000E-03 0.  1.
        -12    1    4    4    0    0 -0.16783979159E+02 -0.25804437643E+02 -0.16705153201E+02  0.35023322257E+02  0.00000000000E+00 0.  1.
</event>
<event>
 8    1  0.1240174E-006  0.9118800E+02  0.7816164E-02  0.1184000E+00
        -11   -1    0    0    0    0  0.00000000000E+00  0.00000000000E+00  0.45593999997E+02  0.45594000000E+02  0.51100000000E-03 0.  1.
         11   -1    0    0    0    0 -0.00000000000E+00 -0.00000000000E+00 -0.45593999997E+02  0.45594000000E+02  0.51100000000E-03 0. -1.
         23    2    1    2    0    0 -0.66613381478E-15  0.35527136788E-14  0.71054273576E-14  0.91188000000E+02  0.91188000000E+02 0.  0.
    9900012    2    3    3    0    0  0.18684777368E+01 -0.20185828909E+02 -0.30737905198E+02  0.54367113078E+02  0.40000065884E+02 0.  0.
        -12    1    3    3    0    0 -0.18684777368E+01  0.20185828909E+02  0.30737905198E+02  0.36820886922E+02  0.00000000000E+00 0.  1.
         11    1    4    4    0    0  0.14679712869E+02 -0.31813109248E+01 -0.78128832169E+01  0.16930914137E+02  0.51100000000E-03 0. -1.
        -11    1    4    4    0    0  0.37826848982E+01 -0.91655541001E+01 -0.30273360343E+01  0.10367297176E+02  0.51100000000E-03 0.  1.
         12    1    4    4    0    0 -0.16593920030E+02 -0.78389638840E+01 -0.19897685946E+02  0.27068901765E+02  0.00000000000E+00 0. -1.
</event>
<event>
 8    1  0.1240174E-006  0.9118800E+02  0.7816164E-02  0.1184000E+00
        -11   -1    0    0    0    0  0.00000000000E+00  0.00000000000E+00  0.45593999997E+02  0.45594000000E+02  0.51100000000E-03 0. -1.
         11   -1    0    0    0    0 -0.00000000000E+00 -0.00000000000E+00 -0.45593999997E+02  0.45594000000E+02  0.51100000000E-03 0.  1.
         23    2    1    2    0    0  0.00000000000E+00 -0.35527136788E-14  0.88817841970E-15  0.91188000000E+02  0.91188000000E+02 0.  0.
    9900012    2    3    3    0    0 -0.21939258065E+02 -0.29198107531E+02  0.46817555031E+01  0.54367090690E+02  0.40000014846E+02 0.  0.
         12    1    3    3    0    0  0.21939258065E+02  0.29198107531E+02 -0.46817555031E+01  0.36820909310E+02  0.00000000000E+00 0. -1.
         11    1    4    4    0    0  0.88016858781E+01 -0.29849846238E+01 -0.42298641111E+01  0.10211344581E+02  0.51100000000E-03 0. -1.
        -11    1    4    4    0    0 -0.13525270970E+02 -0.21223522200E+02  0.70469856897E+01  0.26134859038E+02  0.51100000000E-03 0.  1.
        -12    1    4    4    0    0 -0.17215672973E+02 -0.49896007068E+01  0.18646339245E+01  0.18020887070E+02  0.00000000000E+00 0.  1.
</event>
<event>
 8    1  0.1240174E-006  0.9118800E+02  0.7816164E-02  0.1184000E+00
        -11   -1    0    0    0    0  0.00000000000E+00  0.00000000000E+00  0.45593999997E+02  0.45594000000E+02  0.51100000000E-03 0.  1.
         11   -1    0    0    0    0 -0.00000000000E+00 -0.00000000000E+00 -0.45593999997E+02  0.45594000000E+02  0.51100000000E-03 0. -1.
         23    2    1    2    0    0  0.00000000000E+00  0.35527136788E-14  0.00000000000E+00  0.91188000000E+02  0.91188000000E+02 0.  0.
    9900012    2    3    3    0    0  0.24499373061E+02 -0.27331568387E+02 -0.29234520082E+01  0.54367075480E+02  0.39999980172E+02 0.  0.
        -12    1    3    3    0    0 -0.24499373061E+02  0.27331568387E+02  0.29234520082E+01  0.36820924520E+02  0.00000000000E+00 0.  1.
         11    1    4    4    0    0  0.12940734728E+02  0.58088642750E+01  0.69071545341E+01  0.15777018207E+02  0.51100000000E-03 0. -1.
        -11    1    4    4    0    0  0.39150463069E+01 -0.12661745750E+02 -0.10207043538E+02  0.16728153846E+02  0.51100000000E-03 0.  1.
         12    1    4    4    0    0  0.76435920258E+01 -0.20478686911E+02  0.37643699610E+00  0.21861903428E+02  0.00000000000E+00 0. -1.
</event>
<event>
 8    1  0.1240174E-006  0.9118800E+02  0.7816164E-02  0.1184000E+00
        -11   -1    0    0    0    0  0.00000000000E+00  0.00000000000E+00  0.45593999997E+02  0.45594000000E+02  0.51100000000E-03 0.  1.
         11   -1    0    0    0    0 -0.00000000000E+00 -0.00000000000E+00 -0.45593999997E+02  0.45594000000E+02  0.51100000000E-03 0. -1.
         23    2    1    2    0    0  0.17763568394E-14  0.17763568394E-14  0.00000000000E+00  0.91188000000E+02  0.91188000000E+02 0.  0.
    9900012    2    3    3    0    0  0.98272845699E+01  0.11250052222E+02 -0.33654728924E+02  0.54367082359E+02  0.39999995853E+02 0.  0.
        -12    1    3    3    0    0 -0.98272845699E+01 -0.11250052222E+02  0.33654728924E+02  0.36820917641E+02  0.00000000000E+00 0.  1.
         11    1    4    4    0    0  0.12751420132E+02  0.56624344665E+01 -0.66106441930E+01  0.15438992726E+02  0.51100000000E-03 0. -1.
        -11    1    4    4    0    0  0.79264913148E+01  0.10798419539E+02 -0.59847987123E+01  0.14671501116E+02  0.51100000000E-03 0.  1.
         12    1    4    4    0    0 -0.10850626877E+02 -0.52108017844E+01 -0.21059286019E+02  0.24256588517E+02  0.00000000000E+00 0. -1.
</event>
<event>
 8    1  0.1240174E-006  0.9118800E+02  0.7816164E-02  0.1184000E+00
        -11   -1    0    0    0    0  0.00000000000E+00  0.00000000000E+00  0.45593999997E+02  0.45594000000E+02  0.51100000000E-03 0. -1.
         11   -1    0    0    0    0 -0.00000000000E+00 -0.00000000000E+00 -0.45593999997E+02  0.45594000000E+02  0.51100000000E-03 0.  1.
         23    2    1    2    0    0  0.00000000000E+00  0.00000000000E+00  0.00000000000E+00  0.91188000000E+02  0.91188000000E+02 0.  0.
    9900012    2    3    3    0    0 -0.33828725991E+02  0.91829019896E+01  0.11272634438E+02  0.54367072822E+02  0.39999974111E+02 0.  0.
        -12    1    3    3    0    0  0.33828725991E+02 -0.91829019896E+01 -0.11272634438E+02  0.36820927178E+02  0.00000000000E+00 0.  1.
         11    1    4    4    0    0 -0.16903154279E+01 -0.24090994820E+01  0.12582086365E+02  0.12921680391E+02  0.51100000000E-03 0. -1.
        -11    1    4    4    0    0 -0.20488954772E+02  0.14136850470E+02  0.81840795674E+01  0.26203567839E+02  0.51100000000E-03 0.  1.
        -12    1    4    4    0    0 -0.11649455790E+02 -0.25448489988E+01 -0.94935314945E+01  0.15241824591E+02  0.00000000000E+00 0.  1.
</event>
<event>
 8    1  0.1240174E-006  0.9118800E+02  0.7816164E-02  0.1184000E+00
        -11   -1    0    0    0    0  0.00000000000E+00  0.00000000000E+00  0.45593999997E+02  0.45594000000E+02  0.51100000000E-03 0.  1.
         11   -1    0    0    0    0 -0.00000000000E+00 -0.00000000000E+00 -0.45593999997E+02  0.45594000000E+02  0.51100000000E-03 0. -1.
         23    2    1    2    0    0  0.00000000000E+00  0.00000000000E+00  0.00000000000E+00  0.91188000000E+02  0.91188000000E+02 0.  0.
    9900012    2    3    3    0    0  0.59509695142E+01  0.13887212494E+02 -0.33578433042E+02  0.54367083735E+02  0.39999998992E+02 0.  0.
        -12    1    3    3    0    0 -0.59509695142E+01 -0.13887212494E+02  0.33578433042E+02  0.36820916265E+02  0.00000000000E+00 0.  1.
         11    1    4    4    0    0  0.26003713227E+01  0.71613199063E+01 -0.23661038374E+02  0.24857416821E+02  0.51100000000E-03 0. -1.
        -11    1    4    4    0    0  0.74912350957E+01  0.14652015674E+02 -0.11952285315E+02  0.20338566593E+02  0.51100000000E-03 0.  1.
        -12    1    4    4    0    0 -0.41406369041E+01 -0.79261230860E+01  0.20348906473E+01  0.91711003207E+01  0.00000000000E+00 0.  1.
</event>
<event>
 8    1  0.1240174E-006  0.9118800E+02  0.7816164E-02  0.1184000E+00
        -11   -1    0    0    0    0  0.00000000000E+00  0.00000000000E+00  0.45593999997E+02  0.45594000000E+02  0.51100000000E-03 0. -1.
         11   -1    0    0    0    0 -0.00000000000E+00 -0.00000000000E+00 -0.45593999997E+02  0.45594000000E+02  0.51100000000E-03 0.  1.
         23    2    1    2    0    0  0.35527136788E-14  0.53290705182E-14  0.00000000000E+00  0.91188000000E+02  0.91188000000E+02 0.  0.
    9900012    2    3    3    0    0 -0.26513487032E+02 -0.13798936975E+02  0.21503641989E+02  0.54367051139E+02  0.39999924681E+02 0.  0.
        -12    1    3    3    0    0  0.26513487032E+02  0.13798936975E+02 -0.21503641989E+02  0.36820948861E+02  0.00000000000E+00 0.  1.
         11    1    4    4    0    0 -0.22714730044E+01  0.42654515134E+01 -0.37475592133E+01  0.61153795092E+01  0.51100000000E-03 0.  1.
        -11    1    4    4    0    0 -0.25797061421E+02 -0.13034014046E+02  0.76760581616E+01  0.29904778369E+02  0.51100000000E-03 0. -1.
         12    1    4    4    0    0  0.15550473936E+01 -0.50303744430E+01  0.17575143041E+02  0.18346893261E+02  0.00000000000E+00 0. -1.
</event>
<event>
 8    1  0.1240174E-006  0.9118800E+02  0.7816164E-02  0.1184000E+00
        -11   -1    0    0    0    0  0.00000000000E+00  0.00000000000E+00  0.45593999997E+02  0.45594000000E+02  0.51100000000E-03 0.  1.
         11   -1    0    0    0    0 -0.00000000000E+00 -0.00000000000E+00 -0.45593999997E+02  0.45594000000E+02  0.51100000000E-03 0. -1.
         23    2    1    2    0    0  0.00000000000E+00  0.00000000000E+00 -0.88817841970E-15  0.91188000000E+02  0.91188000000E+02 0.  0.
    9900012    2    3    3    0    0  0.35287341872E+02 -0.87243663038E+01  0.58711566607E+01  0.54367061062E+02  0.39999947302E+02 0.  0.
         12    1    3    3    0    0 -0.35287341872E+02  0.87243663038E+01 -0.58711566607E+01  0.36820938938E+02  0.00000000000E+00 0. -1.
         11    1    4    4    0    0  0.13964642133E+02 -0.12510259280E+02  0.41692237102E+01  0.19206775986E+02  0.51100000000E-03 0. -1.
        -11    1    4    4    0    0  0.14700792030E+02  0.93519448576E+01  0.12412579325E+02  0.21392622202E+02  0.51100000000E-03 0.  1.
        -12    1    4    4    0    0  0.66219077080E+01 -0.55660518810E+01 -0.10710646374E+02  0.13767662873E+02  0.00000000000E+00 0.  1.
</event>
<event>
 8    1  0.1240174E-006  0.9118800E+02  0.7816164E-02  0.1184000E+00
        -11   -1    0    0    0    0  0.00000000000E+00  0.00000000000E+00  0.45593999997E+02  0.45594000000E+02  0.51100000000E-03 0.  1.
         11   -1    0    0    0    0 -0.00000000000E+00 -0.00000000000E+00 -0.45593999997E+02  0.45594000000E+02  0.51100000000E-03 0. -1.
         23    2    1    2    0    0  0.00000000000E+00 -0.17763568394E-14  0.00000000000E+00  0.91188000000E+02  0.91188000000E+02 0.  0.
    9900012    2    3    3    0    0 -0.22817645755E+02  0.13985998581E+02  0.25288865267E+02  0.54367084468E+02  0.40000000662E+02 0.  0.
         12    1    3    3    0    0  0.22817645755E+02 -0.13985998581E+02 -0.25288865267E+02  0.36820915532E+02  0.00000000000E+00 0. -1.
         11    1    4    4    0    0 -0.64303897267E+00  0.20029120244E+01  0.41647990684E+01  0.46659090474E+01  0.51100000000E-03 0. -1.
        -11    1    4    4    0    0 -0.10417940647E+02  0.13984350421E+02  0.30092087945E+02  0.34779725433E+02  0.51100000000E-03 0.  1.
        -12    1    4    4    0    0 -0.11756666136E+02 -0.20012638644E+01 -0.89680217472E+01  0.14921449988E+02  0.00000000000E+00 0.  1.
</event>
<event>
 8    1  0.1240174E-006  0.9118800E+02  0.7816164E-02  0.1184000E+00
        -11   -1    0    0    0    0  0.00000000000E+00  0.00000000000E+00  0.45593999997E+02  0.45594000000E+02  0.51100000000E-03 0. -1.
         11   -1    0    0    0    0 -0.00000000000E+00 -0.00000000000E+00 -0.45593999997E+02  0.45594000000E+02  0.51100000000E-03 0.  1.
         23    2    1    2    0    0  0.00000000000E+00  0.00000000000E+00  0.00000000000E+00  0.91188000000E+02  0.91188000000E+02 0.  0.
    9900012    2    3    3    0    0 -0.30499207868E+02  0.93028149371E+01 -0.18412926089E+02  0.54367083478E+02  0.39999998405E+02 0.  0.
         12    1    3    3    0    0  0.30499207868E+02 -0.93028149371E+01  0.18412926089E+02  0.36820916522E+02  0.00000000000E+00 0. -1.
         11    1    4    4    0    0 -0.13328589409E+02  0.49573620801E+01  0.16231010904E+01  0.14312972851E+02  0.51100000000E-03 0. -1.
        -11    1    4    4    0    0 -0.66914549880E+01  0.16467034063E+02 -0.14999924014E+02  0.23258041650E+02  0.51100000000E-03 0.  1.
        -12    1    4    4    0    0 -0.10479163471E+02 -0.12121581206E+02 -0.50361031659E+01  0.16796068977E+02  0.00000000000E+00 0.  1.
</event>
<event>
 8    1  0.1240174E-006  0.9118800E+02  0.7816164E-02  0.1184000E+00
        -11   -1    0    0    0    0  0.00000000000E+00  0.00000000000E+00  0.45593999997E+02  0.45594000000E+02  0.51100000000E-03 0.  1.
         11   -1    0    0    0    0 -0.00000000000E+00 -0.00000000000E+00 -0.45593999997E+02  0.45594000000E+02  0.51100000000E-03 0. -1.
         23    2    1    2    0    0 -0.53290705182E-14  0.71054273576E-14  0.00000000000E+00  0.91188000000E+02  0.91188000000E+02 0.  0.
    9900012    2    3    3    0    0 -0.86673384735E+01  0.34533947168E+02  0.93842072345E+01  0.54367087346E+02  0.40000007223E+02 0.  0.
        -12    1    3    3    0    0  0.86673384735E+01 -0.34533947168E+02 -0.93842072345E+01  0.36820912654E+02  0.00000000000E+00 0.  1.
         11    1    4    4    0    0  0.30987024324E+01  0.19666639625E+01  0.83662539747E+01  0.91358595510E+01  0.51100000000E-03 0. -1.
        -11    1    4    4    0    0  0.50367999765E+01 -0.25374988561E+01  0.27483178779E+01  0.62738748686E+01  0.51100000000E-03 0.  1.
         12    1    4    4    0    0 -0.16802840882E+02  0.35104782062E+02 -0.17303646181E+01  0.38957352927E+02  0.00000000000E+00 0. -1.
</event>
<event>
 8    1  0.1240174E-006  0.9118800E+02  0.7816164E-02  0.1184000E+00
        -11   -1    0    0    0    0  0.00000000000E+00  0.00000000000E+00  0.45593999997E+02  0.45594000000E+02  0.51100000000E-03 0. -1.
         11   -1    0    0    0    0 -0.00000000000E+00 -0.00000000000E+00 -0.45593999997E+02  0.45594000000E+02  0.51100000000E-03 0.  1.
         23    2    1    2    0    0  0.00000000000E+00 -0.35527136788E-14  0.17763568394E-14  0.91188000000E+02  0.91188000000E+02 0.  0.
    9900012    2    3    3    0    0 -0.21671000412E+02 -0.27457322643E+02  0.11499698273E+02  0.54367083580E+02  0.39999998638E+02 0.  0.
        -12    1    3    3    0    0  0.21671000412E+02  0.27457322643E+02 -0.11499698273E+02  0.36820916420E+02  0.00000000000E+00 0.  1.
         11    1    4    4    0    0 -0.22886360010E+01 -0.20724866853E+01  0.11991853425E+02  0.12382956215E+02  0.51100000000E-03 0. -1.
        -11    1    4    4    0    0 -0.70534877312E+01 -0.28419655494E+02 -0.13451863056E+00  0.29282189178E+02  0.51100000000E-03 0.  1.
        -12    1    4    4    0    0 -0.12328876680E+02  0.30348195355E+01 -0.35763652093E+00  0.12701938186E+02  0.00000000000E+00 0.  1.
</event>
<event>
 8    1  0.1240174E-006  0.9118800E+02  0.7816164E-02  0.1184000E+00
        -11   -1    0    0    0    0  0.00000000000E+00  0.00000000000E+00  0.45593999997E+02  0.45594000000E+02  0.51100000000E-03 0. -1.
         11   -1    0    0    0    0 -0.00000000000E+00 -0.00000000000E+00 -0.45593999997E+02  0.45594000000E+02  0.51100000000E-03 0.  1.
         23    2    1    2    0    0 -0.35527136788E-14  0.00000000000E+00  0.00000000000E+00  0.91188000000E+02  0.91188000000E+02 0.  0.
    9900012    2    3    3    0    0  0.27044159819E+02 -0.28389396467E+01 -0.24826107980E+02  0.54367057643E+02  0.39999939509E+02 0.  0.
         12    1    3    3    0    0 -0.27044159819E+02  0.28389396467E+01  0.24826107980E+02  0.36820942357E+02  0.00000000000E+00 0. -1.
         11    1    4    4    0    0  0.99030595194E+01 -0.79367581620E+01 -0.35448558493E+01  0.13176825157E+02  0.51100000000E-03 0. -1.
        -11    1    4    4    0    0  0.16130459643E+02  0.15550371486E+02 -0.20964538482E+02  0.30684159687E+02  0.51100000000E-03 0.  1.
         12    1    4    4    0    0  0.10106406558E+01 -0.10452552970E+02 -0.31671364818E+00  0.10506072799E+02  0.00000000000E+00 0. -1.
</event>
<event>
 8    1  0.1240174E-006  0.9118800E+02  0.7816164E-02  0.1184000E+00
        -11   -1    0    0    0    0  0.00000000000E+00  0.00000000000E+00  0.45593999997E+02  0.45594000000E+02  0.51100000000E-03 0.  1.
         11   -1    0    0    0    0 -0.00000000000E+00 -0.00000000000E+00 -0.45593999997E+02  0.45594000000E+02  0.51100000000E-03 0. -1.
         23    2    1    2    0    0 -0.66613381478E-15  0.00000000000E+00 -0.35527136788E-14  0.91188000000E+02  0.91188000000E+02 0.  0.
    9900012    2    3    3    0    0 -0.51856038375E+00  0.32156784011E+02  0.17929115990E+02  0.54367070314E+02  0.39999968394E+02 0.  0.
        -12    1    3    3    0    0  0.51856038375E+00 -0.32156784011E+02 -0.17929115990E+02  0.36820929686E+02  0.00000000000E+00 0.  1.
         11    1    4    4    0    0 -0.99316715210E+01  0.13083562777E+02  0.14310399326E+02  0.21785436494E+02  0.51100000000E-03 0. -1.
        -11    1    4    4    0    0  0.16043989223E+02  0.20020435895E+02  0.23395452335E+01  0.25762393440E+02  0.51100000000E-03 0.  1.
        -12    1    4    4    0    0 -0.66308780856E+01 -0.94721466034E+00  0.12791714305E+01  0.68192403791E+01  0.00000000000E+00 0.  1.
</event>
<event>
 8    1  0.1240174E-006  0.9118800E+02  0.7816164E-02  0.1184000E+00
        -11   -1    0    0    0    0  0.00000000000E+00  0.00000000000E+00  0.45593999997E+02  0.45594000000E+02  0.51100000000E-03 0. -1.
         11   -1    0    0    0    0 -0.00000000000E+00 -0.00000000000E+00 -0.45593999997E+02  0.45594000000E+02  0.51100000000E-03 0.  1.
         23    2    1    2    0    0  0.35527136788E-14 -0.35527136788E-14 -0.23314683517E-14  0.91188000000E+02  0.91188000000E+02 0.  0.
    9900012    2    3    3    0    0 -0.30525969286E+02  0.20585620903E+02  0.42160985103E+00  0.54367077365E+02  0.39999984469E+02 0.  0.
         12    1    3    3    0    0  0.30525969286E+02 -0.20585620903E+02 -0.42160985103E+00  0.36820922635E+02  0.00000000000E+00 0. -1.
         11    1    4    4    0    0 -0.68975393529E+01  0.14576185404E+02 -0.68259875478E+01  0.17511006148E+02  0.51100000000E-03 0.  1.
        -11    1    4    4    0    0 -0.13158752424E+02  0.53242444220E+01 -0.95090011308E+01  0.17085708847E+02  0.51100000000E-03 0. -1.
         12    1    4    4    0    0 -0.10469677509E+02  0.68519107630E+00  0.16756598530E+02  0.19770362370E+02  0.00000000000E+00 0. -1.
</event>
<event>
 8    1  0.1240174E-006  0.9118800E+02  0.7816164E-02  0.1184000E+00
        -11   -1    0    0    0    0  0.00000000000E+00  0.00000000000E+00  0.45593999997E+02  0.45594000000E+02  0.51100000000E-03 0.  1.
         11   -1    0    0    0    0 -0.00000000000E+00 -0.00000000000E+00 -0.45593999997E+02  0.45594000000E+02  0.51100000000E-03 0. -1.
         23    2    1    2    0    0  0.35527136788E-14 -0.17763568394E-14  0.17763568394E-14  0.91188000000E+02  0.91188000000E+02 0.  0.
    9900012    2    3    3    0    0 -0.31305235356E+02 -0.15669559532E+02 -0.11411664446E+02  0.54367096398E+02  0.40000027858E+02 0.  0.
        -12    1    3    3    0    0  0.31305235356E+02  0.15669559532E+02  0.11411664446E+02  0.36820903602E+02  0.00000000000E+00 0.  1.
         11    1    4    4    0    0 -0.23384365329E+02 -0.96524652562E+01  0.95333158257E+01  0.27034843041E+02  0.51100000000E-03 0. -1.
        -11    1    4    4    0    0 -0.19706567879E+01  0.40680505302E+01 -0.11270201111E+02  0.12142897374E+02  0.51100000000E-03 0.  1.
         12    1    4    4    0    0 -0.59502132395E+01 -0.10085144807E+02 -0.96747791608E+01  0.15189355983E+02  0.00000000000E+00 0. -1.
</event>
<event>
 8    1  0.1240174E-006  0.9118800E+02  0.7816164E-02  0.1184000E+00
        -11   -1    0    0    0    0  0.00000000000E+00  0.00000000000E+00  0.45593999997E+02  0.45594000000E+02  0.51100000000E-03 0.  1.
         11   -1    0    0    0    0 -0.00000000000E+00 -0.00000000000E+00 -0.45593999997E+02  0.45594000000E+02  0.51100000000E-03 0. -1.
         23    2    1    2    0    0 -0.17763568394E-14  0.35527136788E-14 -0.35527136788E-14  0.91188000000E+02  0.91188000000E+02 0.  0.
    9900012    2    3    3    0    0 -0.13888871758E+02 -0.22100487626E+02  0.25970121839E+02  0.54367088274E+02  0.40000009338E+02 0.  0.
        -12    1    3    3    0    0  0.13888871758E+02  0.22100487626E+02 -0.25970121839E+02  0.36820911726E+02  0.00000000000E+00 0.  1.
         11    1    4    4    0    0 -0.54140018518E+01  0.49786605991E+01  0.17209373179E+01  0.75538138000E+01  0.51100000000E-03 0. -1.
        -11    1    4    4    0    0  0.41477922891E+01  0.79581711371E+00 -0.35152012999E+01  0.54949200351E+01  0.51100000000E-03 0.  1.
         12    1    4    4    0    0 -0.12622662195E+02 -0.27874965339E+02  0.27764385821E+02  0.41318354439E+02  0.00000000000E+00 0. -1.
</event>
<event>
 8    1  0.1240174E-006  0.9118800E+02  0.7816164E-02  0.1184000E+00
        -11   -1    0    0    0    0  0.00000000000E+00  0.00000000000E+00  0.45593999997E+02  0.45594000000E+02  0.51100000000E-03 0.  1.
         11   -1    0    0    0    0 -0.00000000000E+00 -0.00000000000E+00 -0.45593999997E+02  0.45594000000E+02  0.51100000000E-03 0. -1.
         23    2    1    2    0    0  0.17763568394E-14  0.71054273576E-14  0.17763568394E-14  0.91188000000E+02  0.91188000000E+02 0.  0.
    9900012    2    3    3    0    0  0.12767317744E+02  0.34334908456E+02 -0.37269532682E+01  0.54367074948E+02  0.39999978959E+02 0.  0.
         12    1    3    3    0    0 -0.12767317744E+02 -0.34334908456E+02  0.37269532682E+01  0.36820925052E+02  0.00000000000E+00 0. -1.
         11    1    4    4    0    0 -0.89135098970E+01  0.46846337186E+01  0.10374659231E+02  0.14457870043E+02  0.51100000000E-03 0. -1.
        -11    1    4    4    0    0  0.52749503642E+01  0.94095595541E+01 -0.71551825344E+01  0.12944556760E+02  0.51100000000E-03 0.  1.
         12    1    4    4    0    0  0.16405877277E+02  0.20240715183E+02 -0.69464299645E+01  0.26964648145E+02  0.00000000000E+00 0. -1.
</event>
<event>
 8    1  0.1240174E-006  0.9118800E+02  0.7816164E-02  0.1184000E+00
        -11   -1    0    0    0    0  0.00000000000E+00  0.00000000000E+00  0.45593999997E+02  0.45594000000E+02  0.51100000000E-03 0. -1.
         11   -1    0    0    0    0 -0.00000000000E+00 -0.00000000000E+00 -0.45593999997E+02  0.45594000000E+02  0.51100000000E-03 0.  1.
         23    2    1    2    0    0 -0.88817841970E-15 -0.35527136788E-14  0.00000000000E+00  0.91188000000E+02  0.91188000000E+02 0.  0.
    9900012    2    3    3    0    0 -0.50223502017E+01 -0.21929776861E+02  0.29148602418E+02  0.54367080163E+02  0.39999990847E+02 0.  0.
        -12    1    3    3    0    0  0.50223502017E+01  0.21929776861E+02 -0.29148602418E+02  0.36820919837E+02  0.00000000000E+00 0.  1.
         11    1    4    4    0    0 -0.18339939621E+02 -0.46251277016E+01  0.19859933317E+02  0.27425574618E+02  0.51100000000E-03 0.  1.
        -11    1    4    4    0    0  0.22961961090E+00  0.19542431009E+01  0.34454806152E+00  0.19976248123E+01  0.51100000000E-03 0. -1.
        -12    1    4    4    0    0  0.13087969808E+02 -0.19258892260E+02  0.89441210399E+01  0.24943880732E+02  0.00000000000E+00 0.  1.
</event>
<event>
 8    1  0.1240174E-006  0.9118800E+02  0.7816164E-02  0.1184000E+00
        -11   -1    0    0    0    0  0.00000000000E+00  0.00000000000E+00  0.45593999997E+02  0.45594000000E+02  0.51100000000E-03 0. -1.
         11   -1    0    0    0    0 -0.00000000000E+00 -0.00000000000E+00 -0.45593999997E+02  0.45594000000E+02  0.51100000000E-03 0.  1.
         23    2    1    2    0    0 -0.88817841970E-15  0.00000000000E+00  0.00000000000E+00  0.91188000000E+02  0.91188000000E+02 0.  0.
    9900012    2    3    3    0    0  0.42597941520E+01  0.20340302288E+02  0.30395836919E+02  0.54367073268E+02  0.39999975130E+02 0.  0.
        -12    1    3    3    0    0 -0.42597941520E+01 -0.20340302288E+02 -0.30395836919E+02  0.36820926732E+02  0.00000000000E+00 0.  1.
         11    1    4    4    0    0 -0.47562553998E+01  0.15338137905E+02  0.15818715387E+02  0.22541344160E+02  0.51100000000E-03 0. -1.
        -11    1    4    4    0    0 -0.23105889022E+01 -0.95577981749E+01  0.54952890171E+01  0.11264480843E+02  0.51100000000E-03 0.  1.
        -12    1    4    4    0    0  0.11326638454E+02  0.14559962559E+02  0.90818325149E+01  0.20561248265E+02  0.00000000000E+00 0.  1.
</event>
<event>
 8    1  0.1240174E-006  0.9118800E+02  0.7816164E-02  0.1184000E+00
        -11   -1    0    0    0    0  0.00000000000E+00  0.00000000000E+00  0.45593999997E+02  0.45594000000E+02  0.51100000000E-03 0. -1.
         11   -1    0    0    0    0 -0.00000000000E+00 -0.00000000000E+00 -0.45593999997E+02  0.45594000000E+02  0.51100000000E-03 0.  1.
         23    2    1    2    0    0  0.35527136788E-14  0.88817841970E-15 -0.35527136788E-14  0.91188000000E+02  0.91188000000E+02 0.  0.
    9900012    2    3    3    0    0  0.31638291962E+02 -0.76552678645E+01  0.17210320351E+02  0.54367085142E+02  0.40000002199E+02 0.  0.
        -12    1    3    3    0    0 -0.31638291962E+02  0.76552678645E+01 -0.17210320351E+02  0.36820914858E+02  0.00000000000E+00 0.  1.
         11    1    4    4    0    0  0.29812116901E+02 -0.56801224499E+01  0.18189263988E+02  0.35381851702E+02  0.51100000000E-03 0. -1.
        -11    1    4    4    0    0 -0.14268422759E+01 -0.85326634373E+01  0.45846237633E+01  0.97908630634E+01  0.51100000000E-03 0.  1.
        -12    1    4    4    0    0  0.32530173374E+01  0.65575180226E+01 -0.55635674002E+01  0.91943703771E+01  0.00000000000E+00 0.  1.
</event>
<event>
 8    1  0.1240174E-006  0.9118800E+02  0.7816164E-02  0.1184000E+00
        -11   -1    0    0    0    0  0.00000000000E+00  0.00000000000E+00  0.45593999997E+02  0.45594000000E+02  0.51100000000E-03 0. -1.
         11   -1    0    0    0    0 -0.00000000000E+00 -0.00000000000E+00 -0.45593999997E+02  0.45594000000E+02  0.51100000000E-03 0.  1.
         23    2    1    2    0    0  0.00000000000E+00  0.88817841970E-15  0.00000000000E+00  0.91188000000E+02  0.91188000000E+02 0.  0.
    9900012    2    3    3    0    0 -0.20692505323E+02 -0.60768428157E+01 -0.29844104081E+02  0.54367104526E+02  0.40000046387E+02 0.  0.
         12    1    3    3    0    0  0.20692505323E+02  0.60768428157E+01  0.29844104081E+02  0.36820895474E+02  0.00000000000E+00 0. -1.
         11    1    4    4    0    0 -0.88839876243E+01 -0.13183124863E+02  0.21839616637E+01  0.16046485786E+02  0.51100000000E-03 0. -1.
        -11    1    4    4    0    0 -0.11122258873E+02  0.88405637405E+01 -0.13177461828E+02  0.19377969712E+02  0.51100000000E-03 0.  1.
         12    1    4    4    0    0 -0.68625882624E+00 -0.17342816930E+01 -0.18850603916E+02  0.18942649028E+02  0.00000000000E+00 0. -1.
</event>
<event>
 8    1  0.1240174E-006  0.9118800E+02  0.7816164E-02  0.1184000E+00
        -11   -1    0    0    0    0  0.00000000000E+00  0.00000000000E+00  0.45593999997E+02  0.45594000000E+02  0.51100000000E-03 0. -1.
         11   -1    0    0    0    0 -0.00000000000E+00 -0.00000000000E+00 -0.45593999997E+02  0.45594000000E+02  0.51100000000E-03 0.  1.
         23    2    1    2    0    0  0.10658141036E-13 -0.44408920985E-15  0.35527136788E-14  0.91188000000E+02  0.91188000000E+02 0.  0.
    9900012    2    3    3    0    0 -0.31150850729E+02 -0.38555718714E+01 -0.19249345727E+02  0.54367105843E+02  0.40000049391E+02 0.  0.
         12    1    3    3    0    0  0.31150850729E+02  0.38555718714E+01  0.19249345727E+02  0.36820894157E+02  0.00000000000E+00 0. -1.
         11    1    4    4    0    0 -0.17536107521E+01 -0.86752142752E+01  0.53214910508E+01  0.10327282346E+02  0.51100000000E-03 0. -1.
        -11    1    4    4    0    0 -0.26593393848E+02  0.43470722942E-01 -0.99307129263E+01  0.28387136973E+02  0.51100000000E-03 0.  1.
         12    1    4    4    0    0 -0.28038461287E+01  0.47761716809E+01 -0.14640123851E+02  0.15652686524E+02  0.00000000000E+00 0. -1.
</event>
<event>
 8    1  0.1240174E-006  0.9118800E+02  0.7816164E-02  0.1184000E+00
        -11   -1    0    0    0    0  0.00000000000E+00  0.00000000000E+00  0.45593999997E+02  0.45594000000E+02  0.51100000000E-03 0.  1.
         11   -1    0    0    0    0 -0.00000000000E+00 -0.00000000000E+00 -0.45593999997E+02  0.45594000000E+02  0.51100000000E-03 0. -1.
         23    2    1    2    0    0  0.17763568394E-14 -0.10658141036E-13  0.35527136788E-14  0.91188000000E+02  0.91188000000E+02 0.  0.
    9900012    2    3    3    0    0 -0.81365128602E+01  0.26459296371E+02 -0.24279223668E+02  0.54367110441E+02  0.40000059873E+02 0.  0.
        -12    1    3    3    0    0  0.81365128602E+01 -0.26459296371E+02  0.24279223668E+02  0.36820889559E+02  0.00000000000E+00 0.  1.
         11    1    4    4    0    0 -0.57087649403E+01 -0.21755621719E+01 -0.46582161408E+01  0.76825806721E+01  0.51100000000E-03 0. -1.
        -11    1    4    4    0    0  0.29860330082E+01 -0.42337723660E+01  0.33958841494E+01  0.61946146765E+01  0.51100000000E-03 0.  1.
         12    1    4    4    0    0 -0.54137809280E+01  0.32868630909E+02 -0.23016891677E+02  0.40489915093E+02  0.00000000000E+00 0. -1.
</event>
<event>
 8    1  0.1240174E-006  0.9118800E+02  0.7816164E-02  0.1184000E+00
        -11   -1    0    0    0    0  0.00000000000E+00  0.00000000000E+00  0.45593999997E+02  0.45594000000E+02  0.51100000000E-03 0.  1.
         11   -1    0    0    0    0 -0.00000000000E+00 -0.00000000000E+00 -0.45593999997E+02  0.45594000000E+02  0.51100000000E-03 0. -1.
         23    2    1    2    0    0  0.00000000000E+00  0.00000000000E+00  0.17763568394E-14  0.91188000000E+02  0.91188000000E+02 0.  0.
    9900012    2    3    3    0    0 -0.33857203856E+02 -0.11386860241E+02  0.89335533214E+01  0.54367092704E+02  0.40000019438E+02 0.  0.
        -12    1    3    3    0    0  0.33857203856E+02  0.11386860241E+02 -0.89335533214E+01  0.36820907296E+02  0.00000000000E+00 0.  1.
         11    1    4    4    0    0 -0.13920210164E+02 -0.35031065787E+01  0.50438166741E+01  0.15214601330E+02  0.51100000000E-03 0. -1.
        -11    1    4    4    0    0 -0.74639393584E-01 -0.16008016162E+02  0.69942295319E+01  0.17469441877E+02  0.51100000000E-03 0.  1.
         12    1    4    4    0    0 -0.19862354299E+02  0.81242624999E+01 -0.31044928846E+01  0.21683049498E+02  0.00000000000E+00 0. -1.
</event>
<event>
 8    1  0.1240174E-006  0.9118800E+02  0.7816164E-02  0.1184000E+00
        -11   -1    0    0    0    0  0.00000000000E+00  0.00000000000E+00  0.45593999997E+02  0.45594000000E+02  0.51100000000E-03 0. -1.
         11   -1    0    0    0    0 -0.00000000000E+00 -0.00000000000E+00 -0.45593999997E+02  0.45594000000E+02  0.51100000000E-03 0.  1.
         23    2    1    2    0    0  0.00000000000E+00 -0.17763568394E-14  0.35527136788E-14  0.91188000000E+02  0.91188000000E+02 0.  0.
    9900012    2    3    3    0    0 -0.15418666339E+02 -0.10812958746E+02  0.31640550624E+02  0.54367084852E+02  0.40000001538E+02 0.  0.
        -12    1    3    3    0    0  0.15418666339E+02  0.10812958746E+02 -0.31640550624E+02  0.36820915148E+02  0.00000000000E+00 0.  1.
         11    1    4    4    0    0 -0.14286863684E+02 -0.12179926136E+02  0.53345739444E+01  0.19517242480E+02  0.51100000000E-03 0. -1.
        -11    1    4    4    0    0 -0.11758362700E+02 -0.10051299834E+01  0.15788269240E+02  0.19711388219E+02  0.51100000000E-03 0.  1.
        -12    1    4    4    0    0  0.10626560046E+02  0.23720973729E+01  0.10517707440E+02  0.15138454153E+02  0.00000000000E+00 0.  1.
</event>
<event>
 8    1  0.1240174E-006  0.9118800E+02  0.7816164E-02  0.1184000E+00
        -11   -1    0    0    0    0  0.00000000000E+00  0.00000000000E+00  0.45593999997E+02  0.45594000000E+02  0.51100000000E-03 0.  1.
         11   -1    0    0    0    0 -0.00000000000E+00 -0.00000000000E+00 -0.45593999997E+02  0.45594000000E+02  0.51100000000E-03 0. -1.
         23    2    1    2    0    0  0.00000000000E+00  0.35527136788E-14  0.17763568394E-14  0.91188000000E+02  0.91188000000E+02 0.  0.
    9900012    2    3    3    0    0 -0.12381230383E+02 -0.31524115155E+02 -0.14446920322E+02  0.54367106353E+02  0.40000050554E+02 0.  0.
         12    1    3    3    0    0  0.12381230383E+02  0.31524115155E+02  0.14446920322E+02  0.36820893647E+02  0.00000000000E+00 0. -1.
         11    1    4    4    0    0 -0.11865413662E+02 -0.99553851770E+00 -0.15548745247E+02  0.19584244109E+02  0.51100000000E-03 0. -1.
        -11    1    4    4    0    0 -0.14023133790E+01 -0.16197644953E+02 -0.76493792509E+01  0.17967837600E+02  0.51100000000E-03 0.  1.
         12    1    4    4    0    0  0.88649665758E+00 -0.14330931685E+02  0.87512041754E+01  0.16815024644E+02  0.00000000000E+00 0. -1.
</event>
<event>
 8    1  0.1240174E-006  0.9118800E+02  0.7816164E-02  0.1184000E+00
        -11   -1    0    0    0    0  0.00000000000E+00  0.00000000000E+00  0.45593999997E+02  0.45594000000E+02  0.51100000000E-03 0. -1.
         11   -1    0    0    0    0 -0.00000000000E+00 -0.00000000000E+00 -0.45593999997E+02  0.45594000000E+02  0.51100000000E-03 0.  1.
         23    2    1    2    0    0  0.35527136788E-14  0.00000000000E+00  0.00000000000E+00  0.91188000000E+02  0.91188000000E+02 0.  0.
    9900012    2    3    3    0    0 -0.23353548391E+02 -0.22736471958E+02 -0.17130158608E+02  0.54367113081E+02  0.40000065891E+02 0.  0.
         12    1    3    3    0    0  0.23353548391E+02  0.22736471958E+02  0.17130158608E+02  0.36820886919E+02  0.00000000000E+00 0. -1.
         11    1    4    4    0    0 -0.64206846578E+01 -0.11157002918E+02  0.11113852385E+02  0.17006517006E+02  0.51100000000E-03 0. -1.
        -11    1    4    4    0    0 -0.18262477331E+02 -0.75021532703E+01 -0.20207836708E+02  0.28251673342E+02  0.51100000000E-03 0.  1.
        -12    1    4    4    0    0  0.13296135973E+01 -0.40773157697E+01 -0.80361742855E+01  0.91089227328E+01  0.00000000000E+00 0.  1.
</event>
<event>
 8    1  0.1240174E-006  0.9118800E+02  0.7816164E-02  0.1184000E+00
        -11   -1    0    0    0    0  0.00000000000E+00  0.00000000000E+00  0.45593999997E+02  0.45594000000E+02  0.51100000000E-03 0. -1.
         11   -1    0    0    0    0 -0.00000000000E+00 -0.00000000000E+00 -0.45593999997E+02  0.45594000000E+02  0.51100000000E-03 0.  1.
         23    2    1    2    0    0  0.00000000000E+00 -0.35527136788E-14  0.35527136788E-14  0.91188000000E+02  0.91188000000E+02 0.  0.
    9900012    2    3    3    0    0  0.23144428456E+02  0.14674808108E+02 -0.24591983051E+02  0.54367079426E+02  0.39999989167E+02 0.  0.
         12    1    3    3    0    0 -0.23144428456E+02 -0.14674808108E+02  0.24591983051E+02  0.36820920574E+02  0.00000000000E+00 0. -1.
         11    1    4    4    0    0  0.86470294186E+01  0.73279279475E+01  0.23828610983E+01  0.11582213650E+02  0.51100000000E-03 0. -1.
        -11    1    4    4    0    0  0.58284871589E+01  0.99998853280E+01 -0.30831752533E+02  0.32932748650E+02  0.51100000000E-03 0.  1.
        -12    1    4    4    0    0  0.86689118786E+01 -0.26530051675E+01  0.38569083834E+01  0.98521171256E+01  0.00000000000E+00 0.  1.
</event>
<event>
 8    1  0.1240174E-006  0.9118800E+02  0.7816164E-02  0.1184000E+00
        -11   -1    0    0    0    0  0.00000000000E+00  0.00000000000E+00  0.45593999997E+02  0.45594000000E+02  0.51100000000E-03 0. -1.
         11   -1    0    0    0    0 -0.00000000000E+00 -0.00000000000E+00 -0.45593999997E+02  0.45594000000E+02  0.51100000000E-03 0.  1.
         23    2    1    2    0    0  0.00000000000E+00  0.00000000000E+00  0.35527136788E-14  0.91188000000E+02  0.91188000000E+02 0.  0.
    9900012    2    3    3    0    0 -0.18890510423E+02  0.23727493343E+01 -0.31516658670E+02  0.54367067134E+02  0.39999961145E+02 0.  0.
         12    1    3    3    0    0  0.18890510423E+02 -0.23727493343E+01  0.31516658670E+02  0.36820932866E+02  0.00000000000E+00 0. -1.
         11    1    4    4    0    0 -0.70161362226E+01  0.11772204778E+01 -0.88485293062E-01  0.71147625017E+01  0.51100000000E-03 0. -1.
        -11    1    4    4    0    0 -0.14857898107E+02 -0.12355797901E+01 -0.37335284371E+02  0.40202080206E+02  0.51100000000E-03 0.  1.
        -12    1    4    4    0    0  0.29835239069E+01  0.24311086466E+01  0.59071109944E+01  0.70502244258E+01  0.00000000000E+00 0.  1.
</event>
<event>
 8    1  0.1240174E-006  0.9118800E+02  0.7816164E-02  0.1184000E+00
        -11   -1    0    0    0    0  0.00000000000E+00  0.00000000000E+00  0.45593999997E+02  0.45594000000E+02  0.51100000000E-03 0. -1.
         11   -1    0    0    0    0 -0.00000000000E+00 -0.00000000000E+00 -0.45593999997E+02  0.45594000000E+02  0.51100000000E-03 0.  1.
         23    2    1    2    0    0  0.00000000000E+00  0.17763568394E-14 -0.71054273576E-14  0.91188000000E+02  0.91188000000E+02 0.  0.
    9900012    2    3    3    0    0  0.75242785613E+01  0.78529057877E+01 -0.35178099363E+02  0.54367060686E+02  0.39999946446E+02 0.  0.
         12    1    3    3    0    0 -0.75242785613E+01 -0.78529057877E+01  0.35178099363E+02  0.36820939314E+02  0.00000000000E+00 0. -1.
         11    1    4    4    0    0  0.13315735303E+02  0.68842113308E+01  0.98184057952E+00  0.15022156420E+02  0.51100000000E-03 0. -1.
        -11    1    4    4    0    0 -0.60710827305E+01 -0.30487287069E+00 -0.42706304450E+01  0.74289486232E+01  0.51100000000E-03 0.  1.
        -12    1    4    4    0    0  0.27962598872E+00  0.12735673276E+01 -0.31889309497E+02  0.31915955643E+02  0.00000000000E+00 0.  1.
</event>
<event>
 8    1  0.1240174E-006  0.9118800E+02  0.7816164E-02  0.1184000E+00
        -11   -1    0    0    0    0  0.00000000000E+00  0.00000000000E+00  0.45593999997E+02  0.45594000000E+02  0.51100000000E-03 0.  1.
         11   -1    0    0    0    0 -0.00000000000E+00 -0.00000000000E+00 -0.45593999997E+02  0.45594000000E+02  0.51100000000E-03 0. -1.
         23    2    1    2    0    0  0.35527136788E-14  0.00000000000E+00  0.00000000000E+00  0.91188000000E+02  0.91188000000E+02 0.  0.
    9900012    2    3    3    0    0  0.23232432416E+02  0.20532276358E+02  0.19860997153E+02  0.54367088871E+02  0.40000010700E+02 0.  0.
         12    1    3    3    0    0 -0.23232432416E+02 -0.20532276358E+02 -0.19860997153E+02  0.36820911129E+02  0.00000000000E+00 0. -1.
         11    1    4    4    0    0  0.10473499178E+01  0.14629964429E+02 -0.42040384828E+00  0.14673429752E+02  0.51100000000E-03 0. -1.
        -11    1    4    4    0    0  0.25262859782E+02  0.99612552580E+01  0.11392676553E+02  0.29448799126E+02  0.51100000000E-03 0.  1.
        -12    1    4    4    0    0 -0.30777772834E+01 -0.40589433288E+01  0.88887244488E+01  0.10244859993E+02  0.00000000000E+00 0.  1.
</event>
<event>
 8    1  0.1240174E-006  0.9118800E+02  0.7816164E-02  0.1184000E+00
        -11   -1    0    0    0    0  0.00000000000E+00  0.00000000000E+00  0.45593999997E+02  0.45594000000E+02  0.51100000000E-03 0.  1.
         11   -1    0    0    0    0 -0.00000000000E+00 -0.00000000000E+00 -0.45593999997E+02  0.45594000000E+02  0.51100000000E-03 0. -1.
         23    2    1    2    0    0  0.44408920985E-15  0.00000000000E+00  0.00000000000E+00  0.91188000000E+02  0.91188000000E+02 0.  0.
    9900012    2    3    3    0    0  0.28154965956E+01 -0.22594220804E+02  0.28937105841E+02  0.54367055834E+02  0.39999935384E+02 0.  0.
         12    1    3    3    0    0 -0.28154965956E+01  0.22594220804E+02 -0.28937105841E+02  0.36820944166E+02  0.00000000000E+00 0. -1.
         11    1    4    4    0    0 -0.25435364963E+01 -0.42123163648E+01 -0.82270251371E+00  0.49889905544E+01  0.51100000000E-03 0. -1.
        -11    1    4    4    0    0  0.16211936590E+02 -0.17077241928E+02  0.77264369649E+01  0.24782189336E+02  0.51100000000E-03 0.  1.
        -12    1    4    4    0    0 -0.10852903498E+02 -0.13046625113E+01  0.22033371390E+02  0.24595875943E+02  0.00000000000E+00 0.  1.
</event>
<event>
 8    1  0.1240174E-006  0.9118800E+02  0.7816164E-02  0.1184000E+00
        -11   -1    0    0    0    0  0.00000000000E+00  0.00000000000E+00  0.45593999997E+02  0.45594000000E+02  0.51100000000E-03 0.  1.
         11   -1    0    0    0    0 -0.00000000000E+00 -0.00000000000E+00 -0.45593999997E+02  0.45594000000E+02  0.51100000000E-03 0. -1.
         23    2    1    2    0    0  0.00000000000E+00  0.17763568394E-14  0.00000000000E+00  0.91188000000E+02  0.91188000000E+02 0.  0.
    9900012    2    3    3    0    0 -0.98541051955E+01  0.95122244292E+01  0.34178868446E+02  0.54367070476E+02  0.39999968764E+02 0.  0.
         12    1    3    3    0    0  0.98541051955E+01 -0.95122244292E+01 -0.34178868446E+02  0.36820929524E+02  0.00000000000E+00 0. -1.
         11    1    4    4    0    0 -0.51312109468E+01  0.82310014819E+01 -0.20375292225E+01  0.99111168276E+01  0.51100000000E-03 0. -1.
        -11    1    4    4    0    0  0.37550451351E+01  0.11723532577E+02  0.16409947593E+02  0.20514091750E+02  0.51100000000E-03 0.  1.
         12    1    4    4    0    0 -0.84779393838E+01 -0.10442309630E+02  0.19806450075E+02  0.23941861898E+02  0.00000000000E+00 0. -1.
</event>
<event>
 8    1  0.1240174E-006  0.9118800E+02  0.7816164E-02  0.1184000E+00
        -11   -1    0    0    0    0  0.00000000000E+00  0.00000000000E+00  0.45593999997E+02  0.45594000000E+02  0.51100000000E-03 0. -1.
         11   -1    0    0    0    0 -0.00000000000E+00 -0.00000000000E+00 -0.45593999997E+02  0.45594000000E+02  0.51100000000E-03 0.  1.
         23    2    1    2    0    0  0.00000000000E+00 -0.17763568394E-14  0.00000000000E+00  0.91188000000E+02  0.91188000000E+02 0.  0.
    9900012    2    3    3    0    0 -0.14832847985E+02  0.92079051589E+01  0.32418848342E+02  0.54367073550E+02  0.39999975773E+02 0.  0.
        -12    1    3    3    0    0  0.14832847985E+02 -0.92079051589E+01 -0.32418848342E+02  0.36820926450E+02  0.00000000000E+00 0.  1.
         11    1    4    4    0    0 -0.56725228044E+01  0.14045764653E+02  0.22081775556E+02  0.26778084913E+02  0.51100000000E-03 0. -1.
        -11    1    4    4    0    0  0.12763053280E+00 -0.12709217531E+02  0.20815217914E+01  0.12879178274E+02  0.51100000000E-03 0.  1.
        -12    1    4    4    0    0 -0.92879557138E+01  0.78713580368E+01  0.82555509946E+01  0.14709810363E+02  0.00000000000E+00 0.  1.
</event>
<event>
 8    1  0.1240174E-006  0.9118800E+02  0.7816164E-02  0.1184000E+00
        -11   -1    0    0    0    0  0.00000000000E+00  0.00000000000E+00  0.45593999997E+02  0.45594000000E+02  0.51100000000E-03 0. -1.
         11   -1    0    0    0    0 -0.00000000000E+00 -0.00000000000E+00 -0.45593999997E+02  0.45594000000E+02  0.51100000000E-03 0.  1.
         23    2    1    2    0    0  0.00000000000E+00  0.00000000000E+00 -0.88817841970E-15  0.91188000000E+02  0.91188000000E+02 0.  0.
    9900012    2    3    3    0    0  0.36032502836E+02 -0.12863414078E+01 -0.74683630474E+01  0.54367185486E+02  0.40000230953E+02 0.  0.
         12    1    3    3    0    0 -0.36032502836E+02  0.12863414078E+01  0.74683630474E+01  0.36820814514E+02  0.00000000000E+00 0. -1.
         11    1    4    4    0    0 -0.29704268352E+01 -0.35505526600E+01  0.42683139444E+01  0.62966946856E+01  0.51100000000E-03 0. -1.
        -11    1    4    4    0    0  0.96761571339E+01 -0.39087505353E+01  0.71464240977E+01  0.12648230124E+02  0.51100000000E-03 0.  1.
        -12    1    4    4    0    0  0.29326772537E+02  0.61729617875E+01 -0.18883101090E+02  0.35422260677E+02  0.00000000000E+00 0.  1.
</event>
<event>
 8    1  0.1240174E-006  0.9118800E+02  0.7816164E-02  0.1184000E+00
        -11   -1    0    0    0    0  0.00000000000E+00  0.00000000000E+00  0.45593999997E+02  0.45594000000E+02  0.51100000000E-03 0.  1.
         11   -1    0    0    0    0 -0.00000000000E+00 -0.00000000000E+00 -0.45593999997E+02  0.45594000000E+02  0.51100000000E-03 0. -1.
         23    2    1    2    0    0  0.88817841970E-15 -0.71054273576E-14 -0.17763568394E-14  0.91188000000E+02  0.91188000000E+02 0.  0.
    9900012    2    3    3    0    0 -0.52514372301E+01  0.34313032781E+02  0.12280794303E+02  0.54367085830E+02  0.40000003767E+02 0.  0.
         12    1    3    3    0    0  0.52514372301E+01 -0.34313032781E+02 -0.12280794303E+02  0.36820914170E+02  0.00000000000E+00 0. -1.
         11    1    4    4    0    0  0.37872261109E+01  0.91373235085E+01  0.34426760626E+00  0.98970845687E+01  0.51100000000E-03 0. -1.
        -11    1    4    4    0    0 -0.51912495763E+01  0.33373675559E+02  0.97437319719E+01  0.35152405401E+02  0.51100000000E-03 0.  1.
         12    1    4    4    0    0 -0.38474137647E+01 -0.81979662866E+01  0.21927947249E+01  0.93175958605E+01  0.00000000000E+00 0. -1.
</event>
<event>
 8    1  0.1240174E-006  0.9118800E+02  0.7816164E-02  0.1184000E+00
        -11   -1    0    0    0    0  0.00000000000E+00  0.00000000000E+00  0.45593999997E+02  0.45594000000E+02  0.51100000000E-03 0.  1.
         11   -1    0    0    0    0 -0.00000000000E+00 -0.00000000000E+00 -0.45593999997E+02  0.45594000000E+02  0.51100000000E-03 0. -1.
         23    2    1    2    0    0  0.35527136788E-14  0.00000000000E+00 -0.35527136788E-14  0.91188000000E+02  0.91188000000E+02 0.  0.
    9900012    2    3    3    0    0 -0.74128607652E+01  0.22801800093E+02  0.27944721658E+02  0.54367081207E+02  0.39999993229E+02 0.  0.
         12    1    3    3    0    0  0.74128607652E+01 -0.22801800093E+02 -0.27944721658E+02  0.36820918793E+02  0.00000000000E+00 0. -1.
         11    1    4    4    0    0 -0.20944263677E+02  0.10043027937E+02  0.20511867046E+02  0.30988082888E+02  0.51100000000E-03 0.  1.
        -11    1    4    4    0    0  0.11491232847E+02  0.42649472382E+01  0.57043542437E+00  0.12270436183E+02  0.51100000000E-03 0. -1.
        -12    1    4    4    0    0  0.20401700655E+01  0.84938249176E+01  0.68624191876E+01  0.11108562136E+02  0.00000000000E+00 0.  1.
</event>
<event>
 8    1  0.1240174E-006  0.9118800E+02  0.7816164E-02  0.1184000E+00
        -11   -1    0    0    0    0  0.00000000000E+00  0.00000000000E+00  0.45593999997E+02  0.45594000000E+02  0.51100000000E-03 0.  1.
         11   -1    0    0    0    0 -0.00000000000E+00 -0.00000000000E+00 -0.45593999997E+02  0.45594000000E+02  0.51100000000E-03 0. -1.
         23    2    1    2    0    0  0.00000000000E+00  0.00000000000E+00  0.35527136788E-14  0.91188000000E+02  0.91188000000E+02 0.  0.
    9900012    2    3    3    0    0  0.23318838583E+02  0.83233842870E+01  0.27253127131E+02  0.54367083427E+02  0.39999998289E+02 0.  0.
         12    1    3    3    0    0 -0.23318838583E+02 -0.83233842870E+01 -0.27253127131E+02  0.36820916573E+02  0.00000000000E+00 0. -1.
         11    1    4    4    0    0 -0.47825230830E+01 -0.12743897785E+01 -0.66303769400E+01  0.82739648885E+01  0.51100000000E-03 0. -1.
        -11    1    4    4    0    0  0.13864880881E+02  0.95892508293E+01  0.16076122127E+02  0.23294427579E+02  0.51100000000E-03 0.  1.
        -12    1    4    4    0    0  0.14236480785E+02  0.85232361371E-02  0.17807381944E+02  0.22798690960E+02  0.00000000000E+00 0.  1.
</event>
<event>
 8    1  0.1240174E-006  0.9118800E+02  0.7816164E-02  0.1184000E+00
        -11   -1    0    0    0    0  0.00000000000E+00  0.00000000000E+00  0.45593999997E+02  0.45594000000E+02  0.51100000000E-03 0. -1.
         11   -1    0    0    0    0 -0.00000000000E+00 -0.00000000000E+00 -0.45593999997E+02  0.45594000000E+02  0.51100000000E-03 0.  1.
         23    2    1    2    0    0  0.00000000000E+00  0.00000000000E+00  0.00000000000E+00  0.91188000000E+02  0.91188000000E+02 0.  0.
    9900012    2    3    3    0    0  0.68011379906E+01 -0.10648473184E+02  0.34585165416E+02  0.54367093900E+02  0.40000022165E+02 0.  0.
        -12    1    3    3    0    0 -0.68011379906E+01  0.10648473184E+02 -0.34585165416E+02  0.36820906100E+02  0.00000000000E+00 0.  1.
         11    1    4    4    0    0  0.26391472343E+01  0.57458358443E+01 -0.41259885170E+01  0.75500668327E+01  0.51100000000E-03 0.  1.
        -11    1    4    4    0    0 -0.17468739047E+01 -0.28667685255E+01 -0.17223568863E+01  0.37731212176E+01  0.51100000000E-03 0. -1.
         12    1    4    4    0    0  0.59088646610E+01 -0.13527540503E+02  0.40433510819E+02  0.43043905850E+02  0.00000000000E+00 0. -1.
</event>
<event>
 8    1  0.1240174E-006  0.9118800E+02  0.7816164E-02  0.1184000E+00
        -11   -1    0    0    0    0  0.00000000000E+00  0.00000000000E+00  0.45593999997E+02  0.45594000000E+02  0.51100000000E-03 0. -1.
         11   -1    0    0    0    0 -0.00000000000E+00 -0.00000000000E+00 -0.45593999997E+02  0.45594000000E+02  0.51100000000E-03 0.  1.
         23    2    1    2    0    0  0.00000000000E+00  0.88817841970E-15  0.71054273576E-14  0.91188000000E+02  0.91188000000E+02 0.  0.
    9900012    2    3    3    0    0  0.21924154199E+01  0.50351496945E+01  0.36409044815E+02  0.54367109704E+02  0.40000058192E+02 0.  0.
        -12    1    3    3    0    0 -0.21924154199E+01 -0.50351496945E+01 -0.36409044815E+02  0.36820890296E+02  0.00000000000E+00 0.  1.
         11    1    4    4    0    0  0.21248483402E+01 -0.10417342817E+02  0.47458682195E+01  0.11642992625E+02  0.51100000000E-03 0. -1.
        -11    1    4    4    0    0 -0.96804602566E+01  0.58387219242E+01  0.42413434804E+01  0.12074393536E+02  0.51100000000E-03 0.  1.
        -12    1    4    4    0    0  0.97480273363E+01  0.96137705874E+01  0.27421833116E+02  0.30649723543E+02  0.00000000000E+00 0.  1.
</event>
<event>
 8    1  0.1240174E-006  0.9118800E+02  0.7816164E-02  0.1184000E+00
        -11   -1    0    0    0    0  0.00000000000E+00  0.00000000000E+00  0.45593999997E+02  0.45594000000E+02  0.51100000000E-03 0.  1.
         11   -1    0    0    0    0 -0.00000000000E+00 -0.00000000000E+00 -0.45593999997E+02  0.45594000000E+02  0.51100000000E-03 0. -1.
         23    2    1    2    0    0  0.00000000000E+00 -0.44408920985E-15 -0.35527136788E-14  0.91188000000E+02  0.91188000000E+02 0.  0.
    9900012    2    3    3    0    0 -0.18197730126E+02 -0.36857557070E+01  0.31796833493E+02  0.54367071209E+02  0.39999970435E+02 0.  0.
         12    1    3    3    0    0  0.18197730126E+02  0.36857557070E+01 -0.31796833493E+02  0.36820928791E+02  0.00000000000E+00 0. -1.
         11    1    4    4    0    0  0.50643583491E+01  0.77298795200E+01  0.25031420874E+01  0.95741570622E+01  0.51100000000E-03 0. -1.
        -11    1    4    4    0    0 -0.26924802019E+01 -0.21382078184E+01  0.20157334028E+02  0.20448459543E+02  0.51100000000E-03 0.  1.
         12    1    4    4    0    0 -0.20569608273E+02 -0.92774274086E+01  0.91363573772E+01  0.24344454604E+02  0.00000000000E+00 0. -1.
</event>
<event>
 8    1  0.1240174E-006  0.9118800E+02  0.7816164E-02  0.1184000E+00
        -11   -1    0    0    0    0  0.00000000000E+00  0.00000000000E+00  0.45593999997E+02  0.45594000000E+02  0.51100000000E-03 0.  1.
         11   -1    0    0    0    0 -0.00000000000E+00 -0.00000000000E+00 -0.45593999997E+02  0.45594000000E+02  0.51100000000E-03 0. -1.
         23    2    1    2    0    0  0.71054273576E-14  0.17763568394E-14  0.00000000000E+00  0.91188000000E+02  0.91188000000E+02 0.  0.
    9900012    2    3    3    0    0 -0.32226976431E+02 -0.11782844564E+02  0.13355377956E+02  0.54367088058E+02  0.40000008846E+02 0.  0.
         12    1    3    3    0    0  0.32226976431E+02  0.11782844564E+02 -0.13355377956E+02  0.36820911942E+02  0.00000000000E+00 0. -1.
         11    1    4    4    0    0 -0.28575665511E+01  0.32308691853E+01 -0.63553388991E+00  0.43598286518E+01  0.51100000000E-03 0. -1.
        -11    1    4    4    0    0  0.24777547874E+01  0.71942905300E+01 -0.22303487820E+01  0.79291576455E+01  0.51100000000E-03 0.  1.
        -12    1    4    4    0    0 -0.31847164667E+02 -0.22208004280E+02  0.16221260628E+02  0.42078101761E+02  0.00000000000E+00 0.  1.
</event>
<event>
 8    1  0.1240174E-006  0.9118800E+02  0.7816164E-02  0.1184000E+00
        -11   -1    0    0    0    0  0.00000000000E+00  0.00000000000E+00  0.45593999997E+02  0.45594000000E+02  0.51100000000E-03 0.  1.
         11   -1    0    0    0    0 -0.00000000000E+00 -0.00000000000E+00 -0.45593999997E+02  0.45594000000E+02  0.51100000000E-03 0. -1.
         23    2    1    2    0    0  0.00000000000E+00  0.00000000000E+00  0.66613381478E-15  0.91188000000E+02  0.91188000000E+02 0.  0.
    9900012    2    3    3    0    0 -0.33395151402E+02  0.15400163886E+02  0.18382397922E+01  0.54367077818E+02  0.39999985501E+02 0.  0.
        -12    1    3    3    0    0  0.33395151402E+02 -0.15400163886E+02 -0.18382397922E+01  0.36820922182E+02  0.00000000000E+00 0.  1.
         11    1    4    4    0    0 -0.77019606040E+01  0.44982451095E+01  0.10875761333E+02  0.14065439597E+02  0.51100000000E-03 0. -1.
        -11    1    4    4    0    0 -0.14665353412E+02 -0.84928244024E+01 -0.33058864949E+01  0.17266428201E+02  0.51100000000E-03 0.  1.
         12    1    4    4    0    0 -0.11027837386E+02  0.19394743179E+02 -0.57316350464E+01  0.23035210020E+02  0.00000000000E+00 0. -1.
</event>
<event>
 8    1  0.1240174E-006  0.9118800E+02  0.7816164E-02  0.1184000E+00
        -11   -1    0    0    0    0  0.00000000000E+00  0.00000000000E+00  0.45593999997E+02  0.45594000000E+02  0.51100000000E-03 0.  1.
         11   -1    0    0    0    0 -0.00000000000E+00 -0.00000000000E+00 -0.45593999997E+02  0.45594000000E+02  0.51100000000E-03 0. -1.
         23    2    1    2    0    0  0.00000000000E+00 -0.33306690739E-15  0.71054273576E-14  0.91188000000E+02  0.91188000000E+02 0.  0.
    9900012    2    3    3    0    0 -0.18511773790E+02  0.56769439713E+00 -0.31824075601E+02  0.54367084291E+02  0.40000000258E+02 0.  0.
        -12    1    3    3    0    0  0.18511773790E+02 -0.56769439713E+00  0.31824075601E+02  0.36820915709E+02  0.00000000000E+00 0.  1.
         11    1    4    4    0    0 -0.12056562347E+02  0.24704272279E+01  0.30484493527E+01  0.12678988525E+02  0.51100000000E-03 0. -1.
        -11    1    4    4    0    0  0.45586883990E+00  0.19099436088E+01  0.26758952969E+01  0.33190536134E+01  0.51100000000E-03 0.  1.
         12    1    4    4    0    0 -0.69110802833E+01 -0.38126764395E+01 -0.37548420251E+02  0.38369042152E+02  0.00000000000E+00 0. -1.
</event>
<event>
 8    1  0.1240174E-006  0.9118800E+02  0.7816164E-02  0.1184000E+00
        -11   -1    0    0    0    0  0.00000000000E+00  0.00000000000E+00  0.45593999997E+02  0.45594000000E+02  0.51100000000E-03 0. -1.
         11   -1    0    0    0    0 -0.00000000000E+00 -0.00000000000E+00 -0.45593999997E+02  0.45594000000E+02  0.51100000000E-03 0.  1.
         23    2    1    2    0    0 -0.17763568394E-14  0.35527136788E-14  0.00000000000E+00  0.91188000000E+02  0.91188000000E+02 0.  0.
    9900012    2    3    3    0    0  0.93828323165E+01  0.26214211782E+02  0.24094763954E+02  0.54367080788E+02  0.39999992272E+02 0.  0.
        -12    1    3    3    0    0 -0.93828323165E+01 -0.26214211782E+02 -0.24094763954E+02  0.36820919212E+02  0.00000000000E+00 0.  1.
         11    1    4    4    0    0 -0.68530567134E+00  0.15313843803E+02  0.57587050821E+01  0.16375168407E+02  0.51100000000E-03 0. -1.
        -11    1    4    4    0    0 -0.94772579588E+01  0.78018760652E+00  0.26372030333E+00  0.95129732354E+01  0.51100000000E-03 0.  1.
         12    1    4    4    0    0  0.19545395947E+02  0.10120180373E+02  0.18072338568E+02  0.28478939145E+02  0.00000000000E+00 0. -1.
</event>
<event>
 8    1  0.1240174E-006  0.9118800E+02  0.7816164E-02  0.1184000E+00
        -11   -1    0    0    0    0  0.00000000000E+00  0.00000000000E+00  0.45593999997E+02  0.45594000000E+02  0.51100000000E-03 0.  1.
         11   -1    0    0    0    0 -0.00000000000E+00 -0.00000000000E+00 -0.45593999997E+02  0.45594000000E+02  0.51100000000E-03 0. -1.
         23    2    1    2    0    0  0.00000000000E+00  0.00000000000E+00  0.00000000000E+00  0.91188000000E+02  0.91188000000E+02 0.  0.
    9900012    2    3    3    0    0 -0.20823182629E+02  0.23465992885E+02 -0.19274912492E+02  0.54367081917E+02  0.39999994847E+02 0.  0.
        -12    1    3    3    0    0  0.20823182629E+02 -0.23465992885E+02  0.19274912492E+02  0.36820918083E+02  0.00000000000E+00 0.  1.
         11    1    4    4    0    0 -0.20103363410E+02  0.11081434509E+02  0.49970990775E+01  0.23492858715E+02  0.51100000000E-03 0. -1.
        -11    1    4    4    0    0 -0.17882917526E+00  0.11115489445E+02 -0.61595392649E+01  0.12709288324E+02  0.51100000000E-03 0.  1.
        -12    1    4    4    0    0 -0.54099004388E+00  0.12690689318E+01 -0.18112472304E+02  0.18164934879E+02  0.00000000000E+00 0.  1.
</event>
<event>
 8    1  0.1240174E-006  0.9118800E+02  0.7816164E-02  0.1184000E+00
        -11   -1    0    0    0    0  0.00000000000E+00  0.00000000000E+00  0.45593999997E+02  0.45594000000E+02  0.51100000000E-03 0.  1.
         11   -1    0    0    0    0 -0.00000000000E+00 -0.00000000000E+00 -0.45593999997E+02  0.45594000000E+02  0.51100000000E-03 0. -1.
         23    2    1    2    0    0  0.00000000000E+00  0.44408920985E-15  0.00000000000E+00  0.91188000000E+02  0.91188000000E+02 0.  0.
    9900012    2    3    3    0    0  0.36383832641E+02  0.15737416918E+01 -0.54332503685E+01  0.54367079993E+02  0.39999990460E+02 0.  0.
         12    1    3    3    0    0 -0.36383832641E+02 -0.15737416918E+01  0.54332503685E+01  0.36820920007E+02  0.00000000000E+00 0. -1.
         11    1    4    4    0    0  0.15998445131E+02 -0.15513320384E+02  0.42755325025E+01  0.22691265596E+02  0.51100000000E-03 0. -1.
        -11    1    4    4    0    0  0.20944892667E+01 -0.24196611238E+01  0.75751080241E-01  0.32011534999E+01  0.51100000000E-03 0.  1.
        -12    1    4    4    0    0  0.18290898244E+02  0.19506723199E+02 -0.97845339512E+01  0.28474660897E+02  0.00000000000E+00 0.  1.
</event>
<event>
 8    1  0.1240174E-006  0.9118800E+02  0.7816164E-02  0.1184000E+00
        -11   -1    0    0    0    0  0.00000000000E+00  0.00000000000E+00  0.45593999997E+02  0.45594000000E+02  0.51100000000E-03 0. -1.
         11   -1    0    0    0    0 -0.00000000000E+00 -0.00000000000E+00 -0.45593999997E+02  0.45594000000E+02  0.51100000000E-03 0.  1.
         23    2    1    2    0    0 -0.71054273576E-14 -0.35527136788E-14 -0.17763568394E-14  0.91188000000E+02  0.91188000000E+02 0.  0.
    9900012    2    3    3    0    0  0.31629142353E+02  0.17514672781E+02  0.69723817290E+01  0.54367075031E+02  0.39999979149E+02 0.  0.
        -12    1    3    3    0    0 -0.31629142353E+02 -0.17514672781E+02 -0.69723817290E+01  0.36820924969E+02  0.00000000000E+00 0.  1.
         11    1    4    4    0    0  0.34963354505E+02  0.14996585079E+02  0.64652378367E+01  0.38589286374E+02  0.51100000000E-03 0. -1.
        -11    1    4    4    0    0  0.32097553652E+01  0.69373390475E+01  0.15898852304E+01  0.78074924189E+01  0.51100000000E-03 0.  1.
        -12    1    4    4    0    0 -0.65439675176E+01 -0.44192513456E+01 -0.10827413380E+01  0.79702962387E+01  0.00000000000E+00 0.  1.
</event>
<event>
 8    1  0.1240174E-006  0.9118800E+02  0.7816164E-02  0.1184000E+00
        -11   -1    0    0    0    0  0.00000000000E+00  0.00000000000E+00  0.45593999997E+02  0.45594000000E+02  0.51100000000E-03 0. -1.
         11   -1    0    0    0    0 -0.00000000000E+00 -0.00000000000E+00 -0.45593999997E+02  0.45594000000E+02  0.51100000000E-03 0.  1.
         23    2    1    2    0    0 -0.17763568394E-14  0.00000000000E+00 -0.88817841970E-15  0.91188000000E+02  0.91188000000E+02 0.  0.
    9900012    2    3    3    0    0 -0.70241459516E+01 -0.35297760629E+02  0.77788202525E+01  0.54367074207E+02  0.39999977269E+02 0.  0.
         12    1    3    3    0    0  0.70241459516E+01  0.35297760629E+02 -0.77788202525E+01  0.36820925793E+02  0.00000000000E+00 0. -1.
         11    1    4    4    0    0 -0.21572349015E+02 -0.23686728611E+02  0.33751875657E+00  0.32039682793E+02  0.51100000000E-03 0. -1.
        -11    1    4    4    0    0  0.10505248780E+02 -0.11771461654E+02  0.25544290644E+01  0.15982886771E+02  0.51100000000E-03 0.  1.
         12    1    4    4    0    0  0.40429542831E+01  0.16042963640E+00  0.48868724315E+01  0.63445046430E+01  0.00000000000E+00 0. -1.
</event>
<event>
 8    1  0.1240174E-006  0.9118800E+02  0.7816164E-02  0.1184000E+00
        -11   -1    0    0    0    0  0.00000000000E+00  0.00000000000E+00  0.45593999997E+02  0.45594000000E+02  0.51100000000E-03 0.  1.
         11   -1    0    0    0    0 -0.00000000000E+00 -0.00000000000E+00 -0.45593999997E+02  0.45594000000E+02  0.51100000000E-03 0. -1.
         23    2    1    2    0    0  0.69388939039E-15  0.00000000000E+00  0.00000000000E+00  0.91188000000E+02  0.91188000000E+02 0.  0.
    9900012    2    3    3    0    0  0.12411876728E+00 -0.12730821891E+02  0.34549818832E+02  0.54367092721E+02  0.40000019477E+02 0.  0.
         12    1    3    3    0    0 -0.12411876728E+00  0.12730821891E+02 -0.34549818832E+02  0.36820907279E+02  0.00000000000E+00 0. -1.
         11    1    4    4    0    0 -0.53326751441E+01 -0.14214878758E+02  0.18936374170E+02  0.24271103586E+02  0.51100000000E-03 0. -1.
        -11    1    4    4    0    0 -0.72572787450E+01 -0.65282250430E+00  0.15584228427E+02  0.17203559165E+02  0.51100000000E-03 0.  1.
         12    1    4    4    0    0  0.12714072656E+02  0.21368793721E+01  0.29216235503E-01  0.12892429971E+02  0.00000000000E+00 0. -1.
</event>
