<event>
 8    1  0.1212194E-006  0.9118800E+02  0.7816164E-02  0.1184000E+00
        -11   -1    0    0    0    0  0.00000000000E+00  0.00000000000E+00  0.45593999997E+02  0.45594000000E+02  0.51100000000E-03 0.  1.
         11   -1    0    0    0    0 -0.00000000000E+00 -0.00000000000E+00 -0.45593999997E+02  0.45594000000E+02  0.51100000000E-03 0. -1.
         23    2    1    2    0    0  0.00000000000E+00  0.00000000000E+00 -0.26645352591E-14  0.91188000000E+02  0.91188000000E+02 0.  0.
    9900012    2    3    3    0    0  0.11248658312E+02  0.34166824490E+02  0.78663485378E+01  0.54367032483E+02  0.39999882151E+02 0.  0.
         12    1    3    3    0    0 -0.11248658312E+02 -0.34166824490E+02 -0.78663485378E+01  0.36820967517E+02  0.00000000000E+00 0. -1.
         11    1    4    4    0    0  0.12427480660E+01  0.73376751515E+01 -0.51689763685E+01  0.90611376959E+01  0.51100000000E-03 0. -1.
        -11    1    4    4    0    0  0.23983081367E+01  0.23279666235E+02 -0.62921454268E+01  0.24233981024E+02  0.51100000000E-03 0.  1.
        -12    1    4    4    0    0  0.76076021093E+01  0.35494831036E+01  0.19327470333E+02  0.21071913763E+02  0.00000000000E+00 0.  1.
</event>
<event>
 8    1  0.1212194E-006  0.9118800E+02  0.7816164E-02  0.1184000E+00
        -11   -1    0    0    0    0  0.00000000000E+00  0.00000000000E+00  0.45593999997E+02  0.45594000000E+02  0.51100000000E-03 0.  1.
         11   -1    0    0    0    0 -0.00000000000E+00 -0.00000000000E+00 -0.45593999997E+02  0.45594000000E+02  0.51100000000E-03 0. -1.
         23    2    1    2    0    0  0.00000000000E+00  0.00000000000E+00  0.88817841970E-15  0.91188000000E+02  0.91188000000E+02 0.  0.
    9900012    2    3    3    0    0  0.28905319399E+02  0.21576866089E+02 -0.73958824922E+01  0.54367113025E+02  0.40000065763E+02 0.  0.
        -12    1    3    3    0    0 -0.28905319399E+02 -0.21576866089E+02  0.73958824922E+01  0.36820886975E+02  0.00000000000E+00 0.  1.
         11    1    4    4    0    0  0.17176110313E+01 -0.44516970837E+01 -0.75742456360E+01  0.89519267086E+01  0.51100000000E-03 0. -1.
        -11    1    4    4    0    0  0.12397414248E+02 -0.29838655951E+00  0.72995040060E+01  0.14389846197E+02  0.51100000000E-03 0.  1.
         12    1    4    4    0    0  0.14790294120E+02  0.26326949732E+02 -0.71211408621E+01  0.31025340119E+02  0.00000000000E+00 0. -1.
</event>
<event>
 8    1  0.1212194E-006  0.9118800E+02  0.7816164E-02  0.1184000E+00
        -11   -1    0    0    0    0  0.00000000000E+00  0.00000000000E+00  0.45593999997E+02  0.45594000000E+02  0.51100000000E-03 0. -1.
         11   -1    0    0    0    0 -0.00000000000E+00 -0.00000000000E+00 -0.45593999997E+02  0.45594000000E+02  0.51100000000E-03 0.  1.
         23    2    1    2    0    0  0.00000000000E+00  0.17763568394E-14  0.88817841970E-15  0.91188000000E+02  0.91188000000E+02 0.  0.
    9900012    2    3    3    0    0  0.33983755422E+02 -0.13440088719E+02 -0.44996072401E+01  0.54367108068E+02  0.40000054462E+02 0.  0.
         12    1    3    3    0    0 -0.33983755422E+02  0.13440088719E+02  0.44996072401E+01  0.36820891932E+02  0.00000000000E+00 0. -1.
         11    1    4    4    0    0  0.82984225207E+01 -0.48810545598E-01  0.45709893464E+01  0.94741829552E+01  0.51100000000E-03 0. -1.
        -11    1    4    4    0    0  0.28156810146E+01 -0.18816289466E+02  0.15736470594E+01  0.19090761487E+02  0.51100000000E-03 0.  1.
        -12    1    4    4    0    0  0.22869651887E+02  0.54250112926E+01 -0.10644243646E+02  0.25802163625E+02  0.00000000000E+00 0.  1.
</event>
<event>
 8    1  0.1212194E-006  0.9118800E+02  0.7816164E-02  0.1184000E+00
        -11   -1    0    0    0    0  0.00000000000E+00  0.00000000000E+00  0.45593999997E+02  0.45594000000E+02  0.51100000000E-03 0. -1.
         11   -1    0    0    0    0 -0.00000000000E+00 -0.00000000000E+00 -0.45593999997E+02  0.45594000000E+02  0.51100000000E-03 0.  1.
         23    2    1    2    0    0 -0.35527136788E-14  0.00000000000E+00  0.35527136788E-14  0.91188000000E+02  0.91188000000E+02 0.  0.
    9900012    2    3    3    0    0  0.22322335494E+02 -0.12923488130E+02  0.26276942424E+02  0.54367069667E+02  0.39999966921E+02 0.  0.
        -12    1    3    3    0    0 -0.22322335494E+02  0.12923488130E+02 -0.26276942424E+02  0.36820930333E+02  0.00000000000E+00 0.  1.
         11    1    4    4    0    0  0.14880144907E+02 -0.83564591098E+01  0.31682725829E+02  0.35986723073E+02  0.51100000000E-03 0. -1.
        -11    1    4    4    0    0 -0.32311967466E+01 -0.61556140420E-01  0.27243817967E+01  0.42268993375E+01  0.51100000000E-03 0.  1.
         12    1    4    4    0    0  0.10673387334E+02 -0.45054728796E+01 -0.81301652016E+01  0.14153447257E+02  0.00000000000E+00 0. -1.
</event>
<event>
 8    1  0.1212194E-006  0.9118800E+02  0.7816164E-02  0.1184000E+00
        -11   -1    0    0    0    0  0.00000000000E+00  0.00000000000E+00  0.45593999997E+02  0.45594000000E+02  0.51100000000E-03 0.  1.
         11   -1    0    0    0    0 -0.00000000000E+00 -0.00000000000E+00 -0.45593999997E+02  0.45594000000E+02  0.51100000000E-03 0. -1.
         23    2    1    2    0    0  0.00000000000E+00  0.17763568394E-14  0.00000000000E+00  0.91188000000E+02  0.91188000000E+02 0.  0.
    9900012    2    3    3    0    0  0.36729578965E+01  0.97482712745E+01  0.35316567046E+02  0.54367091260E+02  0.40000016145E+02 0.  0.
         12    1    3    3    0    0 -0.36729578965E+01 -0.97482712745E+01 -0.35316567046E+02  0.36820908740E+02  0.00000000000E+00 0. -1.
         11    1    4    4    0    0  0.21573124251E+01 -0.12504109571E+01  0.14986195259E+00  0.24979958621E+01  0.51100000000E-03 0. -1.
        -11    1    4    4    0    0  0.23011147528E+01  0.19826823646E+02  0.52098471620E+01  0.20628634775E+02  0.51100000000E-03 0.  1.
        -12    1    4    4    0    0 -0.78546928146E+00 -0.88281414140E+01  0.29956857931E+02  0.31240460623E+02  0.00000000000E+00 0.  1.
</event>
<event>
 8    1  0.1212194E-006  0.9118800E+02  0.7816164E-02  0.1184000E+00
        -11   -1    0    0    0    0  0.00000000000E+00  0.00000000000E+00  0.45593999997E+02  0.45594000000E+02  0.51100000000E-03 0.  1.
         11   -1    0    0    0    0 -0.00000000000E+00 -0.00000000000E+00 -0.45593999997E+02  0.45594000000E+02  0.51100000000E-03 0. -1.
         23    2    1    2    0    0 -0.71054273576E-14 -0.17763568394E-14 -0.35527136788E-14  0.91188000000E+02  0.91188000000E+02 0.  0.
    9900012    2    3    3    0    0  0.30562559912E+02 -0.11749822908E+02  0.16841940540E+02  0.54367090615E+02  0.40000014676E+02 0.  0.
         12    1    3    3    0    0 -0.30562559912E+02  0.11749822908E+02 -0.16841940540E+02  0.36820909385E+02  0.00000000000E+00 0. -1.
         11    1    4    4    0    0  0.94894090990E+01  0.25062470965E+01  0.12619535743E+02  0.15986958503E+02  0.51100000000E-03 0. -1.
        -11    1    4    4    0    0 -0.53060748247E+01 -0.40416643035E+01  0.73437347794E+01  0.99206814866E+01  0.51100000000E-03 0.  1.
        -12    1    4    4    0    0  0.26379225638E+02 -0.10214405701E+02 -0.31213299815E+01  0.28459450626E+02  0.00000000000E+00 0.  1.
</event>
<event>
 8    1  0.1212194E-006  0.9118800E+02  0.7816164E-02  0.1184000E+00
        -11   -1    0    0    0    0  0.00000000000E+00  0.00000000000E+00  0.45593999997E+02  0.45594000000E+02  0.51100000000E-03 0. -1.
         11   -1    0    0    0    0 -0.00000000000E+00 -0.00000000000E+00 -0.45593999997E+02  0.45594000000E+02  0.51100000000E-03 0.  1.
         23    2    1    2    0    0 -0.35527136788E-14 -0.22204460493E-15 -0.35527136788E-14  0.91188000000E+02  0.91188000000E+02 0.  0.
    9900012    2    3    3    0    0  0.25424983538E+02 -0.10150621186E+01  0.26614286346E+02  0.54367076916E+02  0.39999983447E+02 0.  0.
        -12    1    3    3    0    0 -0.25424983538E+02  0.10150621186E+01 -0.26614286346E+02  0.36820923084E+02  0.00000000000E+00 0.  1.
         11    1    4    4    0    0  0.63508885436E+01  0.22256758025E+01  0.20510818981E+02  0.21586595692E+02  0.51100000000E-03 0. -1.
        -11    1    4    4    0    0 -0.40247145897E+01 -0.74044159543E+01 -0.36153592273E+00  0.84353074418E+01  0.51100000000E-03 0.  1.
         12    1    4    4    0    0  0.23098809584E+02  0.41636780332E+01  0.64650032880E+01  0.24345173782E+02  0.00000000000E+00 0. -1.
</event>
<event>
 8    1  0.1212194E-006  0.9118800E+02  0.7816164E-02  0.1184000E+00
        -11   -1    0    0    0    0  0.00000000000E+00  0.00000000000E+00  0.45593999997E+02  0.45594000000E+02  0.51100000000E-03 0.  1.
         11   -1    0    0    0    0 -0.00000000000E+00 -0.00000000000E+00 -0.45593999997E+02  0.45594000000E+02  0.51100000000E-03 0. -1.
         23    2    1    2    0    0  0.35527136788E-14  0.35527136788E-14  0.00000000000E+00  0.91188000000E+02  0.91188000000E+02 0.  0.
    9900012    2    3    3    0    0 -0.96153275247E+01 -0.26845031402E+02 -0.23295314881E+02  0.54367055827E+02  0.39999935369E+02 0.  0.
        -12    1    3    3    0    0  0.96153275247E+01  0.26845031402E+02  0.23295314881E+02  0.36820944173E+02  0.00000000000E+00 0.  1.
         11    1    4    4    0    0 -0.19415304387E+02 -0.38052827051E+01 -0.12052164764E+02  0.23166546930E+02  0.51100000000E-03 0. -1.
        -11    1    4    4    0    0  0.35057795417E+01 -0.18695664427E+02 -0.18847597540E+01  0.19114671804E+02  0.51100000000E-03 0.  1.
         12    1    4    4    0    0  0.62941973206E+01 -0.43440842693E+01 -0.93583903630E+01  0.12085837093E+02  0.00000000000E+00 0. -1.
</event>
<event>
 8    1  0.1212194E-006  0.9118800E+02  0.7816164E-02  0.1184000E+00
        -11   -1    0    0    0    0  0.00000000000E+00  0.00000000000E+00  0.45593999997E+02  0.45594000000E+02  0.51100000000E-03 0.  1.
         11   -1    0    0    0    0 -0.00000000000E+00 -0.00000000000E+00 -0.45593999997E+02  0.45594000000E+02  0.51100000000E-03 0. -1.
         23    2    1    2    0    0  0.35527136788E-14  0.00000000000E+00  0.00000000000E+00  0.91188000000E+02  0.91188000000E+02 0.  0.
    9900012    2    3    3    0    0  0.22553698252E+02  0.24708165389E+02 -0.15382411233E+02  0.54367064147E+02  0.39999954336E+02 0.  0.
        -12    1    3    3    0    0 -0.22553698252E+02 -0.24708165389E+02  0.15382411233E+02  0.36820935853E+02  0.00000000000E+00 0.  1.
         11    1    4    4    0    0  0.19650917449E+02  0.15547504592E+02  0.32467412307E+01  0.25267069171E+02  0.51100000000E-03 0. -1.
        -11    1    4    4    0    0 -0.57438462769E+01  0.39296655823E+00 -0.15294759939E+02  0.16342456199E+02  0.51100000000E-03 0.  1.
        -12    1    4    4    0    0  0.86466270803E+01  0.87676942392E+01 -0.33343925248E+01  0.12757538777E+02  0.00000000000E+00 0.  1.
</event>
<event>
 8    1  0.1212194E-006  0.9118800E+02  0.7816164E-02  0.1184000E+00
        -11   -1    0    0    0    0  0.00000000000E+00  0.00000000000E+00  0.45593999997E+02  0.45594000000E+02  0.51100000000E-03 0.  1.
         11   -1    0    0    0    0 -0.00000000000E+00 -0.00000000000E+00 -0.45593999997E+02  0.45594000000E+02  0.51100000000E-03 0. -1.
         23    2    1    2    0    0  0.00000000000E+00  0.00000000000E+00  0.35527136788E-14  0.91188000000E+02  0.91188000000E+02 0.  0.
    9900012    2    3    3    0    0 -0.16678063246E+02 -0.26286248057E+02 -0.19663478713E+02  0.54367122421E+02  0.40000087183E+02 0.  0.
         12    1    3    3    0    0  0.16678063246E+02  0.26286248057E+02  0.19663478713E+02  0.36820877579E+02  0.00000000000E+00 0. -1.
         11    1    4    4    0    0 -0.41210924409E+01  0.20167627016E+01 -0.15179351498E+02  0.15857599026E+02  0.51100000000E-03 0. -1.
        -11    1    4    4    0    0 -0.16899202814E+01  0.17627577372E+01 -0.60269910938E+01  0.65029045283E+01  0.51100000000E-03 0.  1.
        -12    1    4    4    0    0 -0.10867050524E+02 -0.30065768496E+02  0.15428638784E+01  0.32006618867E+02  0.00000000000E+00 0.  1.
</event>
<event>
 8    1  0.1212194E-006  0.9118800E+02  0.7816164E-02  0.1184000E+00
        -11   -1    0    0    0    0  0.00000000000E+00  0.00000000000E+00  0.45593999997E+02  0.45594000000E+02  0.51100000000E-03 0.  1.
         11   -1    0    0    0    0 -0.00000000000E+00 -0.00000000000E+00 -0.45593999997E+02  0.45594000000E+02  0.51100000000E-03 0. -1.
         23    2    1    2    0    0 -0.17763568394E-14  0.00000000000E+00 -0.71054273576E-14  0.91188000000E+02  0.91188000000E+02 0.  0.
    9900012    2    3    3    0    0 -0.10379325232E+02 -0.97053593410E+01 -0.33968446000E+02  0.54367085891E+02  0.40000003905E+02 0.  0.
        -12    1    3    3    0    0  0.10379325232E+02  0.97053593410E+01  0.33968446000E+02  0.36820914109E+02  0.00000000000E+00 0.  1.
         11    1    4    4    0    0  0.95377411117E+01 -0.83087277583E+01 -0.23656035051E+02  0.26825574683E+02  0.51100000000E-03 0. -1.
        -11    1    4    4    0    0 -0.20792099655E+02 -0.32103043680E+01 -0.12576920956E+02  0.24511148549E+02  0.51100000000E-03 0.  1.
         12    1    4    4    0    0  0.87503331070E+00  0.18136727853E+01  0.22645100077E+01  0.30303626585E+01  0.00000000000E+00 0. -1.
</event>
<event>
 8    1  0.1212194E-006  0.9118800E+02  0.7816164E-02  0.1184000E+00
        -11   -1    0    0    0    0  0.00000000000E+00  0.00000000000E+00  0.45593999997E+02  0.45594000000E+02  0.51100000000E-03 0.  1.
         11   -1    0    0    0    0 -0.00000000000E+00 -0.00000000000E+00 -0.45593999997E+02  0.45594000000E+02  0.51100000000E-03 0. -1.
         23    2    1    2    0    0  0.00000000000E+00  0.15265566589E-15  0.00000000000E+00  0.91188000000E+02  0.91188000000E+02 0.  0.
    9900012    2    3    3    0    0  0.33547227835E+02 -0.84816343611E-01  0.15177477942E+02  0.54367088470E+02  0.40000009784E+02 0.  0.
        -12    1    3    3    0    0 -0.33547227835E+02  0.84816343611E-01 -0.15177477942E+02  0.36820911530E+02  0.00000000000E+00 0.  1.
         11    1    4    4    0    0  0.96753998633E+01 -0.45409878708E+01 -0.26657086659E+01  0.11015440813E+02  0.51100000000E-03 0. -1.
        -11    1    4    4    0    0 -0.38003829489E+01  0.70274967774E+01 -0.30822084582E+01  0.85632138100E+01  0.51100000000E-03 0.  1.
        -12    1    4    4    0    0  0.27672210921E+02 -0.25713252502E+01  0.20925395067E+02  0.34788433846E+02  0.00000000000E+00 0.  1.
</event>
<event>
 8    1  0.1212194E-006  0.9118800E+02  0.7816164E-02  0.1184000E+00
        -11   -1    0    0    0    0  0.00000000000E+00  0.00000000000E+00  0.45593999997E+02  0.45594000000E+02  0.51100000000E-03 0. -1.
         11   -1    0    0    0    0 -0.00000000000E+00 -0.00000000000E+00 -0.45593999997E+02  0.45594000000E+02  0.51100000000E-03 0.  1.
         23    2    1    2    0    0 -0.17763568394E-14  0.00000000000E+00  0.17763568394E-14  0.91188000000E+02  0.91188000000E+02 0.  0.
    9900012    2    3    3    0    0  0.11599999654E+02  0.32373995184E+02 -0.13157964599E+02  0.54367250571E+02  0.40000379325E+02 0.  0.
        -12    1    3    3    0    0 -0.11599999654E+02 -0.32373995184E+02  0.13157964599E+02  0.36820749429E+02  0.00000000000E+00 0.  1.
         11    1    4    4    0    0  0.53602276345E+00  0.25806962520E+01 -0.97081613015E+01  0.10059607829E+02  0.51100000000E-03 0. -1.
        -11    1    4    4    0    0 -0.29130821264E+01 -0.45987165093E+01  0.35919572203E+01  0.65219934025E+01  0.51100000000E-03 0.  1.
         12    1    4    4    0    0  0.13977059017E+02  0.34392015441E+02 -0.70417605177E+01  0.37785649340E+02  0.00000000000E+00 0. -1.
</event>
<event>
 8    1  0.1212194E-006  0.9118800E+02  0.7816164E-02  0.1184000E+00
        -11   -1    0    0    0    0  0.00000000000E+00  0.00000000000E+00  0.45593999997E+02  0.45594000000E+02  0.51100000000E-03 0. -1.
         11   -1    0    0    0    0 -0.00000000000E+00 -0.00000000000E+00 -0.45593999997E+02  0.45594000000E+02  0.51100000000E-03 0.  1.
         23    2    1    2    0    0 -0.17763568394E-14 -0.35527136788E-14  0.35527136788E-14  0.91188000000E+02  0.91188000000E+02 0.  0.
    9900012    2    3    3    0    0  0.15845893433E+02 -0.22538766433E+02  0.24427288984E+02  0.54367071466E+02  0.39999971022E+02 0.  0.
        -12    1    3    3    0    0 -0.15845893433E+02  0.22538766433E+02 -0.24427288984E+02  0.36820928534E+02  0.00000000000E+00 0.  1.
         11    1    4    4    0    0  0.64160654137E+01 -0.14811215098E+02  0.21137935355E+02  0.26596057968E+02  0.51100000000E-03 0. -1.
        -11    1    4    4    0    0  0.14691772063E+02 -0.68158315135E+01  0.10122239008E+02  0.19098781332E+02  0.51100000000E-03 0.  1.
        -12    1    4    4    0    0 -0.52619440436E+01 -0.91171982092E+00 -0.68328853793E+01  0.86722321669E+01  0.00000000000E+00 0.  1.
</event>
<event>
 8    1  0.1212194E-006  0.9118800E+02  0.7816164E-02  0.1184000E+00
        -11   -1    0    0    0    0  0.00000000000E+00  0.00000000000E+00  0.45593999997E+02  0.45594000000E+02  0.51100000000E-03 0.  1.
         11   -1    0    0    0    0 -0.00000000000E+00 -0.00000000000E+00 -0.45593999997E+02  0.45594000000E+02  0.51100000000E-03 0. -1.
         23    2    1    2    0    0  0.88817841970E-15  0.00000000000E+00 -0.88817841970E-15  0.91188000000E+02  0.91188000000E+02 0.  0.
    9900012    2    3    3    0    0 -0.46018379977E+01  0.36244686165E+02 -0.45744405274E+01  0.54367086183E+02  0.40000004571E+02 0.  0.
        -12    1    3    3    0    0  0.46018379977E+01 -0.36244686165E+02  0.45744405274E+01  0.36820913817E+02  0.00000000000E+00 0.  1.
         11    1    4    4    0    0  0.11462519810E+02  0.29044581664E+02  0.79209276069E+01  0.32213633431E+02  0.51100000000E-03 0. -1.
        -11    1    4    4    0    0 -0.39614966933E+00  0.55858907034E+00  0.40785361900E+00  0.79705780572E+00  0.51100000000E-03 0.  1.
         12    1    4    4    0    0 -0.15668208138E+02  0.66415154314E+01 -0.12903221753E+02  0.21356394946E+02  0.00000000000E+00 0. -1.
</event>
<event>
 8    1  0.1212194E-006  0.9118800E+02  0.7816164E-02  0.1184000E+00
        -11   -1    0    0    0    0  0.00000000000E+00  0.00000000000E+00  0.45593999997E+02  0.45594000000E+02  0.51100000000E-03 0.  1.
         11   -1    0    0    0    0 -0.00000000000E+00 -0.00000000000E+00 -0.45593999997E+02  0.45594000000E+02  0.51100000000E-03 0. -1.
         23    2    1    2    0    0 -0.41633363423E-15  0.00000000000E+00  0.35527136788E-14  0.91188000000E+02  0.91188000000E+02 0.  0.
    9900012    2    3    3    0    0  0.18253090697E+00  0.25995511642E+02  0.26076436484E+02  0.54367075477E+02  0.39999980165E+02 0.  0.
         12    1    3    3    0    0 -0.18253090697E+00 -0.25995511642E+02 -0.26076436484E+02  0.36820924523E+02  0.00000000000E+00 0. -1.
         11    1    4    4    0    0 -0.10965107003E+02  0.10512669017E+02  0.39591386728E+01  0.15697915809E+02  0.51100000000E-03 0. -1.
        -11    1    4    4    0    0  0.11167492090E+02  0.21885216808E+02  0.13823188519E+02  0.28191419535E+02  0.51100000000E-03 0.  1.
        -12    1    4    4    0    0 -0.19854180028E-01 -0.64023741825E+01  0.82941092915E+01  0.10477740133E+02  0.00000000000E+00 0.  1.
</event>
<event>
 8    1  0.1212194E-006  0.9118800E+02  0.7816164E-02  0.1184000E+00
        -11   -1    0    0    0    0  0.00000000000E+00  0.00000000000E+00  0.45593999997E+02  0.45594000000E+02  0.51100000000E-03 0.  1.
         11   -1    0    0    0    0 -0.00000000000E+00 -0.00000000000E+00 -0.45593999997E+02  0.45594000000E+02  0.51100000000E-03 0. -1.
         23    2    1    2    0    0 -0.35527136788E-14  0.44408920985E-15  0.00000000000E+00  0.91188000000E+02  0.91188000000E+02 0.  0.
    9900012    2    3    3    0    0  0.31499195794E+02  0.33748494999E+01  0.18766736976E+02  0.54367090702E+02  0.40000014873E+02 0.  0.
         12    1    3    3    0    0 -0.31499195794E+02 -0.33748494999E+01 -0.18766736976E+02  0.36820909298E+02  0.00000000000E+00 0. -1.
         11    1    4    4    0    0  0.12238932168E+02  0.15088965247E+02  0.16087004588E+01  0.19495031425E+02  0.51100000000E-03 0. -1.
        -11    1    4    4    0    0  0.21354031171E+02 -0.34839488680E+01  0.14197033132E+02  0.25878336441E+02  0.51100000000E-03 0.  1.
        -12    1    4    4    0    0 -0.20937675452E+01 -0.82301668790E+01  0.29610033855E+01  0.89937228354E+01  0.00000000000E+00 0.  1.
</event>
<event>
 8    1  0.1212194E-006  0.9118800E+02  0.7816164E-02  0.1184000E+00
        -11   -1    0    0    0    0  0.00000000000E+00  0.00000000000E+00  0.45593999997E+02  0.45594000000E+02  0.51100000000E-03 0.  1.
         11   -1    0    0    0    0 -0.00000000000E+00 -0.00000000000E+00 -0.45593999997E+02  0.45594000000E+02  0.51100000000E-03 0. -1.
         23    2    1    2    0    0  0.00000000000E+00  0.00000000000E+00  0.00000000000E+00  0.91188000000E+02  0.91188000000E+02 0.  0.
    9900012    2    3    3    0    0  0.32311015720E+02 -0.10923994393E+02  0.13872538041E+02  0.54367045340E+02  0.39999911462E+02 0.  0.
         12    1    3    3    0    0 -0.32311015720E+02  0.10923994393E+02 -0.13872538041E+02  0.36820954660E+02  0.00000000000E+00 0. -1.
         11    1    4    4    0    0 -0.41097802344E+01  0.48265493260E+01 -0.46587935706E+01  0.78670343692E+01  0.51100000000E-03 0. -1.
        -11    1    4    4    0    0  0.21162719558E+02 -0.12295762639E+02  0.18785641180E+02  0.30853635002E+02  0.51100000000E-03 0.  1.
        -12    1    4    4    0    0  0.15258076396E+02 -0.34547810798E+01 -0.25430956846E+00  0.15646375969E+02  0.00000000000E+00 0.  1.
</event>
<event>
 8    1  0.1212194E-006  0.9118800E+02  0.7816164E-02  0.1184000E+00
        -11   -1    0    0    0    0  0.00000000000E+00  0.00000000000E+00  0.45593999997E+02  0.45594000000E+02  0.51100000000E-03 0.  1.
         11   -1    0    0    0    0 -0.00000000000E+00 -0.00000000000E+00 -0.45593999997E+02  0.45594000000E+02  0.51100000000E-03 0. -1.
         23    2    1    2    0    0  0.00000000000E+00  0.00000000000E+00 -0.35527136788E-14  0.91188000000E+02  0.91188000000E+02 0.  0.
    9900012    2    3    3    0    0  0.50710793585E+01  0.25342609221E+02 -0.26226282814E+02  0.54367060329E+02  0.39999945633E+02 0.  0.
        -12    1    3    3    0    0 -0.50710793585E+01 -0.25342609221E+02  0.26226282814E+02  0.36820939671E+02  0.00000000000E+00 0.  1.
         11    1    4    4    0    0  0.11774738073E+01  0.91072802606E+01  0.56970583924E+00  0.92007371072E+01  0.51100000000E-03 0. -1.
        -11    1    4    4    0    0 -0.73323382698E+00 -0.98431517806E+01 -0.70284122788E+01  0.12117089099E+02  0.51100000000E-03 0.  1.
         12    1    4    4    0    0  0.46268393781E+01  0.26078480741E+02 -0.19767576374E+02  0.33049234123E+02  0.00000000000E+00 0. -1.
</event>
<event>
 8    1  0.1212194E-006  0.9118800E+02  0.7816164E-02  0.1184000E+00
        -11   -1    0    0    0    0  0.00000000000E+00  0.00000000000E+00  0.45593999997E+02  0.45594000000E+02  0.51100000000E-03 0.  1.
         11   -1    0    0    0    0 -0.00000000000E+00 -0.00000000000E+00 -0.45593999997E+02  0.45594000000E+02  0.51100000000E-03 0. -1.
         23    2    1    2    0    0  0.00000000000E+00  0.00000000000E+00 -0.71054273576E-14  0.91188000000E+02  0.91188000000E+02 0.  0.
    9900012    2    3    3    0    0 -0.23485627584E+02 -0.11051361461E+02  0.26116525748E+02  0.54367079176E+02  0.39999988598E+02 0.  0.
         12    1    3    3    0    0  0.23485627584E+02  0.11051361461E+02 -0.26116525748E+02  0.36820920824E+02  0.00000000000E+00 0. -1.
         11    1    4    4    0    0 -0.94575268144E+01 -0.12991266769E+02  0.87372520993E+01  0.18290910317E+02  0.51100000000E-03 0. -1.
        -11    1    4    4    0    0 -0.55902706175E+01 -0.74153107814E+01  0.21005237210E+02  0.22966452710E+02  0.51100000000E-03 0.  1.
         12    1    4    4    0    0 -0.84378301522E+01  0.93552160902E+01 -0.36259635613E+01  0.13109716149E+02  0.00000000000E+00 0. -1.
</event>
<event>
 8    1  0.1212194E-006  0.9118800E+02  0.7816164E-02  0.1184000E+00
        -11   -1    0    0    0    0  0.00000000000E+00  0.00000000000E+00  0.45593999997E+02  0.45594000000E+02  0.51100000000E-03 0.  1.
         11   -1    0    0    0    0 -0.00000000000E+00 -0.00000000000E+00 -0.45593999997E+02  0.45594000000E+02  0.51100000000E-03 0. -1.
         23    2    1    2    0    0 -0.88817841970E-15  0.71054273576E-14 -0.35527136788E-14  0.91188000000E+02  0.91188000000E+02 0.  0.
    9900012    2    3    3    0    0  0.31558416317E+01 -0.34452422701E+02  0.12603662728E+02  0.54367067359E+02  0.39999961659E+02 0.  0.
         12    1    3    3    0    0 -0.31558416317E+01  0.34452422701E+02 -0.12603662728E+02  0.36820932641E+02  0.00000000000E+00 0. -1.
         11    1    4    4    0    0 -0.99165001208E+01 -0.11163202437E+02  0.16634267465E+02  0.22352917431E+02  0.51100000000E-03 0. -1.
        -11    1    4    4    0    0 -0.11207446620E+00 -0.17124026523E+02 -0.33120930234E+01  0.17441754656E+02  0.51100000000E-03 0.  1.
        -12    1    4    4    0    0  0.13184416219E+02 -0.61651937414E+01 -0.71851171363E+00  0.14572395273E+02  0.00000000000E+00 0.  1.
</event>
<event>
 8    1  0.1212194E-006  0.9118800E+02  0.7816164E-02  0.1184000E+00
        -11   -1    0    0    0    0  0.00000000000E+00  0.00000000000E+00  0.45593999997E+02  0.45594000000E+02  0.51100000000E-03 0. -1.
         11   -1    0    0    0    0 -0.00000000000E+00 -0.00000000000E+00 -0.45593999997E+02  0.45594000000E+02  0.51100000000E-03 0.  1.
         23    2    1    2    0    0  0.00000000000E+00  0.00000000000E+00  0.00000000000E+00  0.91188000000E+02  0.91188000000E+02 0.  0.
    9900012    2    3    3    0    0 -0.20460143714E+01 -0.10248664575E+02 -0.35306626833E+02  0.54367092913E+02  0.40000019913E+02 0.  0.
         12    1    3    3    0    0  0.20460143714E+01  0.10248664575E+02  0.35306626833E+02  0.36820907087E+02  0.00000000000E+00 0. -1.
         11    1    4    4    0    0  0.35970914001E+01  0.23540870190E+01 -0.15332326696E+01  0.45641642076E+01  0.51100000000E-03 0. -1.
        -11    1    4    4    0    0 -0.19349642000E+02 -0.24112732445E+01 -0.18867392050E+02  0.27133030925E+02  0.51100000000E-03 0.  1.
        -12    1    4    4    0    0  0.13706536228E+02 -0.10191478350E+02 -0.14906002114E+02  0.22669897780E+02  0.00000000000E+00 0.  1.
</event>
<event>
 8    1  0.1212194E-006  0.9118800E+02  0.7816164E-02  0.1184000E+00
        -11   -1    0    0    0    0  0.00000000000E+00  0.00000000000E+00  0.45593999997E+02  0.45594000000E+02  0.51100000000E-03 0.  1.
         11   -1    0    0    0    0 -0.00000000000E+00 -0.00000000000E+00 -0.45593999997E+02  0.45594000000E+02  0.51100000000E-03 0. -1.
         23    2    1    2    0    0  0.17763568394E-14  0.35527136788E-14  0.35527136788E-14  0.91188000000E+02  0.91188000000E+02 0.  0.
    9900012    2    3    3    0    0 -0.15723327682E+02 -0.26620907231E+02 -0.19997087936E+02  0.54367092066E+02  0.40000017983E+02 0.  0.
        -12    1    3    3    0    0  0.15723327682E+02  0.26620907231E+02  0.19997087936E+02  0.36820907934E+02  0.00000000000E+00 0.  1.
         11    1    4    4    0    0 -0.15220644505E+02 -0.25352795994E+02 -0.28873322578E+02  0.41329179048E+02  0.51100000000E-03 0. -1.
        -11    1    4    4    0    0 -0.36387685574E+01 -0.25081370864E+01  0.85815891564E+01  0.96527229821E+01  0.51100000000E-03 0.  1.
         12    1    4    4    0    0  0.31360853797E+01  0.12400258495E+01  0.29464548584E+00  0.33851900358E+01  0.00000000000E+00 0. -1.
</event>
<event>
 8    1  0.1212194E-006  0.9118800E+02  0.7816164E-02  0.1184000E+00
        -11   -1    0    0    0    0  0.00000000000E+00  0.00000000000E+00  0.45593999997E+02  0.45594000000E+02  0.51100000000E-03 0. -1.
         11   -1    0    0    0    0 -0.00000000000E+00 -0.00000000000E+00 -0.45593999997E+02  0.45594000000E+02  0.51100000000E-03 0.  1.
         23    2    1    2    0    0  0.00000000000E+00  0.99920072216E-15 -0.17763568394E-14  0.91188000000E+02  0.91188000000E+02 0.  0.
    9900012    2    3    3    0    0  0.33968496791E+02 -0.22771304928E+00 -0.14208063747E+02  0.54367086066E+02  0.40000004305E+02 0.  0.
         12    1    3    3    0    0 -0.33968496791E+02  0.22771304928E+00  0.14208063747E+02  0.36820913934E+02  0.00000000000E+00 0. -1.
         11    1    4    4    0    0  0.77597929875E+01 -0.88505494650E+01 -0.16599067828E+02  0.20348849257E+02  0.51100000000E-03 0. -1.
        -11    1    4    4    0    0  0.27435529515E+02  0.77251512998E+01 -0.27712588939E+01  0.28636796583E+02  0.51100000000E-03 0.  1.
         12    1    4    4    0    0 -0.12268257117E+01  0.89768511601E+00  0.51622629749E+01  0.53814402270E+01  0.00000000000E+00 0. -1.
</event>
<event>
 8    1  0.1212194E-006  0.9118800E+02  0.7816164E-02  0.1184000E+00
        -11   -1    0    0    0    0  0.00000000000E+00  0.00000000000E+00  0.45593999997E+02  0.45594000000E+02  0.51100000000E-03 0.  1.
         11   -1    0    0    0    0 -0.00000000000E+00 -0.00000000000E+00 -0.45593999997E+02  0.45594000000E+02  0.51100000000E-03 0. -1.
         23    2    1    2    0    0  0.00000000000E+00  0.00000000000E+00  0.00000000000E+00  0.91188000000E+02  0.91188000000E+02 0.  0.
    9900012    2    3    3    0    0  0.97376296021E+01 -0.35487618440E+02  0.12606445474E+01  0.54367058710E+02  0.39999941941E+02 0.  0.
         12    1    3    3    0    0 -0.97376296021E+01  0.35487618440E+02 -0.12606445474E+01  0.36820941290E+02  0.00000000000E+00 0. -1.
         11    1    4    4    0    0  0.12992941773E+02 -0.24361195982E+01 -0.21381539280E+01  0.13391150701E+02  0.51100000000E-03 0. -1.
        -11    1    4    4    0    0  0.32565763471E+01  0.24340300794E+01  0.27196338481E+01  0.48914415524E+01  0.51100000000E-03 0.  1.
        -12    1    4    4    0    0 -0.65118885177E+01 -0.35485528921E+02  0.67916462725E+00  0.36084466457E+02  0.00000000000E+00 0.  1.
</event>
<event>
 8    1  0.1212194E-006  0.9118800E+02  0.7816164E-02  0.1184000E+00
        -11   -1    0    0    0    0  0.00000000000E+00  0.00000000000E+00  0.45593999997E+02  0.45594000000E+02  0.51100000000E-03 0.  1.
         11   -1    0    0    0    0 -0.00000000000E+00 -0.00000000000E+00 -0.45593999997E+02  0.45594000000E+02  0.51100000000E-03 0. -1.
         23    2    1    2    0    0  0.00000000000E+00  0.00000000000E+00  0.88817841970E-15  0.91188000000E+02  0.91188000000E+02 0.  0.
    9900012    2    3    3    0    0  0.27355328715E+02  0.24255688103E+02 -0.43733778547E+01  0.54367097671E+02  0.40000030760E+02 0.  0.
        -12    1    3    3    0    0 -0.27355328715E+02 -0.24255688103E+02  0.43733778547E+01  0.36820902329E+02  0.00000000000E+00 0.  1.
         11    1    4    4    0    0  0.15619895793E+02  0.85852181410E+01 -0.52016330918E+01  0.18567285806E+02  0.51100000000E-03 0. -1.
        -11    1    4    4    0    0  0.21512063796E+02  0.72948540020E+01  0.23496463413E+01  0.22836475688E+02  0.51100000000E-03 0.  1.
        -12    1    4    4    0    0 -0.97766308732E+01  0.83756159604E+01 -0.15213911042E+01  0.12963336177E+02  0.00000000000E+00 0.  1.
</event>
<event>
 8    1  0.1212194E-006  0.9118800E+02  0.7816164E-02  0.1184000E+00
        -11   -1    0    0    0    0  0.00000000000E+00  0.00000000000E+00  0.45593999997E+02  0.45594000000E+02  0.51100000000E-03 0.  1.
         11   -1    0    0    0    0 -0.00000000000E+00 -0.00000000000E+00 -0.45593999997E+02  0.45594000000E+02  0.51100000000E-03 0. -1.
         23    2    1    2    0    0  0.00000000000E+00  0.35527136788E-14 -0.17763568394E-14  0.91188000000E+02  0.91188000000E+02 0.  0.
    9900012    2    3    3    0    0  0.21181208328E+02  0.29568634546E+02  0.57299451926E+01  0.54367081936E+02  0.39999994889E+02 0.  0.
         12    1    3    3    0    0 -0.21181208328E+02 -0.29568634546E+02 -0.57299451926E+01  0.36820918064E+02  0.00000000000E+00 0. -1.
         11    1    4    4    0    0  0.31634786286E+01  0.11071598986E+02  0.16143296538E+02  0.19829118097E+02  0.51100000000E-03 0. -1.
        -11    1    4    4    0    0  0.20524511578E+02  0.81300693648E+01 -0.87330581140E+01  0.23740680438E+02  0.51100000000E-03 0.  1.
        -12    1    4    4    0    0 -0.25067818780E+01  0.10366966196E+02 -0.16802932313E+01  0.10797283401E+02  0.00000000000E+00 0.  1.
</event>
<event>
 8    1  0.1212194E-006  0.9118800E+02  0.7816164E-02  0.1184000E+00
        -11   -1    0    0    0    0  0.00000000000E+00  0.00000000000E+00  0.45593999997E+02  0.45594000000E+02  0.51100000000E-03 0. -1.
         11   -1    0    0    0    0 -0.00000000000E+00 -0.00000000000E+00 -0.45593999997E+02  0.45594000000E+02  0.51100000000E-03 0.  1.
         23    2    1    2    0    0  0.00000000000E+00 -0.88817841970E-15  0.35527136788E-14  0.91188000000E+02  0.91188000000E+02 0.  0.
    9900012    2    3    3    0    0  0.32345731028E+02 -0.60033647601E+01  0.16537675444E+02  0.54367062841E+02  0.39999951359E+02 0.  0.
        -12    1    3    3    0    0 -0.32345731028E+02  0.60033647601E+01 -0.16537675444E+02  0.36820937159E+02  0.00000000000E+00 0.  1.
         11    1    4    4    0    0  0.22296645228E+02  0.95035216978E+01  0.86271342740E+01  0.25727121082E+02  0.51100000000E-03 0. -1.
        -11    1    4    4    0    0 -0.55891619507E+01 -0.13812537748E+00  0.13167455704E+01  0.57438340061E+01  0.51100000000E-03 0.  1.
         12    1    4    4    0    0  0.15638247750E+02 -0.15368761080E+02  0.65937955995E+01  0.22896107753E+02  0.00000000000E+00 0. -1.
</event>
<event>
 8    1  0.1212194E-006  0.9118800E+02  0.7816164E-02  0.1184000E+00
        -11   -1    0    0    0    0  0.00000000000E+00  0.00000000000E+00  0.45593999997E+02  0.45594000000E+02  0.51100000000E-03 0.  1.
         11   -1    0    0    0    0 -0.00000000000E+00 -0.00000000000E+00 -0.45593999997E+02  0.45594000000E+02  0.51100000000E-03 0. -1.
         23    2    1    2    0    0 -0.35527136788E-14  0.00000000000E+00  0.00000000000E+00  0.91188000000E+02  0.91188000000E+02 0.  0.
    9900012    2    3    3    0    0 -0.28705745976E+02 -0.16543252067E+02 -0.16064878569E+02  0.54367090662E+02  0.40000014783E+02 0.  0.
        -12    1    3    3    0    0  0.28705745976E+02  0.16543252067E+02  0.16064878569E+02  0.36820909338E+02  0.00000000000E+00 0.  1.
         11    1    4    4    0    0 -0.75542612125E+01 -0.14079368843E+02 -0.12130913614E+02  0.20061270021E+02  0.51100000000E-03 0. -1.
        -11    1    4    4    0    0 -0.14108914705E+02 -0.14394964392E+02 -0.33995174412E+01  0.20440968497E+02  0.51100000000E-03 0.  1.
        -12    1    4    4    0    0 -0.70425700587E+01  0.11931081167E+02 -0.53444751388E+00  0.13864852145E+02  0.00000000000E+00 0.  1.
</event>
<event>
 8    1  0.1212194E-006  0.9118800E+02  0.7816164E-02  0.1184000E+00
        -11   -1    0    0    0    0  0.00000000000E+00  0.00000000000E+00  0.45593999997E+02  0.45594000000E+02  0.51100000000E-03 0. -1.
         11   -1    0    0    0    0 -0.00000000000E+00 -0.00000000000E+00 -0.45593999997E+02  0.45594000000E+02  0.51100000000E-03 0.  1.
         23    2    1    2    0    0 -0.17763568394E-14  0.00000000000E+00 -0.35527136788E-14  0.91188000000E+02  0.91188000000E+02 0.  0.
    9900012    2    3    3    0    0 -0.14377447591E+02  0.11556413861E+02 -0.31867198459E+02  0.54367081513E+02  0.39999993926E+02 0.  0.
         12    1    3    3    0    0  0.14377447591E+02 -0.11556413861E+02  0.31867198459E+02  0.36820918487E+02  0.00000000000E+00 0. -1.
         11    1    4    4    0    0  0.36283418834E+00  0.15966332321E+02 -0.48633637019E+01  0.16694541719E+02  0.51100000000E-03 0. -1.
        -11    1    4    4    0    0 -0.57247006315E+01  0.65466741744E+01 -0.20084147631E+02  0.21886162898E+02  0.51100000000E-03 0.  1.
         12    1    4    4    0    0 -0.90155811477E+01 -0.10956592634E+02 -0.69196871266E+01  0.15786376897E+02  0.00000000000E+00 0. -1.
</event>
<event>
 8    1  0.1212194E-006  0.9118800E+02  0.7816164E-02  0.1184000E+00
        -11   -1    0    0    0    0  0.00000000000E+00  0.00000000000E+00  0.45593999997E+02  0.45594000000E+02  0.51100000000E-03 0.  1.
         11   -1    0    0    0    0 -0.00000000000E+00 -0.00000000000E+00 -0.45593999997E+02  0.45594000000E+02  0.51100000000E-03 0. -1.
         23    2    1    2    0    0  0.00000000000E+00  0.00000000000E+00  0.00000000000E+00  0.91188000000E+02  0.91188000000E+02 0.  0.
    9900012    2    3    3    0    0 -0.11872162662E+02 -0.32297747040E+02 -0.13102921670E+02  0.54367091993E+02  0.40000017817E+02 0.  0.
         12    1    3    3    0    0  0.11872162662E+02  0.32297747040E+02  0.13102921670E+02  0.36820908007E+02  0.00000000000E+00 0. -1.
         11    1    4    4    0    0 -0.17904441943E+02 -0.60959780395E+01 -0.45627993396E+01  0.19456339009E+02  0.51100000000E-03 0. -1.
        -11    1    4    4    0    0 -0.62167586420E+01 -0.16881078224E+01 -0.14010707060E+01  0.65924802174E+01  0.51100000000E-03 0.  1.
        -12    1    4    4    0    0  0.12249037923E+02 -0.24513661178E+02 -0.71390516243E+01  0.28318272767E+02  0.00000000000E+00 0.  1.
</event>
<event>
 8    1  0.1212194E-006  0.9118800E+02  0.7816164E-02  0.1184000E+00
        -11   -1    0    0    0    0  0.00000000000E+00  0.00000000000E+00  0.45593999997E+02  0.45594000000E+02  0.51100000000E-03 0. -1.
         11   -1    0    0    0    0 -0.00000000000E+00 -0.00000000000E+00 -0.45593999997E+02  0.45594000000E+02  0.51100000000E-03 0.  1.
         23    2    1    2    0    0  0.00000000000E+00  0.00000000000E+00  0.00000000000E+00  0.91188000000E+02  0.91188000000E+02 0.  0.
    9900012    2    3    3    0    0  0.24060860876E+02 -0.23270949149E+02  0.15340061322E+02  0.54367087712E+02  0.40000008057E+02 0.  0.
        -12    1    3    3    0    0 -0.24060860876E+02  0.23270949149E+02 -0.15340061322E+02  0.36820912288E+02  0.00000000000E+00 0.  1.
         11    1    4    4    0    0  0.70966831185E+01 -0.21867002543E+02  0.55274674911E+01  0.23644906611E+02  0.51100000000E-03 0. -1.
        -11    1    4    4    0    0  0.20805632901E+02 -0.88283422726E+00  0.13940165388E+02  0.25059568392E+02  0.51100000000E-03 0.  1.
        -12    1    4    4    0    0 -0.38414551439E+01 -0.52111237842E+00 -0.41275715572E+01  0.56626127091E+01  0.00000000000E+00 0.  1.
</event>
<event>
 8    1  0.1212194E-006  0.9118800E+02  0.7816164E-02  0.1184000E+00
        -11   -1    0    0    0    0  0.00000000000E+00  0.00000000000E+00  0.45593999997E+02  0.45594000000E+02  0.51100000000E-03 0. -1.
         11   -1    0    0    0    0 -0.00000000000E+00 -0.00000000000E+00 -0.45593999997E+02  0.45594000000E+02  0.51100000000E-03 0.  1.
         23    2    1    2    0    0  0.44408920985E-15  0.00000000000E+00  0.17763568394E-14  0.91188000000E+02  0.91188000000E+02 0.  0.
    9900012    2    3    3    0    0  0.36350272789E+01 -0.33215505143E+02 -0.15469242849E+02  0.54367072804E+02  0.39999974072E+02 0.  0.
         12    1    3    3    0    0 -0.36350272789E+01  0.33215505143E+02  0.15469242849E+02  0.36820927196E+02  0.00000000000E+00 0. -1.
         11    1    4    4    0    0 -0.81525063230E+01 -0.30884378881E+02 -0.55770403859E+01  0.32425477605E+02  0.51100000000E-03 0. -1.
        -11    1    4    4    0    0 -0.16243815420E+01 -0.34763264657E+01 -0.72806136541E+01  0.82298722063E+01  0.51100000000E-03 0.  1.
         12    1    4    4    0    0  0.13411915144E+02  0.11452002034E+01 -0.26115888091E+01  0.13711722993E+02  0.00000000000E+00 0. -1.
</event>
<event>
 8    1  0.1212194E-006  0.9118800E+02  0.7816164E-02  0.1184000E+00
        -11   -1    0    0    0    0  0.00000000000E+00  0.00000000000E+00  0.45593999997E+02  0.45594000000E+02  0.51100000000E-03 0. -1.
         11   -1    0    0    0    0 -0.00000000000E+00 -0.00000000000E+00 -0.45593999997E+02  0.45594000000E+02  0.51100000000E-03 0.  1.
         23    2    1    2    0    0  0.00000000000E+00  0.00000000000E+00  0.35527136788E-14  0.91188000000E+02  0.91188000000E+02 0.  0.
    9900012    2    3    3    0    0 -0.23020371199E+02 -0.13636873797E+01  0.28705100163E+02  0.54367083270E+02  0.39999997931E+02 0.  0.
        -12    1    3    3    0    0  0.23020371199E+02  0.13636873797E+01 -0.28705100163E+02  0.36820916730E+02  0.00000000000E+00 0.  1.
         11    1    4    4    0    0 -0.11960033155E+02  0.32210375712E+01  0.37212746022E+02  0.39219968674E+02  0.51100000000E-03 0. -1.
        -11    1    4    4    0    0 -0.68978100397E+01 -0.37841562144E+01 -0.73170984823E+01  0.10744279969E+02  0.51100000000E-03 0.  1.
         12    1    4    4    0    0 -0.41625280049E+01 -0.80056873648E+00 -0.11905473760E+01  0.44028346265E+01  0.00000000000E+00 0. -1.
</event>
<event>
 8    1  0.1212194E-006  0.9118800E+02  0.7816164E-02  0.1184000E+00
        -11   -1    0    0    0    0  0.00000000000E+00  0.00000000000E+00  0.45593999997E+02  0.45594000000E+02  0.51100000000E-03 0.  1.
         11   -1    0    0    0    0 -0.00000000000E+00 -0.00000000000E+00 -0.45593999997E+02  0.45594000000E+02  0.51100000000E-03 0. -1.
         23    2    1    2    0    0  0.35527136788E-14  0.35527136788E-14 -0.35527136788E-14  0.91188000000E+02  0.91188000000E+02 0.  0.
    9900012    2    3    3    0    0  0.16160888448E+02  0.24260514626E+02  0.22495204137E+02  0.54367067169E+02  0.39999961226E+02 0.  0.
         12    1    3    3    0    0 -0.16160888448E+02 -0.24260514626E+02 -0.22495204137E+02  0.36820932831E+02  0.00000000000E+00 0. -1.
         11    1    4    4    0    0 -0.27870340212E+01 -0.34485549603E+01  0.15463376183E+01  0.46958758757E+01  0.51100000000E-03 0. -1.
        -11    1    4    4    0    0  0.14327393756E+02 -0.16168792354E+01  0.11723783716E+02  0.18583207882E+02  0.51100000000E-03 0.  1.
         12    1    4    4    0    0  0.46205287134E+01  0.29325948822E+02  0.92250828024E+01  0.31087983412E+02  0.00000000000E+00 0. -1.
</event>
<event>
 8    1  0.1212194E-006  0.9118800E+02  0.7816164E-02  0.1184000E+00
        -11   -1    0    0    0    0  0.00000000000E+00  0.00000000000E+00  0.45593999997E+02  0.45594000000E+02  0.51100000000E-03 0. -1.
         11   -1    0    0    0    0 -0.00000000000E+00 -0.00000000000E+00 -0.45593999997E+02  0.45594000000E+02  0.51100000000E-03 0.  1.
         23    2    1    2    0    0  0.22204460493E-15 -0.44408920985E-14  0.00000000000E+00  0.91188000000E+02  0.91188000000E+02 0.  0.
    9900012    2    3    3    0    0  0.62733480025E+00 -0.21743993932E+01  0.36751293206E+02  0.54367094063E+02  0.40000022536E+02 0.  0.
        -12    1    3    3    0    0 -0.62733480025E+00  0.21743993932E+01 -0.36751293206E+02  0.36820905937E+02  0.00000000000E+00 0.  1.
         11    1    4    4    0    0  0.47335777472E+01  0.44149322402E+01  0.76183625227E+01  0.99968911549E+01  0.51100000000E-03 0. -1.
        -11    1    4    4    0    0  0.15300120897E+01 -0.17682021331E+02  0.26101191320E+02  0.31563697564E+02  0.51100000000E-03 0.  1.
        -12    1    4    4    0    0 -0.56362550366E+01  0.11092689698E+02  0.30317393638E+01  0.12806505344E+02  0.00000000000E+00 0.  1.
</event>
<event>
 8    1  0.1212194E-006  0.9118800E+02  0.7816164E-02  0.1184000E+00
        -11   -1    0    0    0    0  0.00000000000E+00  0.00000000000E+00  0.45593999997E+02  0.45594000000E+02  0.51100000000E-03 0.  1.
         11   -1    0    0    0    0 -0.00000000000E+00 -0.00000000000E+00 -0.45593999997E+02  0.45594000000E+02  0.51100000000E-03 0. -1.
         23    2    1    2    0    0  0.00000000000E+00  0.00000000000E+00  0.88817841970E-15  0.91188000000E+02  0.91188000000E+02 0.  0.
    9900012    2    3    3    0    0 -0.10955080857E+02 -0.34489533609E+02 -0.67998858574E+01  0.54367079685E+02  0.39999989758E+02 0.  0.
        -12    1    3    3    0    0  0.10955080857E+02  0.34489533609E+02  0.67998858574E+01  0.36820920315E+02  0.00000000000E+00 0.  1.
         11    1    4    4    0    0 -0.53950890575E+01  0.17277181739E+01 -0.10089582241E+02  0.11571156644E+02  0.51100000000E-03 0. -1.
        -11    1    4    4    0    0 -0.79192750213E+01 -0.72636012968E+01 -0.59868395705E+01  0.12301100315E+02  0.51100000000E-03 0.  1.
         12    1    4    4    0    0  0.23592832221E+01 -0.28953650486E+02  0.92765359536E+01  0.30494822726E+02  0.00000000000E+00 0. -1.
</event>
<event>
 8    1  0.1212194E-006  0.9118800E+02  0.7816164E-02  0.1184000E+00
        -11   -1    0    0    0    0  0.00000000000E+00  0.00000000000E+00  0.45593999997E+02  0.45594000000E+02  0.51100000000E-03 0. -1.
         11   -1    0    0    0    0 -0.00000000000E+00 -0.00000000000E+00 -0.45593999997E+02  0.45594000000E+02  0.51100000000E-03 0.  1.
         23    2    1    2    0    0 -0.88817841970E-15  0.35527136788E-14  0.00000000000E+00  0.91188000000E+02  0.91188000000E+02 0.  0.
    9900012    2    3    3    0    0 -0.55964214087E+01  0.19244523244E+02 -0.30888632652E+02  0.54367092426E+02  0.40000018802E+02 0.  0.
         12    1    3    3    0    0  0.55964214087E+01 -0.19244523244E+02  0.30888632652E+02  0.36820907574E+02  0.00000000000E+00 0. -1.
         11    1    4    4    0    0 -0.56384458338E+01 -0.67126957946E+00 -0.32375181292E+01  0.65363750020E+01  0.51100000000E-03 0. -1.
        -11    1    4    4    0    0 -0.93862763436E+01  0.25537655644E+02 -0.23946961400E+02  0.36245427297E+02  0.51100000000E-03 0.  1.
        -12    1    4    4    0    0  0.94283007687E+01 -0.56218628201E+01 -0.37041531225E+01  0.11585290126E+02  0.00000000000E+00 0.  1.
</event>
<event>
 8    1  0.1212194E-006  0.9118800E+02  0.7816164E-02  0.1184000E+00
        -11   -1    0    0    0    0  0.00000000000E+00  0.00000000000E+00  0.45593999997E+02  0.45594000000E+02  0.51100000000E-03 0.  1.
         11   -1    0    0    0    0 -0.00000000000E+00 -0.00000000000E+00 -0.45593999997E+02  0.45594000000E+02  0.51100000000E-03 0. -1.
         23    2    1    2    0    0  0.35527136788E-14  0.00000000000E+00  0.71054273576E-14  0.91188000000E+02  0.91188000000E+02 0.  0.
    9900012    2    3    3    0    0 -0.83400948769E+01 -0.19873871878E+02 -0.29853833597E+02  0.54367090907E+02  0.40000015342E+02 0.  0.
        -12    1    3    3    0    0  0.83400948769E+01  0.19873871878E+02  0.29853833597E+02  0.36820909093E+02  0.00000000000E+00 0.  1.
         11    1    4    4    0    0 -0.35516873568E+01 -0.58033056136E+01 -0.93511413294E+01  0.11564457772E+02  0.51100000000E-03 0. -1.
        -11    1    4    4    0    0 -0.19249300246E+02 -0.32929332957E+01 -0.11109852317E+02  0.22467927996E+02  0.51100000000E-03 0.  1.
         12    1    4    4    0    0  0.14460892725E+02 -0.10777632968E+02 -0.93928399502E+01  0.20334705140E+02  0.00000000000E+00 0. -1.
</event>
<event>
 8    1  0.1212194E-006  0.9118800E+02  0.7816164E-02  0.1184000E+00
        -11   -1    0    0    0    0  0.00000000000E+00  0.00000000000E+00  0.45593999997E+02  0.45594000000E+02  0.51100000000E-03 0. -1.
         11   -1    0    0    0    0 -0.00000000000E+00 -0.00000000000E+00 -0.45593999997E+02  0.45594000000E+02  0.51100000000E-03 0.  1.
         23    2    1    2    0    0  0.00000000000E+00  0.17763568394E-14  0.71054273576E-14  0.91188000000E+02  0.91188000000E+02 0.  0.
    9900012    2    3    3    0    0 -0.18025779519E+02 -0.77441374676E+01 -0.31158939487E+02  0.54367083358E+02  0.39999998132E+02 0.  0.
         12    1    3    3    0    0  0.18025779519E+02  0.77441374676E+01  0.31158939487E+02  0.36820916642E+02  0.00000000000E+00 0. -1.
         11    1    4    4    0    0 -0.92632720468E+01 -0.76228020123E+01  0.27843747504E+01  0.12315358807E+02  0.51100000000E-03 0. -1.
        -11    1    4    4    0    0 -0.24127618106E+01 -0.11343487577E+02 -0.12673894026E+02  0.17179165288E+02  0.51100000000E-03 0.  1.
         12    1    4    4    0    0 -0.63497456618E+01  0.11222152121E+02 -0.21269420211E+02  0.24872559263E+02  0.00000000000E+00 0. -1.
</event>
<event>
 8    1  0.1212194E-006  0.9118800E+02  0.7816164E-02  0.1184000E+00
        -11   -1    0    0    0    0  0.00000000000E+00  0.00000000000E+00  0.45593999997E+02  0.45594000000E+02  0.51100000000E-03 0.  1.
         11   -1    0    0    0    0 -0.00000000000E+00 -0.00000000000E+00 -0.45593999997E+02  0.45594000000E+02  0.51100000000E-03 0. -1.
         23    2    1    2    0    0  0.00000000000E+00 -0.44408920985E-15 -0.35527136788E-14  0.91188000000E+02  0.91188000000E+02 0.  0.
    9900012    2    3    3    0    0 -0.27298545909E+02 -0.39336078389E+01 -0.24394609106E+02  0.54367070723E+02  0.39999969327E+02 0.  0.
        -12    1    3    3    0    0  0.27298545909E+02  0.39336078389E+01  0.24394609106E+02  0.36820929277E+02  0.00000000000E+00 0.  1.
         11    1    4    4    0    0 -0.63532602029E+01  0.45943338781E+00 -0.51769794286E+01  0.82082952255E+01  0.51100000000E-03 0. -1.
        -11    1    4    4    0    0 -0.30258784763E+02 -0.19389585645E+01 -0.20266667039E+02  0.36470418270E+02  0.51100000000E-03 0.  1.
        -12    1    4    4    0    0  0.93134990564E+01 -0.24540826622E+01  0.10490373617E+01  0.96883572277E+01  0.00000000000E+00 0.  1.
</event>
<event>
 8    1  0.1212194E-006  0.9118800E+02  0.7816164E-02  0.1184000E+00
        -11   -1    0    0    0    0  0.00000000000E+00  0.00000000000E+00  0.45593999997E+02  0.45594000000E+02  0.51100000000E-03 0. -1.
         11   -1    0    0    0    0 -0.00000000000E+00 -0.00000000000E+00 -0.45593999997E+02  0.45594000000E+02  0.51100000000E-03 0.  1.
         23    2    1    2    0    0  0.71054273576E-14  0.00000000000E+00 -0.71054273576E-14  0.91188000000E+02  0.91188000000E+02 0.  0.
    9900012    2    3    3    0    0  0.28957502888E+02 -0.14846484555E+02 -0.17228600679E+02  0.54367085311E+02  0.40000002584E+02 0.  0.
         12    1    3    3    0    0 -0.28957502888E+02  0.14846484555E+02  0.17228600679E+02  0.36820914689E+02  0.00000000000E+00 0. -1.
         11    1    4    4    0    0 -0.61130549862E+00 -0.11527001979E+01 -0.90249517276E+01  0.91187809550E+01  0.51100000000E-03 0. -1.
        -11    1    4    4    0    0  0.17861622362E+02  0.16134705236E+01 -0.16404152620E+02  0.24305083090E+02  0.51100000000E-03 0.  1.
         12    1    4    4    0    0  0.11707186024E+02 -0.15307254881E+02  0.82005036692E+01  0.20943221266E+02  0.00000000000E+00 0. -1.
</event>
<event>
 8    1  0.1212194E-006  0.9118800E+02  0.7816164E-02  0.1184000E+00
        -11   -1    0    0    0    0  0.00000000000E+00  0.00000000000E+00  0.45593999997E+02  0.45594000000E+02  0.51100000000E-03 0.  1.
         11   -1    0    0    0    0 -0.00000000000E+00 -0.00000000000E+00 -0.45593999997E+02  0.45594000000E+02  0.51100000000E-03 0. -1.
         23    2    1    2    0    0  0.35527136788E-14  0.00000000000E+00 -0.35527136788E-14  0.91188000000E+02  0.91188000000E+02 0.  0.
    9900012    2    3    3    0    0  0.16035875643E+02  0.28879715259E+02  0.16266230411E+02  0.54367115805E+02  0.40000072102E+02 0.  0.
         12    1    3    3    0    0 -0.16035875643E+02 -0.28879715259E+02 -0.16266230411E+02  0.36820884195E+02  0.00000000000E+00 0. -1.
         11    1    4    4    0    0  0.87508615273E+01  0.46683022036E+01 -0.88938629150E+01  0.13321839991E+02  0.51100000000E-03 0. -1.
        -11    1    4    4    0    0  0.34101742024E+01  0.27275539017E+02  0.21169824785E+02  0.34695039969E+02  0.51100000000E-03 0.  1.
        -12    1    4    4    0    0  0.38748399135E+01 -0.30641259616E+01  0.39902685408E+01  0.63502358454E+01  0.00000000000E+00 0.  1.
</event>
<event>
 8    1  0.1212194E-006  0.9118800E+02  0.7816164E-02  0.1184000E+00
        -11   -1    0    0    0    0  0.00000000000E+00  0.00000000000E+00  0.45593999997E+02  0.45594000000E+02  0.51100000000E-03 0. -1.
         11   -1    0    0    0    0 -0.00000000000E+00 -0.00000000000E+00 -0.45593999997E+02  0.45594000000E+02  0.51100000000E-03 0.  1.
         23    2    1    2    0    0  0.35527136788E-14  0.35527136788E-14  0.35527136788E-14  0.91188000000E+02  0.91188000000E+02 0.  0.
    9900012    2    3    3    0    0 -0.30113831461E+02 -0.17926771200E+02  0.11294580139E+02  0.54367088667E+02  0.40000010234E+02 0.  0.
        -12    1    3    3    0    0  0.30113831461E+02  0.17926771200E+02 -0.11294580139E+02  0.36820911333E+02  0.00000000000E+00 0.  1.
         11    1    4    4    0    0 -0.21571723071E+02 -0.11155649384E+02  0.23888361108E+01  0.24402751641E+02  0.51100000000E-03 0. -1.
        -11    1    4    4    0    0 -0.10406117633E+02  0.22745051829E+01 -0.61513667468E+01  0.12300405324E+02  0.51100000000E-03 0.  1.
        -12    1    4    4    0    0  0.18640092437E+01 -0.90456269991E+01  0.15057110775E+02  0.17663931702E+02  0.00000000000E+00 0.  1.
</event>
<event>
 8    1  0.1212194E-006  0.9118800E+02  0.7816164E-02  0.1184000E+00
        -11   -1    0    0    0    0  0.00000000000E+00  0.00000000000E+00  0.45593999997E+02  0.45594000000E+02  0.51100000000E-03 0. -1.
         11   -1    0    0    0    0 -0.00000000000E+00 -0.00000000000E+00 -0.45593999997E+02  0.45594000000E+02  0.51100000000E-03 0.  1.
         23    2    1    2    0    0  0.17763568394E-14  0.00000000000E+00 -0.35527136788E-14  0.91188000000E+02  0.91188000000E+02 0.  0.
    9900012    2    3    3    0    0 -0.10531103952E+02  0.32117688514E+02 -0.14605804503E+02  0.54367087584E+02  0.40000007765E+02 0.  0.
         12    1    3    3    0    0  0.10531103952E+02 -0.32117688514E+02  0.14605804503E+02  0.36820912416E+02  0.00000000000E+00 0. -1.
         11    1    4    4    0    0  0.95616635441E+00 -0.41073938741E+00 -0.70898603416E+01  0.71658272981E+01  0.51100000000E-03 0. -1.
        -11    1    4    4    0    0  0.88736472374E+01  0.23543804433E+01  0.23699290435E+01  0.94816288948E+01  0.51100000000E-03 0.  1.
         12    1    4    4    0    0 -0.20360917544E+02  0.30174047459E+02 -0.98858732054E+01  0.37719631391E+02  0.00000000000E+00 0. -1.
</event>
<event>
 8    1  0.1212194E-006  0.9118800E+02  0.7816164E-02  0.1184000E+00
        -11   -1    0    0    0    0  0.00000000000E+00  0.00000000000E+00  0.45593999997E+02  0.45594000000E+02  0.51100000000E-03 0. -1.
         11   -1    0    0    0    0 -0.00000000000E+00 -0.00000000000E+00 -0.45593999997E+02  0.45594000000E+02  0.51100000000E-03 0.  1.
         23    2    1    2    0    0  0.00000000000E+00 -0.35527136788E-14  0.00000000000E+00  0.91188000000E+02  0.91188000000E+02 0.  0.
    9900012    2    3    3    0    0 -0.51813333388E+01 -0.18889406034E+02 -0.31178881930E+02  0.54367101669E+02  0.40000039875E+02 0.  0.
        -12    1    3    3    0    0  0.51813333388E+01  0.18889406034E+02  0.31178881930E+02  0.36820898331E+02  0.00000000000E+00 0.  1.
         11    1    4    4    0    0  0.16791071850E+02 -0.10245092922E+02 -0.13395275578E+02  0.23797803069E+02  0.51100000000E-03 0. -1.
        -11    1    4    4    0    0 -0.15963929017E+02 -0.97610025790E+01 -0.14148315169E+02  0.23458453133E+02  0.51100000000E-03 0.  1.
         12    1    4    4    0    0 -0.60084761719E+01  0.11166894676E+01 -0.36352911835E+01  0.71108454676E+01  0.00000000000E+00 0. -1.
</event>
<event>
 8    1  0.1212194E-006  0.9118800E+02  0.7816164E-02  0.1184000E+00
        -11   -1    0    0    0    0  0.00000000000E+00  0.00000000000E+00  0.45593999997E+02  0.45594000000E+02  0.51100000000E-03 0. -1.
         11   -1    0    0    0    0 -0.00000000000E+00 -0.00000000000E+00 -0.45593999997E+02  0.45594000000E+02  0.51100000000E-03 0.  1.
         23    2    1    2    0    0  0.35527136788E-14  0.72164496601E-15 -0.35527136788E-14  0.91188000000E+02  0.91188000000E+02 0.  0.
    9900012    2    3    3    0    0  0.26110418676E+02 -0.49330517544E+00 -0.25957350481E+02  0.54367063600E+02  0.39999953088E+02 0.  0.
         12    1    3    3    0    0 -0.26110418676E+02  0.49330517544E+00  0.25957350481E+02  0.36820936400E+02  0.00000000000E+00 0. -1.
         11    1    4    4    0    0  0.25082902478E+02  0.41964814967E+01 -0.13162556576E+02  0.28635910140E+02  0.51100000000E-03 0. -1.
        -11    1    4    4    0    0  0.79557650086E+01  0.46779845448E+01 -0.12231729070E+01  0.93098812288E+01  0.51100000000E-03 0.  1.
         12    1    4    4    0    0 -0.69282488111E+01 -0.93677712169E+01 -0.11571620997E+02  0.16421272231E+02  0.00000000000E+00 0. -1.
</event>
<event>
 8    1  0.1212194E-006  0.9118800E+02  0.7816164E-02  0.1184000E+00
        -11   -1    0    0    0    0  0.00000000000E+00  0.00000000000E+00  0.45593999997E+02  0.45594000000E+02  0.51100000000E-03 0. -1.
         11   -1    0    0    0    0 -0.00000000000E+00 -0.00000000000E+00 -0.45593999997E+02  0.45594000000E+02  0.51100000000E-03 0.  1.
         23    2    1    2    0    0  0.00000000000E+00  0.00000000000E+00  0.00000000000E+00  0.91188000000E+02  0.91188000000E+02 0.  0.
    9900012    2    3    3    0    0  0.58006501622E+01  0.20747030119E+02 -0.29861215464E+02  0.54367095746E+02  0.40000026372E+02 0.  0.
         12    1    3    3    0    0 -0.58006501622E+01 -0.20747030119E+02  0.29861215464E+02  0.36820904254E+02  0.00000000000E+00 0. -1.
         11    1    4    4    0    0  0.88646350435E+01  0.18848244815E+02 -0.20143114791E+01  0.20925953695E+02  0.51100000000E-03 0. -1.
        -11    1    4    4    0    0 -0.49883762727E+01  0.80591025153E+01 -0.74738521543E+01  0.12070273297E+02  0.51100000000E-03 0.  1.
         12    1    4    4    0    0  0.19243913915E+01 -0.61603172107E+01 -0.20373051831E+02  0.21370868753E+02  0.00000000000E+00 0. -1.
</event>
<event>
 8    1  0.1212194E-006  0.9118800E+02  0.7816164E-02  0.1184000E+00
        -11   -1    0    0    0    0  0.00000000000E+00  0.00000000000E+00  0.45593999997E+02  0.45594000000E+02  0.51100000000E-03 0. -1.
         11   -1    0    0    0    0 -0.00000000000E+00 -0.00000000000E+00 -0.45593999997E+02  0.45594000000E+02  0.51100000000E-03 0.  1.
         23    2    1    2    0    0  0.35527136788E-14  0.00000000000E+00 -0.71054273576E-14  0.91188000000E+02  0.91188000000E+02 0.  0.
    9900012    2    3    3    0    0 -0.87472430872E+01 -0.11733778612E+02  0.33787361980E+02  0.54367059603E+02  0.39999943977E+02 0.  0.
        -12    1    3    3    0    0  0.87472430872E+01  0.11733778612E+02 -0.33787361980E+02  0.36820940397E+02  0.00000000000E+00 0.  1.
         11    1    4    4    0    0 -0.10012881933E+02 -0.35957595197E+01  0.16422574311E+02  0.19567530206E+02  0.51100000000E-03 0. -1.
        -11    1    4    4    0    0  0.11491254106E+02 -0.10673276851E+02  0.14994801225E+01  0.15754878628E+02  0.51100000000E-03 0.  1.
        -12    1    4    4    0    0 -0.10225615261E+02  0.25352577586E+01  0.15865307547E+02  0.19044650769E+02  0.00000000000E+00 0.  1.
</event>
<event>
 8    1  0.1212194E-006  0.9118800E+02  0.7816164E-02  0.1184000E+00
        -11   -1    0    0    0    0  0.00000000000E+00  0.00000000000E+00  0.45593999997E+02  0.45594000000E+02  0.51100000000E-03 0. -1.
         11   -1    0    0    0    0 -0.00000000000E+00 -0.00000000000E+00 -0.45593999997E+02  0.45594000000E+02  0.51100000000E-03 0.  1.
         23    2    1    2    0    0  0.00000000000E+00  0.00000000000E+00  0.00000000000E+00  0.91188000000E+02  0.91188000000E+02 0.  0.
    9900012    2    3    3    0    0  0.31466956199E+02  0.17944075676E+02 -0.66046355347E+01  0.54367076670E+02  0.39999982885E+02 0.  0.
        -12    1    3    3    0    0 -0.31466956199E+02 -0.17944075676E+02  0.66046355347E+01  0.36820923330E+02  0.00000000000E+00 0.  1.
         11    1    4    4    0    0  0.27513478139E+02  0.34687486766E+01  0.16950826725E+01  0.27783034431E+02  0.51100000000E-03 0. -1.
        -11    1    4    4    0    0 -0.99549443030E+00  0.53199351011E+01 -0.13792292364E+02  0.14816208946E+02  0.51100000000E-03 0.  1.
         12    1    4    4    0    0  0.49489724903E+01  0.91553918988E+01  0.54925741564E+01  0.11767833292E+02  0.00000000000E+00 0. -1.
</event>
<event>
 8    1  0.1212194E-006  0.9118800E+02  0.7816164E-02  0.1184000E+00
        -11   -1    0    0    0    0  0.00000000000E+00  0.00000000000E+00  0.45593999997E+02  0.45594000000E+02  0.51100000000E-03 0. -1.
         11   -1    0    0    0    0 -0.00000000000E+00 -0.00000000000E+00 -0.45593999997E+02  0.45594000000E+02  0.51100000000E-03 0.  1.
         23    2    1    2    0    0  0.00000000000E+00  0.35527136788E-14  0.00000000000E+00  0.91188000000E+02  0.91188000000E+02 0.  0.
    9900012    2    3    3    0    0  0.14286897594E+02  0.26430628703E+02 -0.21285853755E+02  0.54367066463E+02  0.39999959615E+02 0.  0.
         12    1    3    3    0    0 -0.14286897594E+02 -0.26430628703E+02  0.21285853755E+02  0.36820933537E+02  0.00000000000E+00 0. -1.
         11    1    4    4    0    0  0.46032537558E+01  0.18173605828E+02 -0.15475420929E+01  0.18811293967E+02  0.51100000000E-03 0. -1.
        -11    1    4    4    0    0 -0.80629484496E+01  0.81132718327E+01 -0.10596765841E+02  0.15592554765E+02  0.51100000000E-03 0.  1.
        -12    1    4    4    0    0  0.17746592287E+02  0.14375104278E+00 -0.91415458204E+01  0.19963217731E+02  0.00000000000E+00 0.  1.
</event>
<event>
 8    1  0.1212194E-006  0.9118800E+02  0.7816164E-02  0.1184000E+00
        -11   -1    0    0    0    0  0.00000000000E+00  0.00000000000E+00  0.45593999997E+02  0.45594000000E+02  0.51100000000E-03 0.  1.
         11   -1    0    0    0    0 -0.00000000000E+00 -0.00000000000E+00 -0.45593999997E+02  0.45594000000E+02  0.51100000000E-03 0. -1.
         23    2    1    2    0    0  0.35527136788E-14  0.00000000000E+00 -0.35527136788E-14  0.91188000000E+02  0.91188000000E+02 0.  0.
    9900012    2    3    3    0    0  0.25544178800E+02 -0.22880208341E+02 -0.13407886909E+02  0.54367076116E+02  0.39999981621E+02 0.  0.
        -12    1    3    3    0    0 -0.25544178800E+02  0.22880208341E+02  0.13407886909E+02  0.36820923884E+02  0.00000000000E+00 0.  1.
         11    1    4    4    0    0  0.13559545430E+02 -0.10818483403E+01 -0.50853654496E+00  0.13612137150E+02  0.51100000000E-03 0. -1.
        -11    1    4    4    0    0  0.14283789683E+02 -0.37509465913E+01  0.46440984713E+01  0.15481081968E+02  0.51100000000E-03 0.  1.
        -12    1    4    4    0    0 -0.22991563124E+01 -0.18047413409E+02 -0.17543448836E+02  0.25273856998E+02  0.00000000000E+00 0.  1.
</event>
<event>
 8    1  0.1212194E-006  0.9118800E+02  0.7816164E-02  0.1184000E+00
        -11   -1    0    0    0    0  0.00000000000E+00  0.00000000000E+00  0.45593999997E+02  0.45594000000E+02  0.51100000000E-03 0.  1.
         11   -1    0    0    0    0 -0.00000000000E+00 -0.00000000000E+00 -0.45593999997E+02  0.45594000000E+02  0.51100000000E-03 0. -1.
         23    2    1    2    0    0  0.44408920985E-15  0.00000000000E+00 -0.88817841970E-15  0.91188000000E+02  0.91188000000E+02 0.  0.
    9900012    2    3    3    0    0  0.20159212509E+01  0.36295924210E+02 -0.58584042709E+01  0.54367096245E+02  0.40000027509E+02 0.  0.
        -12    1    3    3    0    0 -0.20159212509E+01 -0.36295924210E+02  0.58584042709E+01  0.36820903755E+02  0.00000000000E+00 0.  1.
         11    1    4    4    0    0  0.19296222532E+01 -0.15824938487E+01  0.35823765571E+01  0.43659077956E+01  0.51100000000E-03 0. -1.
        -11    1    4    4    0    0  0.28374570614E+01 -0.34980549281E+01  0.43880493107E+01  0.62882849705E+01  0.51100000000E-03 0.  1.
         12    1    4    4    0    0 -0.27511580637E+01  0.41376472987E+02 -0.13828830139E+02  0.43712903479E+02  0.00000000000E+00 0. -1.
</event>
<event>
 8    1  0.1212194E-006  0.9118800E+02  0.7816164E-02  0.1184000E+00
        -11   -1    0    0    0    0  0.00000000000E+00  0.00000000000E+00  0.45593999997E+02  0.45594000000E+02  0.51100000000E-03 0.  1.
         11   -1    0    0    0    0 -0.00000000000E+00 -0.00000000000E+00 -0.45593999997E+02  0.45594000000E+02  0.51100000000E-03 0. -1.
         23    2    1    2    0    0  0.17763568394E-14 -0.35527136788E-14  0.35527136788E-14  0.91188000000E+02  0.91188000000E+02 0.  0.
    9900012    2    3    3    0    0  0.12223974750E+02  0.28999212139E+02  0.19115473489E+02  0.54367065872E+02  0.39999958269E+02 0.  0.
         12    1    3    3    0    0 -0.12223974750E+02 -0.28999212139E+02 -0.19115473489E+02  0.36820934128E+02  0.00000000000E+00 0. -1.
         11    1    4    4    0    0 -0.20103390925E+01 -0.32526023420E+01 -0.61117138853E+01  0.72092948434E+01  0.51100000000E-03 0. -1.
        -11    1    4    4    0    0 -0.88649942177E+00  0.95794513669E+01  0.15458825392E+02  0.18207884350E+02  0.51100000000E-03 0.  1.
        -12    1    4    4    0    0  0.15120813264E+02  0.22672363114E+02  0.97683619816E+01  0.28949886679E+02  0.00000000000E+00 0.  1.
</event>
<event>
 8    1  0.1212194E-006  0.9118800E+02  0.7816164E-02  0.1184000E+00
        -11   -1    0    0    0    0  0.00000000000E+00  0.00000000000E+00  0.45593999997E+02  0.45594000000E+02  0.51100000000E-03 0.  1.
         11   -1    0    0    0    0 -0.00000000000E+00 -0.00000000000E+00 -0.45593999997E+02  0.45594000000E+02  0.51100000000E-03 0. -1.
         23    2    1    2    0    0  0.00000000000E+00  0.00000000000E+00 -0.88817841970E-15  0.91188000000E+02  0.91188000000E+02 0.  0.
    9900012    2    3    3    0    0 -0.13590551768E+02  0.33544672963E+02 -0.67700257593E+01  0.54367062609E+02  0.39999950830E+02 0.  0.
         12    1    3    3    0    0  0.13590551768E+02 -0.33544672963E+02  0.67700257593E+01  0.36820937391E+02  0.00000000000E+00 0. -1.
         11    1    4    4    0    0  0.63856173419E+01  0.11629712751E+02 -0.26785188337E+01  0.13535168670E+02  0.51100000000E-03 0.  1.
        -11    1    4    4    0    0 -0.93695095127E+01  0.27187341686E+02 -0.35484062068E+01  0.28974651738E+02  0.51100000000E-03 0. -1.
         12    1    4    4    0    0 -0.10606659597E+02 -0.52723814746E+01 -0.54310071879E+00  0.11857242201E+02  0.00000000000E+00 0. -1.
</event>
<event>
 8    1  0.1212194E-006  0.9118800E+02  0.7816164E-02  0.1184000E+00
        -11   -1    0    0    0    0  0.00000000000E+00  0.00000000000E+00  0.45593999997E+02  0.45594000000E+02  0.51100000000E-03 0. -1.
         11   -1    0    0    0    0 -0.00000000000E+00 -0.00000000000E+00 -0.45593999997E+02  0.45594000000E+02  0.51100000000E-03 0.  1.
         23    2    1    2    0    0  0.00000000000E+00  0.00000000000E+00  0.00000000000E+00  0.91188000000E+02  0.91188000000E+02 0.  0.
    9900012    2    3    3    0    0 -0.20282581196E+02 -0.10754787033E+02  0.28787688863E+02  0.54367087815E+02  0.40000008291E+02 0.  0.
        -12    1    3    3    0    0  0.20282581196E+02  0.10754787033E+02 -0.28787688863E+02  0.36820912185E+02  0.00000000000E+00 0.  1.
         11    1    4    4    0    0 -0.24700013624E+02  0.22077996799E+01  0.13245446334E+02  0.28114176162E+02  0.51100000000E-03 0. -1.
        -11    1    4    4    0    0 -0.20858236252E+01 -0.10739106174E+02  0.20771962912E+01  0.11135250617E+02  0.51100000000E-03 0.  1.
         12    1    4    4    0    0  0.65032560524E+01 -0.22234805387E+01  0.13465046238E+02  0.15117661035E+02  0.00000000000E+00 0. -1.
</event>
<event>
 8    1  0.1212194E-006  0.9118800E+02  0.7816164E-02  0.1184000E+00
        -11   -1    0    0    0    0  0.00000000000E+00  0.00000000000E+00  0.45593999997E+02  0.45594000000E+02  0.51100000000E-03 0.  1.
         11   -1    0    0    0    0 -0.00000000000E+00 -0.00000000000E+00 -0.45593999997E+02  0.45594000000E+02  0.51100000000E-03 0. -1.
         23    2    1    2    0    0  0.00000000000E+00  0.88817841970E-15  0.00000000000E+00  0.91188000000E+02  0.91188000000E+02 0.  0.
    9900012    2    3    3    0    0  0.34553921762E+02 -0.77686002399E+01 -0.10072505983E+02  0.54367081549E+02  0.39999994007E+02 0.  0.
         12    1    3    3    0    0 -0.34553921762E+02  0.77686002399E+01  0.10072505983E+02  0.36820918451E+02  0.00000000000E+00 0. -1.
         11    1    4    4    0    0  0.23124885142E+02 -0.13919819608E+02 -0.15299822452E+02  0.31025896572E+02  0.51100000000E-03 0. -1.
        -11    1    4    4    0    0  0.91829825689E+01  0.10907957850E+02  0.90056436064E+01  0.16864528761E+02  0.51100000000E-03 0.  1.
         12    1    4    4    0    0  0.22460540508E+01 -0.47567384815E+01 -0.37783271375E+01  0.64766562158E+01  0.00000000000E+00 0. -1.
</event>
<event>
 8    1  0.1212194E-006  0.9118800E+02  0.7816164E-02  0.1184000E+00
        -11   -1    0    0    0    0  0.00000000000E+00  0.00000000000E+00  0.45593999997E+02  0.45594000000E+02  0.51100000000E-03 0.  1.
         11   -1    0    0    0    0 -0.00000000000E+00 -0.00000000000E+00 -0.45593999997E+02  0.45594000000E+02  0.51100000000E-03 0. -1.
         23    2    1    2    0    0  0.00000000000E+00  0.00000000000E+00  0.17763568394E-14  0.91188000000E+02  0.91188000000E+02 0.  0.
    9900012    2    3    3    0    0 -0.10614934529E+01 -0.36745403393E+02  0.21040084664E+01  0.54367105246E+02  0.40000048028E+02 0.  0.
         12    1    3    3    0    0  0.10614934529E+01  0.36745403393E+02 -0.21040084664E+01  0.36820894754E+02  0.00000000000E+00 0. -1.
         11    1    4    4    0    0  0.34460604255E+00 -0.19738415377E+01  0.22917429688E+01  0.30441566708E+01  0.51100000000E-03 0. -1.
        -11    1    4    4    0    0 -0.69056998982E+01 -0.24301453907E+02  0.17006255818E+02  0.30454262268E+02  0.51100000000E-03 0.  1.
         12    1    4    4    0    0  0.54996004028E+01 -0.10470107949E+02 -0.17193990320E+02  0.20868686307E+02  0.00000000000E+00 0. -1.
</event>
<event>
 8    1  0.1212194E-006  0.9118800E+02  0.7816164E-02  0.1184000E+00
        -11   -1    0    0    0    0  0.00000000000E+00  0.00000000000E+00  0.45593999997E+02  0.45594000000E+02  0.51100000000E-03 0.  1.
         11   -1    0    0    0    0 -0.00000000000E+00 -0.00000000000E+00 -0.45593999997E+02  0.45594000000E+02  0.51100000000E-03 0. -1.
         23    2    1    2    0    0  0.35527136788E-14  0.00000000000E+00  0.00000000000E+00  0.91188000000E+02  0.91188000000E+02 0.  0.
    9900012    2    3    3    0    0 -0.27838329229E+02  0.19895012179E+02  0.13601331374E+02  0.54367077972E+02  0.39999985852E+02 0.  0.
         12    1    3    3    0    0  0.27838329229E+02 -0.19895012179E+02 -0.13601331374E+02  0.36820922028E+02  0.00000000000E+00 0. -1.
         11    1    4    4    0    0  0.81747300910E+01  0.40059347216E+01  0.70855732072E+01  0.11535990334E+02  0.51100000000E-03 0. -1.
        -11    1    4    4    0    0 -0.33204286715E+02  0.93547991777E+01  0.83353291885E+01  0.35489641262E+02  0.51100000000E-03 0.  1.
        -12    1    4    4    0    0 -0.28087726046E+01  0.65342782801E+01 -0.18195710218E+01  0.73414463758E+01  0.00000000000E+00 0.  1.
</event>
<event>
 8    1  0.1212194E-006  0.9118800E+02  0.7816164E-02  0.1184000E+00
        -11   -1    0    0    0    0  0.00000000000E+00  0.00000000000E+00  0.45593999997E+02  0.45594000000E+02  0.51100000000E-03 0. -1.
         11   -1    0    0    0    0 -0.00000000000E+00 -0.00000000000E+00 -0.45593999997E+02  0.45594000000E+02  0.51100000000E-03 0.  1.
         23    2    1    2    0    0  0.44408920985E-15  0.00000000000E+00  0.26645352591E-14  0.91188000000E+02  0.91188000000E+02 0.  0.
    9900012    2    3    3    0    0 -0.29740793633E+01  0.36436869644E+02 -0.43919477237E+01  0.54367084445E+02  0.40000000609E+02 0.  0.
        -12    1    3    3    0    0  0.29740793633E+01 -0.36436869644E+02  0.43919477237E+01  0.36820915555E+02  0.00000000000E+00 0.  1.
         11    1    4    4    0    0 -0.18411675722E+01  0.14678483316E+02  0.10244379332E+01  0.14828932660E+02  0.51100000000E-03 0. -1.
        -11    1    4    4    0    0 -0.75500358735E+00  0.26265285752E+02 -0.14046349704E+02  0.29794885573E+02  0.51100000000E-03 0.  1.
         12    1    4    4    0    0 -0.37790820371E+00 -0.45068994240E+01  0.86299640470E+01  0.97432662121E+01  0.00000000000E+00 0. -1.
</event>
<event>
 8    1  0.1212194E-006  0.9118800E+02  0.7816164E-02  0.1184000E+00
        -11   -1    0    0    0    0  0.00000000000E+00  0.00000000000E+00  0.45593999997E+02  0.45594000000E+02  0.51100000000E-03 0. -1.
         11   -1    0    0    0    0 -0.00000000000E+00 -0.00000000000E+00 -0.45593999997E+02  0.45594000000E+02  0.51100000000E-03 0.  1.
         23    2    1    2    0    0 -0.35527136788E-14  0.13322676296E-14  0.00000000000E+00  0.91188000000E+02  0.91188000000E+02 0.  0.
    9900012    2    3    3    0    0 -0.31507477665E+02  0.32309500147E+01  0.18778164855E+02  0.54367086620E+02  0.40000005569E+02 0.  0.
         12    1    3    3    0    0  0.31507477665E+02 -0.32309500147E+01 -0.18778164855E+02  0.36820913380E+02  0.00000000000E+00 0. -1.
         11    1    4    4    0    0  0.45489109849E+01  0.73048078768E+01  0.19873268095E+01  0.88318897963E+01  0.51100000000E-03 0. -1.
        -11    1    4    4    0    0 -0.17687910768E+02  0.85563870710E+01  0.48148632893E+01  0.20230097771E+02  0.51100000000E-03 0.  1.
         12    1    4    4    0    0 -0.18368477882E+02 -0.12630244933E+02  0.11975974756E+02  0.25305099054E+02  0.00000000000E+00 0. -1.
</event>
<event>
 8    1  0.1212194E-006  0.9118800E+02  0.7816164E-02  0.1184000E+00
        -11   -1    0    0    0    0  0.00000000000E+00  0.00000000000E+00  0.45593999997E+02  0.45594000000E+02  0.51100000000E-03 0. -1.
         11   -1    0    0    0    0 -0.00000000000E+00 -0.00000000000E+00 -0.45593999997E+02  0.45594000000E+02  0.51100000000E-03 0.  1.
         23    2    1    2    0    0 -0.88817841970E-15 -0.35527136788E-14  0.00000000000E+00  0.91188000000E+02  0.91188000000E+02 0.  0.
    9900012    2    3    3    0    0  0.78581974843E+01 -0.26695983498E+02  0.24111168845E+02  0.54367146320E+02  0.40000141666E+02 0.  0.
        -12    1    3    3    0    0 -0.78581974843E+01  0.26695983498E+02 -0.24111168845E+02  0.36820853680E+02  0.00000000000E+00 0.  1.
         11    1    4    4    0    0  0.80891094538E+01 -0.30414360614E+02  0.19065956646E+02  0.36796436328E+02  0.51100000000E-03 0. -1.
        -11    1    4    4    0    0 -0.75817931901E+01 -0.64008620150E+00  0.48491336407E+01  0.90226047042E+01  0.51100000000E-03 0.  1.
         12    1    4    4    0    0  0.73508812206E+01  0.43584633181E+01  0.19607855849E+00  0.85481052880E+01  0.00000000000E+00 0. -1.
</event>
<event>
 8    1  0.1212194E-006  0.9118800E+02  0.7816164E-02  0.1184000E+00
        -11   -1    0    0    0    0  0.00000000000E+00  0.00000000000E+00  0.45593999997E+02  0.45594000000E+02  0.51100000000E-03 0.  1.
         11   -1    0    0    0    0 -0.00000000000E+00 -0.00000000000E+00 -0.45593999997E+02  0.45594000000E+02  0.51100000000E-03 0. -1.
         23    2    1    2    0    0  0.00000000000E+00  0.00000000000E+00  0.00000000000E+00  0.91188000000E+02  0.91188000000E+02 0.  0.
    9900012    2    3    3    0    0 -0.25018529867E+02 -0.96312348280E+01  0.25240710090E+02  0.54367068903E+02  0.39999965178E+02 0.  0.
         12    1    3    3    0    0  0.25018529867E+02  0.96312348280E+01 -0.25240710090E+02  0.36820931097E+02  0.00000000000E+00 0. -1.
         11    1    4    4    0    0 -0.17559871791E+02  0.18485681093E+01 -0.49955342149E+01  0.18349977213E+02  0.51100000000E-03 0. -1.
        -11    1    4    4    0    0 -0.16498244630E+01 -0.13291296627E+02  0.19116275300E+02  0.23341218229E+02  0.51100000000E-03 0.  1.
        -12    1    4    4    0    0 -0.58088336127E+01  0.18114936902E+01  0.11119969005E+02  0.12675873461E+02  0.00000000000E+00 0.  1.
</event>
<event>
 8    1  0.1212194E-006  0.9118800E+02  0.7816164E-02  0.1184000E+00
        -11   -1    0    0    0    0  0.00000000000E+00  0.00000000000E+00  0.45593999997E+02  0.45594000000E+02  0.51100000000E-03 0.  1.
         11   -1    0    0    0    0 -0.00000000000E+00 -0.00000000000E+00 -0.45593999997E+02  0.45594000000E+02  0.51100000000E-03 0. -1.
         23    2    1    2    0    0 -0.17763568394E-14  0.17763568394E-14  0.35527136788E-14  0.91188000000E+02  0.91188000000E+02 0.  0.
    9900012    2    3    3    0    0  0.14080044267E+02 -0.14103915636E+02 -0.30961463074E+02  0.54367078250E+02  0.39999986486E+02 0.  0.
        -12    1    3    3    0    0 -0.14080044267E+02  0.14103915636E+02  0.30961463074E+02  0.36820921750E+02  0.00000000000E+00 0.  1.
         11    1    4    4    0    0  0.20282815153E+01  0.48599114109E+00 -0.24129813957E+02  0.24219786026E+02  0.51100000000E-03 0. -1.
        -11    1    4    4    0    0 -0.50624612853E+01 -0.71052476919E+01 -0.74285183668E+01  0.11458444241E+02  0.51100000000E-03 0.  1.
         12    1    4    4    0    0  0.17114224037E+02 -0.74846590851E+01  0.59686924944E+00  0.18688847983E+02  0.00000000000E+00 0. -1.
</event>
<event>
 8    1  0.1212194E-006  0.9118800E+02  0.7816164E-02  0.1184000E+00
        -11   -1    0    0    0    0  0.00000000000E+00  0.00000000000E+00  0.45593999997E+02  0.45594000000E+02  0.51100000000E-03 0.  1.
         11   -1    0    0    0    0 -0.00000000000E+00 -0.00000000000E+00 -0.45593999997E+02  0.45594000000E+02  0.51100000000E-03 0. -1.
         23    2    1    2    0    0  0.00000000000E+00 -0.17763568394E-14 -0.35527136788E-14  0.91188000000E+02  0.91188000000E+02 0.  0.
    9900012    2    3    3    0    0 -0.28444679665E+02  0.97741210808E+01  0.21240195242E+02  0.54367093736E+02  0.40000021790E+02 0.  0.
        -12    1    3    3    0    0  0.28444679665E+02 -0.97741210808E+01 -0.21240195242E+02  0.36820906264E+02  0.00000000000E+00 0.  1.
         11    1    4    4    0    0 -0.96645648252E+01  0.64431229337E+01  0.96158728871E+01  0.15079212779E+02  0.51100000000E-03 0. -1.
        -11    1    4    4    0    0 -0.13860205421E+02 -0.83461384021E+01  0.18738013367E+02  0.24756341930E+02  0.51100000000E-03 0.  1.
        -12    1    4    4    0    0 -0.49199094188E+01  0.11677136549E+02 -0.71136910120E+01  0.14531539027E+02  0.00000000000E+00 0.  1.
</event>
<event>
 8    1  0.1212194E-006  0.9118800E+02  0.7816164E-02  0.1184000E+00
        -11   -1    0    0    0    0  0.00000000000E+00  0.00000000000E+00  0.45593999997E+02  0.45594000000E+02  0.51100000000E-03 0. -1.
         11   -1    0    0    0    0 -0.00000000000E+00 -0.00000000000E+00 -0.45593999997E+02  0.45594000000E+02  0.51100000000E-03 0.  1.
         23    2    1    2    0    0  0.00000000000E+00  0.00000000000E+00  0.17763568394E-14  0.91188000000E+02  0.91188000000E+02 0.  0.
    9900012    2    3    3    0    0  0.29362130528E+02  0.18672537265E+02  0.12040893252E+02  0.54367062106E+02  0.39999949683E+02 0.  0.
        -12    1    3    3    0    0 -0.29362130528E+02 -0.18672537265E+02 -0.12040893252E+02  0.36820937894E+02  0.00000000000E+00 0.  1.
         11    1    4    4    0    0 -0.53151998446E+01  0.13041500365E+02  0.87197697639E+01  0.16564011173E+02  0.51100000000E-03 0.  1.
        -11    1    4    4    0    0  0.30039852104E+02  0.95974783520E+01  0.32214162464E+01  0.31699871104E+02  0.51100000000E-03 0. -1.
        -12    1    4    4    0    0  0.46374782691E+01 -0.39664414513E+01  0.99707241693E-01  0.61031798283E+01  0.00000000000E+00 0.  1.
</event>
<event>
 8    1  0.1212194E-006  0.9118800E+02  0.7816164E-02  0.1184000E+00
        -11   -1    0    0    0    0  0.00000000000E+00  0.00000000000E+00  0.45593999997E+02  0.45594000000E+02  0.51100000000E-03 0. -1.
         11   -1    0    0    0    0 -0.00000000000E+00 -0.00000000000E+00 -0.45593999997E+02  0.45594000000E+02  0.51100000000E-03 0.  1.
         23    2    1    2    0    0  0.00000000000E+00  0.35527136788E-14  0.35527136788E-14  0.91188000000E+02  0.91188000000E+02 0.  0.
    9900012    2    3    3    0    0  0.50707603839E+01 -0.29915696575E+02 -0.20859501065E+02  0.54367077998E+02  0.39999985911E+02 0.  0.
        -12    1    3    3    0    0 -0.50707603839E+01  0.29915696575E+02  0.20859501065E+02  0.36820922002E+02  0.00000000000E+00 0.  1.
         11    1    4    4    0    0 -0.52595456554E+01 -0.20825897553E+01  0.31697568361E+01  0.64843935146E+01  0.51100000000E-03 0. -1.
        -11    1    4    4    0    0 -0.55228584800E+01 -0.20621937286E+00  0.28375967261E+01  0.62126039356E+01  0.51100000000E-03 0.  1.
        -12    1    4    4    0    0  0.15853164519E+02 -0.27626887446E+02 -0.26866854628E+02  0.41670080547E+02  0.00000000000E+00 0.  1.
</event>
<event>
 8    1  0.1212194E-006  0.9118800E+02  0.7816164E-02  0.1184000E+00
        -11   -1    0    0    0    0  0.00000000000E+00  0.00000000000E+00  0.45593999997E+02  0.45594000000E+02  0.51100000000E-03 0.  1.
         11   -1    0    0    0    0 -0.00000000000E+00 -0.00000000000E+00 -0.45593999997E+02  0.45594000000E+02  0.51100000000E-03 0. -1.
         23    2    1    2    0    0 -0.17763568394E-14  0.10547118734E-14  0.00000000000E+00  0.91188000000E+02  0.91188000000E+02 0.  0.
    9900012    2    3    3    0    0  0.13801794819E+02 -0.35794267638E+00  0.34134476715E+02  0.54367079808E+02  0.39999990037E+02 0.  0.
         12    1    3    3    0    0 -0.13801794819E+02  0.35794267638E+00 -0.34134476715E+02  0.36820920192E+02  0.00000000000E+00 0. -1.
         11    1    4    4    0    0  0.25772656667E+01 -0.50977020950E+01  0.39843176027E+01  0.69644563310E+01  0.51100000000E-03 0. -1.
        -11    1    4    4    0    0  0.13397024138E+02 -0.10659495049E+02  0.26299877920E+02  0.31381342695E+02  0.51100000000E-03 0.  1.
         12    1    4    4    0    0 -0.21724949856E+01  0.15399254468E+02  0.38502811927E+01  0.16021280782E+02  0.00000000000E+00 0. -1.
</event>
<event>
 8    1  0.1212194E-006  0.9118800E+02  0.7816164E-02  0.1184000E+00
        -11   -1    0    0    0    0  0.00000000000E+00  0.00000000000E+00  0.45593999997E+02  0.45594000000E+02  0.51100000000E-03 0. -1.
         11   -1    0    0    0    0 -0.00000000000E+00 -0.00000000000E+00 -0.45593999997E+02  0.45594000000E+02  0.51100000000E-03 0.  1.
         23    2    1    2    0    0 -0.17763568394E-14 -0.17763568394E-14  0.00000000000E+00  0.91188000000E+02  0.91188000000E+02 0.  0.
    9900012    2    3    3    0    0 -0.13568549609E+02 -0.15368161709E+02  0.30585865858E+02  0.54367066781E+02  0.39999960341E+02 0.  0.
        -12    1    3    3    0    0  0.13568549609E+02  0.15368161709E+02 -0.30585865858E+02  0.36820933219E+02  0.00000000000E+00 0.  1.
         11    1    4    4    0    0 -0.17604065083E+02 -0.16580164810E+02  0.22804841659E+02  0.33239521295E+02  0.51100000000E-03 0. -1.
        -11    1    4    4    0    0 -0.44500215823E+01  0.59952546087E+01  0.85563328387E+01  0.11355906032E+02  0.51100000000E-03 0.  1.
        -12    1    4    4    0    0  0.84855370566E+01 -0.47832515080E+01 -0.77530863914E+00  0.97716394537E+01  0.00000000000E+00 0.  1.
</event>
<event>
 8    1  0.1212194E-006  0.9118800E+02  0.7816164E-02  0.1184000E+00
        -11   -1    0    0    0    0  0.00000000000E+00  0.00000000000E+00  0.45593999997E+02  0.45594000000E+02  0.51100000000E-03 0. -1.
         11   -1    0    0    0    0 -0.00000000000E+00 -0.00000000000E+00 -0.45593999997E+02  0.45594000000E+02  0.51100000000E-03 0.  1.
         23    2    1    2    0    0  0.00000000000E+00  0.00000000000E+00  0.35527136788E-14  0.91188000000E+02  0.91188000000E+02 0.  0.
    9900012    2    3    3    0    0  0.12377711078E+02 -0.15547926602E+02 -0.30997328464E+02  0.54367080334E+02  0.39999991237E+02 0.  0.
         12    1    3    3    0    0 -0.12377711078E+02  0.15547926602E+02  0.30997328464E+02  0.36820919666E+02  0.00000000000E+00 0. -1.
         11    1    4    4    0    0  0.10746105870E+02 -0.11170251348E+02 -0.20671506042E+02  0.25837268990E+02  0.51100000000E-03 0. -1.
        -11    1    4    4    0    0  0.19819029718E+00 -0.15239362828E+02 -0.35523562017E+01  0.15649175494E+02  0.51100000000E-03 0.  1.
         12    1    4    4    0    0  0.14334149113E+01  0.10861687574E+02 -0.67734662200E+01  0.12880635850E+02  0.00000000000E+00 0. -1.
</event>
<event>
 8    1  0.1212194E-006  0.9118800E+02  0.7816164E-02  0.1184000E+00
        -11   -1    0    0    0    0  0.00000000000E+00  0.00000000000E+00  0.45593999997E+02  0.45594000000E+02  0.51100000000E-03 0.  1.
         11   -1    0    0    0    0 -0.00000000000E+00 -0.00000000000E+00 -0.45593999997E+02  0.45594000000E+02  0.51100000000E-03 0. -1.
         23    2    1    2    0    0  0.00000000000E+00  0.35527136788E-14  0.35527136788E-14  0.91188000000E+02  0.91188000000E+02 0.  0.
    9900012    2    3    3    0    0  0.10215234949E+02 -0.26936055779E+02  0.22932041236E+02  0.54367073325E+02  0.39999975259E+02 0.  0.
         12    1    3    3    0    0 -0.10215234949E+02  0.26936055779E+02 -0.22932041236E+02  0.36820926675E+02  0.00000000000E+00 0. -1.
         11    1    4    4    0    0  0.22207317595E+02 -0.11397017603E+02  0.58305970952E+01  0.25633041719E+02  0.51100000000E-03 0. -1.
        -11    1    4    4    0    0 -0.59772398518E+01 -0.38518968336E+01  0.13249586427E+02  0.15037155522E+02  0.51100000000E-03 0.  1.
         12    1    4    4    0    0 -0.60148427947E+01 -0.11687141343E+02  0.38518577140E+01  0.13696876084E+02  0.00000000000E+00 0. -1.
</event>
<event>
 8    1  0.1212194E-006  0.9118800E+02  0.7816164E-02  0.1184000E+00
        -11   -1    0    0    0    0  0.00000000000E+00  0.00000000000E+00  0.45593999997E+02  0.45594000000E+02  0.51100000000E-03 0. -1.
         11   -1    0    0    0    0 -0.00000000000E+00 -0.00000000000E+00 -0.45593999997E+02  0.45594000000E+02  0.51100000000E-03 0.  1.
         23    2    1    2    0    0  0.00000000000E+00  0.10658141036E-13  0.00000000000E+00  0.91188000000E+02  0.91188000000E+02 0.  0.
    9900012    2    3    3    0    0  0.20284338814E+02  0.28990053216E+02 -0.10193295328E+02  0.54367070406E+02  0.39999968603E+02 0.  0.
         12    1    3    3    0    0 -0.20284338814E+02 -0.28990053216E+02  0.10193295328E+02  0.36820929594E+02  0.00000000000E+00 0. -1.
         11    1    4    4    0    0 -0.89152459032E+01 -0.22723174640E+01 -0.25010289605E+01  0.95341587093E+01  0.51100000000E-03 0. -1.
        -11    1    4    4    0    0  0.14314360864E+02  0.99864770062E+01 -0.71495058830E+01  0.18861232319E+02  0.51100000000E-03 0.  1.
        -12    1    4    4    0    0  0.14885223852E+02  0.21275893673E+02 -0.54276048501E+00  0.25971679378E+02  0.00000000000E+00 0.  1.
</event>
<event>
 8    1  0.1212194E-006  0.9118800E+02  0.7816164E-02  0.1184000E+00
        -11   -1    0    0    0    0  0.00000000000E+00  0.00000000000E+00  0.45593999997E+02  0.45594000000E+02  0.51100000000E-03 0.  1.
         11   -1    0    0    0    0 -0.00000000000E+00 -0.00000000000E+00 -0.45593999997E+02  0.45594000000E+02  0.51100000000E-03 0. -1.
         23    2    1    2    0    0  0.00000000000E+00  0.00000000000E+00  0.00000000000E+00  0.91188000000E+02  0.91188000000E+02 0.  0.
    9900012    2    3    3    0    0  0.17795569233E+02 -0.29833799958E+02  0.12208265934E+02  0.54367086630E+02  0.40000005591E+02 0.  0.
         12    1    3    3    0    0 -0.17795569233E+02  0.29833799958E+02 -0.12208265934E+02  0.36820913370E+02  0.00000000000E+00 0. -1.
         11    1    4    4    0    0 -0.24580783751E+01 -0.10815897568E+02  0.16832330320E+02  0.20158202642E+02  0.51100000000E-03 0. -1.
        -11    1    4    4    0    0  0.50110759756E+01 -0.17769849139E+02 -0.98971201575E+00  0.18489401044E+02  0.51100000000E-03 0.  1.
         12    1    4    4    0    0  0.15242571632E+02 -0.12480532513E+01 -0.36343523701E+01  0.15719482944E+02  0.00000000000E+00 0. -1.
</event>
<event>
 8    1  0.1212194E-006  0.9118800E+02  0.7816164E-02  0.1184000E+00
        -11   -1    0    0    0    0  0.00000000000E+00  0.00000000000E+00  0.45593999997E+02  0.45594000000E+02  0.51100000000E-03 0. -1.
         11   -1    0    0    0    0 -0.00000000000E+00 -0.00000000000E+00 -0.45593999997E+02  0.45594000000E+02  0.51100000000E-03 0.  1.
         23    2    1    2    0    0  0.00000000000E+00 -0.35527136788E-14  0.00000000000E+00  0.91188000000E+02  0.91188000000E+02 0.  0.
    9900012    2    3    3    0    0  0.21945590805E+02  0.29437200933E+02 -0.27608489557E+01  0.54367081468E+02  0.39999993824E+02 0.  0.
        -12    1    3    3    0    0 -0.21945590805E+02 -0.29437200933E+02  0.27608489557E+01  0.36820918532E+02  0.00000000000E+00 0.  1.
         11    1    4    4    0    0 -0.15011900897E+01  0.12050390166E+01  0.49949285355E+01  0.53530367132E+01  0.51100000000E-03 0. -1.
        -11    1    4    4    0    0  0.25761554143E+02  0.14629913789E+02 -0.15241316577E+02  0.33316509130E+02  0.51100000000E-03 0.  1.
        -12    1    4    4    0    0 -0.23147732487E+01  0.13602248127E+02  0.74855390855E+01  0.15697535625E+02  0.00000000000E+00 0.  1.
</event>
<event>
 8    1  0.1212194E-006  0.9118800E+02  0.7816164E-02  0.1184000E+00
        -11   -1    0    0    0    0  0.00000000000E+00  0.00000000000E+00  0.45593999997E+02  0.45594000000E+02  0.51100000000E-03 0.  1.
         11   -1    0    0    0    0 -0.00000000000E+00 -0.00000000000E+00 -0.45593999997E+02  0.45594000000E+02  0.51100000000E-03 0. -1.
         23    2    1    2    0    0 -0.17763568394E-14 -0.88817841970E-15  0.00000000000E+00  0.91188000000E+02  0.91188000000E+02 0.  0.
    9900012    2    3    3    0    0  0.13925296156E+02  0.70172279568E+01 -0.33356033838E+02  0.54367077216E+02  0.39999984130E+02 0.  0.
        -12    1    3    3    0    0 -0.13925296156E+02 -0.70172279568E+01  0.33356033838E+02  0.36820922784E+02  0.00000000000E+00 0.  1.
         11    1    4    4    0    0  0.18616295473E+02  0.77866292185E+00 -0.95340348973E+01  0.20930136043E+02  0.51100000000E-03 0. -1.
        -11    1    4    4    0    0 -0.60426324669E+01  0.32428117671E+01  0.22047683676E+01  0.72034879817E+01  0.51100000000E-03 0.  1.
        -12    1    4    4    0    0  0.13516331492E+01  0.29957532679E+01 -0.26026767309E+02  0.26233453191E+02  0.00000000000E+00 0.  1.
</event>
<event>
 8    1  0.1212194E-006  0.9118800E+02  0.7816164E-02  0.1184000E+00
        -11   -1    0    0    0    0  0.00000000000E+00  0.00000000000E+00  0.45593999997E+02  0.45594000000E+02  0.51100000000E-03 0.  1.
         11   -1    0    0    0    0 -0.00000000000E+00 -0.00000000000E+00 -0.45593999997E+02  0.45594000000E+02  0.51100000000E-03 0. -1.
         23    2    1    2    0    0  0.00000000000E+00  0.00000000000E+00 -0.35527136788E-14  0.91188000000E+02  0.91188000000E+02 0.  0.
    9900012    2    3    3    0    0 -0.24541008512E+02 -0.18625411437E+02  0.20164635530E+02  0.54367087789E+02  0.40000008233E+02 0.  0.
         12    1    3    3    0    0  0.24541008512E+02  0.18625411437E+02 -0.20164635530E+02  0.36820912211E+02  0.00000000000E+00 0. -1.
         11    1    4    4    0    0 -0.14522632398E+02 -0.27279753372E+02  0.17132090930E+02  0.35335539273E+02  0.51100000000E-03 0. -1.
        -11    1    4    4    0    0  0.26644857967E+00 -0.24515373574E+01 -0.18983161251E+01  0.31120145617E+01  0.51100000000E-03 0.  1.
        -12    1    4    4    0    0 -0.10284824694E+02  0.11105879293E+02  0.49308607251E+01  0.15919533955E+02  0.00000000000E+00 0.  1.
</event>
<event>
 8    1  0.1212194E-006  0.9118800E+02  0.7816164E-02  0.1184000E+00
        -11   -1    0    0    0    0  0.00000000000E+00  0.00000000000E+00  0.45593999997E+02  0.45594000000E+02  0.51100000000E-03 0. -1.
         11   -1    0    0    0    0 -0.00000000000E+00 -0.00000000000E+00 -0.45593999997E+02  0.45594000000E+02  0.51100000000E-03 0.  1.
         23    2    1    2    0    0  0.00000000000E+00 -0.88817841970E-15  0.00000000000E+00  0.91188000000E+02  0.91188000000E+02 0.  0.
    9900012    2    3    3    0    0  0.33755365282E+02  0.49570444279E+01 -0.13848576197E+02  0.54367081523E+02  0.39999993949E+02 0.  0.
        -12    1    3    3    0    0 -0.33755365282E+02 -0.49570444279E+01  0.13848576197E+02  0.36820918477E+02  0.00000000000E+00 0.  1.
         11    1    4    4    0    0  0.28140561947E+02 -0.10546039943E+02  0.35863274545E+01  0.30265028169E+02  0.51100000000E-03 0. -1.
        -11    1    4    4    0    0  0.52504998390E+01  0.12431402111E+02 -0.13395923856E+02  0.19014685988E+02  0.51100000000E-03 0.  1.
         12    1    4    4    0    0  0.36430349576E+00  0.30716822596E+01 -0.40389797950E+01  0.50873673669E+01  0.00000000000E+00 0. -1.
</event>
<event>
 8    1  0.1212194E-006  0.9118800E+02  0.7816164E-02  0.1184000E+00
        -11   -1    0    0    0    0  0.00000000000E+00  0.00000000000E+00  0.45593999997E+02  0.45594000000E+02  0.51100000000E-03 0. -1.
         11   -1    0    0    0    0 -0.00000000000E+00 -0.00000000000E+00 -0.45593999997E+02  0.45594000000E+02  0.51100000000E-03 0.  1.
         23    2    1    2    0    0  0.00000000000E+00 -0.17763568394E-14  0.00000000000E+00  0.91188000000E+02  0.91188000000E+02 0.  0.
    9900012    2    3    3    0    0 -0.35173547981E+02 -0.34215616659E+01 -0.10338970843E+02  0.54367083663E+02  0.39999998826E+02 0.  0.
         12    1    3    3    0    0  0.35173547981E+02  0.34215616659E+01  0.10338970843E+02  0.36820916337E+02  0.00000000000E+00 0. -1.
         11    1    4    4    0    0 -0.31727058517E+01  0.50747196148E+01 -0.78499200659E+01  0.98711745447E+01  0.51100000000E-03 0. -1.
        -11    1    4    4    0    0 -0.69764628596E+01  0.10752632183E+02  0.10858680355E+00  0.12818031216E+02  0.51100000000E-03 0.  1.
         12    1    4    4    0    0 -0.25024379270E+02 -0.19248913464E+02 -0.25976375806E+01  0.31677877902E+02  0.00000000000E+00 0. -1.
</event>
<event>
 8    1  0.1212194E-006  0.9118800E+02  0.7816164E-02  0.1184000E+00
        -11   -1    0    0    0    0  0.00000000000E+00  0.00000000000E+00  0.45593999997E+02  0.45594000000E+02  0.51100000000E-03 0.  1.
         11   -1    0    0    0    0 -0.00000000000E+00 -0.00000000000E+00 -0.45593999997E+02  0.45594000000E+02  0.51100000000E-03 0. -1.
         23    2    1    2    0    0 -0.35527136788E-14  0.35527136788E-14 -0.88817841970E-15  0.91188000000E+02  0.91188000000E+02 0.  0.
    9900012    2    3    3    0    0 -0.25349313270E+02 -0.26231700057E+02 -0.50090127340E+01  0.54367082308E+02  0.39999995737E+02 0.  0.
        -12    1    3    3    0    0  0.25349313270E+02  0.26231700057E+02  0.50090127340E+01  0.36820917692E+02  0.00000000000E+00 0.  1.
         11    1    4    4    0    0 -0.26843275538E+02 -0.22596893127E+02 -0.10883285708E+01  0.35105063452E+02  0.51100000000E-03 0. -1.
        -11    1    4    4    0    0  0.87964870246E+01 -0.19085615944E+01 -0.67412080422E+01  0.11245651491E+02  0.51100000000E-03 0.  1.
        -12    1    4    4    0    0 -0.73025247565E+01 -0.17262453357E+01  0.28205238789E+01  0.80163673649E+01  0.00000000000E+00 0.  1.
</event>
<event>
 8    1  0.1212194E-006  0.9118800E+02  0.7816164E-02  0.1184000E+00
        -11   -1    0    0    0    0  0.00000000000E+00  0.00000000000E+00  0.45593999997E+02  0.45594000000E+02  0.51100000000E-03 0.  1.
         11   -1    0    0    0    0 -0.00000000000E+00 -0.00000000000E+00 -0.45593999997E+02  0.45594000000E+02  0.51100000000E-03 0. -1.
         23    2    1    2    0    0  0.00000000000E+00 -0.44408920985E-15  0.00000000000E+00  0.91188000000E+02  0.91188000000E+02 0.  0.
    9900012    2    3    3    0    0  0.10122888447E+02  0.88579868807E+00 -0.35390972850E+02  0.54367102821E+02  0.40000042500E+02 0.  0.
        -12    1    3    3    0    0 -0.10122888447E+02 -0.88579868807E+00  0.35390972850E+02  0.36820897179E+02  0.00000000000E+00 0.  1.
         11    1    4    4    0    0 -0.16902739268E+01  0.11494949318E+01  0.59097886564E+00  0.21278206754E+01  0.51100000000E-03 0. -1.
        -11    1    4    4    0    0 -0.81293597928E+01 -0.10376227382E+02 -0.51477863746E+01  0.14151052616E+02  0.51100000000E-03 0.  1.
         12    1    4    4    0    0  0.19942522166E+02  0.10112531138E+02 -0.30834165341E+02  0.38088229529E+02  0.00000000000E+00 0. -1.
</event>
<event>
 8    1  0.1212194E-006  0.9118800E+02  0.7816164E-02  0.1184000E+00
        -11   -1    0    0    0    0  0.00000000000E+00  0.00000000000E+00  0.45593999997E+02  0.45594000000E+02  0.51100000000E-03 0.  1.
         11   -1    0    0    0    0 -0.00000000000E+00 -0.00000000000E+00 -0.45593999997E+02  0.45594000000E+02  0.51100000000E-03 0. -1.
         23    2    1    2    0    0  0.00000000000E+00  0.00000000000E+00  0.00000000000E+00  0.91188000000E+02  0.91188000000E+02 0.  0.
    9900012    2    3    3    0    0  0.26656864517E+02  0.18217404432E+02  0.17700782695E+02  0.54367082601E+02  0.39999996405E+02 0.  0.
         12    1    3    3    0    0 -0.26656864517E+02 -0.18217404432E+02 -0.17700782695E+02  0.36820917399E+02  0.00000000000E+00 0. -1.
         11    1    4    4    0    0 -0.49056760029E+01 -0.49464355182E+01  0.28954033016E+01  0.75442853817E+01  0.51100000000E-03 0. -1.
        -11    1    4    4    0    0  0.74781245904E+01  0.17515042874E+02  0.25471381786E+01  0.19214239185E+02  0.51100000000E-03 0.  1.
        -12    1    4    4    0    0  0.24084415929E+02  0.56487970757E+01  0.12258241215E+02  0.27608558034E+02  0.00000000000E+00 0.  1.
</event>
<event>
 8    1  0.1212194E-006  0.9118800E+02  0.7816164E-02  0.1184000E+00
        -11   -1    0    0    0    0  0.00000000000E+00  0.00000000000E+00  0.45593999997E+02  0.45594000000E+02  0.51100000000E-03 0. -1.
         11   -1    0    0    0    0 -0.00000000000E+00 -0.00000000000E+00 -0.45593999997E+02  0.45594000000E+02  0.51100000000E-03 0.  1.
         23    2    1    2    0    0  0.00000000000E+00  0.00000000000E+00  0.00000000000E+00  0.91188000000E+02  0.91188000000E+02 0.  0.
    9900012    2    3    3    0    0  0.20572538946E+02 -0.10972146025E+01 -0.30517958859E+02  0.54367094912E+02  0.40000024472E+02 0.  0.
         12    1    3    3    0    0 -0.20572538946E+02  0.10972146025E+01  0.30517958859E+02  0.36820905088E+02  0.00000000000E+00 0. -1.
         11    1    4    4    0    0 -0.37523585186E+00  0.33860666331E+01 -0.61815726570E+01  0.70581931089E+01  0.51100000000E-03 0. -1.
        -11    1    4    4    0    0  0.43808947898E+01 -0.45791651245E+01 -0.29328967753E+02  0.30005821804E+02  0.51100000000E-03 0.  1.
        -12    1    4    4    0    0  0.16566880008E+02  0.95883888839E-01  0.49925815514E+01  0.17303080000E+02  0.00000000000E+00 0.  1.
</event>
<event>
 8    1  0.1212194E-006  0.9118800E+02  0.7816164E-02  0.1184000E+00
        -11   -1    0    0    0    0  0.00000000000E+00  0.00000000000E+00  0.45593999997E+02  0.45594000000E+02  0.51100000000E-03 0. -1.
         11   -1    0    0    0    0 -0.00000000000E+00 -0.00000000000E+00 -0.45593999997E+02  0.45594000000E+02  0.51100000000E-03 0.  1.
         23    2    1    2    0    0 -0.11102230246E-14 -0.88817841970E-15  0.00000000000E+00  0.91188000000E+02  0.91188000000E+02 0.  0.
    9900012    2    3    3    0    0 -0.10141816834E+01  0.73307353885E+01  0.36069541439E+02  0.54367081143E+02  0.39999993082E+02 0.  0.
        -12    1    3    3    0    0  0.10141816834E+01 -0.73307353885E+01 -0.36069541439E+02  0.36820918857E+02  0.00000000000E+00 0.  1.
         11    1    4    4    0    0 -0.10493546660E+02  0.95293359897E+01  0.24010127115E+02  0.27882054628E+02  0.51100000000E-03 0. -1.
        -11    1    4    4    0    0 -0.65582845650E+01 -0.92844332961E+00  0.43693365995E+00  0.66380731192E+01  0.51100000000E-03 0.  1.
        -12    1    4    4    0    0  0.16037649542E+02 -0.12701572716E+01  0.11622480664E+02  0.19846953396E+02  0.00000000000E+00 0.  1.
</event>
<event>
 8    1  0.1212194E-006  0.9118800E+02  0.7816164E-02  0.1184000E+00
        -11   -1    0    0    0    0  0.00000000000E+00  0.00000000000E+00  0.45593999997E+02  0.45594000000E+02  0.51100000000E-03 0. -1.
         11   -1    0    0    0    0 -0.00000000000E+00 -0.00000000000E+00 -0.45593999997E+02  0.45594000000E+02  0.51100000000E-03 0.  1.
         23    2    1    2    0    0 -0.66613381478E-15  0.00000000000E+00 -0.17763568394E-14  0.91188000000E+02  0.91188000000E+02 0.  0.
    9900012    2    3    3    0    0  0.62158194066E+00  0.33816653467E+02 -0.14554326572E+02  0.54367070656E+02  0.39999969173E+02 0.  0.
        -12    1    3    3    0    0 -0.62158194066E+00 -0.33816653467E+02  0.14554326572E+02  0.36820929344E+02  0.00000000000E+00 0.  1.
         11    1    4    4    0    0  0.33703574567E+01  0.26011672733E+02 -0.19478625985E+02  0.32670832531E+02  0.51100000000E-03 0. -1.
        -11    1    4    4    0    0  0.35002522581E+01 -0.36786423796E+01 -0.34784654034E+01  0.61549896385E+01  0.51100000000E-03 0.  1.
        -12    1    4    4    0    0 -0.62490277741E+01  0.11483623114E+02  0.84027648165E+01  0.15541248486E+02  0.00000000000E+00 0.  1.
</event>
<event>
 8    1  0.1212194E-006  0.9118800E+02  0.7816164E-02  0.1184000E+00
        -11   -1    0    0    0    0  0.00000000000E+00  0.00000000000E+00  0.45593999997E+02  0.45594000000E+02  0.51100000000E-03 0.  1.
         11   -1    0    0    0    0 -0.00000000000E+00 -0.00000000000E+00 -0.45593999997E+02  0.45594000000E+02  0.51100000000E-03 0. -1.
         23    2    1    2    0    0  0.00000000000E+00  0.00000000000E+00 -0.22204460493E-15  0.91188000000E+02  0.91188000000E+02 0.  0.
    9900012    2    3    3    0    0 -0.30490384987E+02 -0.20588865831E+02  0.14881066390E+01  0.54367089714E+02  0.40000012622E+02 0.  0.
         12    1    3    3    0    0  0.30490384987E+02  0.20588865831E+02 -0.14881066390E+01  0.36820910286E+02  0.00000000000E+00 0. -1.
         11    1    4    4    0    0 -0.18328743767E+02 -0.39069761148E+01  0.53415153116E+01  0.19486895507E+02  0.51100000000E-03 0. -1.
        -11    1    4    4    0    0 -0.12496401617E+02  0.44998309420E+01 -0.33134193170E+01  0.13688947356E+02  0.51100000000E-03 0.  1.
         12    1    4    4    0    0  0.33476039662E+00 -0.21181720659E+02 -0.53998935559E+00  0.21191246851E+02  0.00000000000E+00 0. -1.
</event>
<event>
 8    1  0.1212194E-006  0.9118800E+02  0.7816164E-02  0.1184000E+00
        -11   -1    0    0    0    0  0.00000000000E+00  0.00000000000E+00  0.45593999997E+02  0.45594000000E+02  0.51100000000E-03 0. -1.
         11   -1    0    0    0    0 -0.00000000000E+00 -0.00000000000E+00 -0.45593999997E+02  0.45594000000E+02  0.51100000000E-03 0.  1.
         23    2    1    2    0    0  0.00000000000E+00 -0.13322676296E-14 -0.71054273576E-14  0.91188000000E+02  0.91188000000E+02 0.  0.
    9900012    2    3    3    0    0 -0.16709140711E+02 -0.30744377317E+01  0.32666989622E+02  0.54367085269E+02  0.40000002488E+02 0.  0.
        -12    1    3    3    0    0  0.16709140711E+02  0.30744377317E+01 -0.32666989622E+02  0.36820914731E+02  0.00000000000E+00 0.  1.
         11    1    4    4    0    0 -0.84127828394E+01 -0.92380167489E+01  0.24526431290E+02  0.27525655317E+02  0.51100000000E-03 0. -1.
        -11    1    4    4    0    0  0.66846902440E+01 -0.35348943186E+01  0.10338815760E+01  0.76321342281E+01  0.51100000000E-03 0.  1.
         12    1    4    4    0    0 -0.14981048116E+02  0.96984733357E+01  0.71066767554E+01  0.19209295724E+02  0.00000000000E+00 0. -1.
</event>
<event>
 8    1  0.1212194E-006  0.9118800E+02  0.7816164E-02  0.1184000E+00
        -11   -1    0    0    0    0  0.00000000000E+00  0.00000000000E+00  0.45593999997E+02  0.45594000000E+02  0.51100000000E-03 0.  1.
         11   -1    0    0    0    0 -0.00000000000E+00 -0.00000000000E+00 -0.45593999997E+02  0.45594000000E+02  0.51100000000E-03 0. -1.
         23    2    1    2    0    0 -0.35527136788E-14  0.00000000000E+00  0.00000000000E+00  0.91188000000E+02  0.91188000000E+02 0.  0.
    9900012    2    3    3    0    0  0.16884303567E+02  0.27132670765E+01  0.32608821003E+02  0.54367126404E+02  0.40000096263E+02 0.  0.
         12    1    3    3    0    0 -0.16884303567E+02 -0.27132670765E+01 -0.32608821003E+02  0.36820873596E+02  0.00000000000E+00 0. -1.
         11    1    4    4    0    0 -0.12145183500E+01 -0.37632607618E+01  0.18789619599E+01  0.43780914440E+01  0.51100000000E-03 0. -1.
        -11    1    4    4    0    0 -0.31812726934E+01  0.66247098018E+01  0.27499627433E+02  0.28464658528E+02  0.51100000000E-03 0.  1.
        -12    1    4    4    0    0  0.21280094611E+02 -0.14818196341E+00  0.32302316097E+01  0.21524376432E+02  0.00000000000E+00 0.  1.
</event>
<event>
 8    1  0.1212194E-006  0.9118800E+02  0.7816164E-02  0.1184000E+00
        -11   -1    0    0    0    0  0.00000000000E+00  0.00000000000E+00  0.45593999997E+02  0.45594000000E+02  0.51100000000E-03 0.  1.
         11   -1    0    0    0    0 -0.00000000000E+00 -0.00000000000E+00 -0.45593999997E+02  0.45594000000E+02  0.51100000000E-03 0. -1.
         23    2    1    2    0    0  0.00000000000E+00  0.00000000000E+00  0.00000000000E+00  0.91188000000E+02  0.91188000000E+02 0.  0.
    9900012    2    3    3    0    0 -0.12488959300E+02  0.34114368002E+02  0.60013374214E+01  0.54367078509E+02  0.39999987078E+02 0.  0.
         12    1    3    3    0    0  0.12488959300E+02 -0.34114368002E+02 -0.60013374214E+01  0.36820921491E+02  0.00000000000E+00 0. -1.
         11    1    4    4    0    0 -0.10079326856E+02  0.30649455434E+02 -0.10756657741E+02  0.34010110766E+02  0.51100000000E-03 0. -1.
        -11    1    4    4    0    0 -0.53529406141E+00  0.43691423722E-01 -0.15487344900E+01  0.16392154996E+01  0.51100000000E-03 0.  1.
        -12    1    4    4    0    0 -0.18743383823E+01  0.34212211442E+01  0.18306729652E+02  0.18717752244E+02  0.00000000000E+00 0.  1.
</event>
<event>
 8    1  0.1212194E-006  0.9118800E+02  0.7816164E-02  0.1184000E+00
        -11   -1    0    0    0    0  0.00000000000E+00  0.00000000000E+00  0.45593999997E+02  0.45594000000E+02  0.51100000000E-03 0. -1.
         11   -1    0    0    0    0 -0.00000000000E+00 -0.00000000000E+00 -0.45593999997E+02  0.45594000000E+02  0.51100000000E-03 0.  1.
         23    2    1    2    0    0  0.00000000000E+00  0.00000000000E+00  0.35527136788E-14  0.91188000000E+02  0.91188000000E+02 0.  0.
    9900012    2    3    3    0    0 -0.27798494717E+02 -0.15104208250E+02 -0.18838425487E+02  0.54367086238E+02  0.40000004698E+02 0.  0.
         12    1    3    3    0    0  0.27798494717E+02  0.15104208250E+02  0.18838425487E+02  0.36820913762E+02  0.00000000000E+00 0. -1.
         11    1    4    4    0    0  0.52999939062E+01  0.56040188201E+01 -0.41761618962E+01  0.87712764628E+01  0.51100000000E-03 0. -1.
        -11    1    4    4    0    0 -0.16881171853E+02 -0.17931029486E-01 -0.54216027246E+01  0.17730427547E+02  0.51100000000E-03 0.  1.
         12    1    4    4    0    0 -0.16217316771E+02 -0.20690296041E+02 -0.92406608665E+01  0.27865382228E+02  0.00000000000E+00 0. -1.
</event>
<event>
 8    1  0.1212194E-006  0.9118800E+02  0.7816164E-02  0.1184000E+00
        -11   -1    0    0    0    0  0.00000000000E+00  0.00000000000E+00  0.45593999997E+02  0.45594000000E+02  0.51100000000E-03 0. -1.
         11   -1    0    0    0    0 -0.00000000000E+00 -0.00000000000E+00 -0.45593999997E+02  0.45594000000E+02  0.51100000000E-03 0.  1.
         23    2    1    2    0    0  0.00000000000E+00  0.17763568394E-14  0.00000000000E+00  0.91188000000E+02  0.91188000000E+02 0.  0.
    9900012    2    3    3    0    0  0.33310910757E+02 -0.13713722235E+02  0.76221871130E+01  0.54367072671E+02  0.39999973768E+02 0.  0.
         12    1    3    3    0    0 -0.33310910757E+02  0.13713722235E+02 -0.76221871130E+01  0.36820927329E+02  0.00000000000E+00 0. -1.
         11    1    4    4    0    0  0.25228356181E+02 -0.13483002446E+01 -0.63847800571E+01  0.26058650881E+02  0.51100000000E-03 0.  1.
        -11    1    4    4    0    0  0.34547373055E+01 -0.55844187833E+01  0.18013635262E+02  0.19173210441E+02  0.51100000000E-03 0. -1.
         12    1    4    4    0    0  0.46278172710E+01 -0.67810032067E+01 -0.40066680918E+01  0.91352113485E+01  0.00000000000E+00 0. -1.
</event>
<event>
 8    1  0.1212194E-006  0.9118800E+02  0.7816164E-02  0.1184000E+00
        -11   -1    0    0    0    0  0.00000000000E+00  0.00000000000E+00  0.45593999997E+02  0.45594000000E+02  0.51100000000E-03 0.  1.
         11   -1    0    0    0    0 -0.00000000000E+00 -0.00000000000E+00 -0.45593999997E+02  0.45594000000E+02  0.51100000000E-03 0. -1.
         23    2    1    2    0    0  0.00000000000E+00  0.00000000000E+00  0.00000000000E+00  0.91188000000E+02  0.91188000000E+02 0.  0.
    9900012    2    3    3    0    0  0.15633365962E+02 -0.22485641552E+02 -0.24612470067E+02  0.54367083524E+02  0.39999998510E+02 0.  0.
        -12    1    3    3    0    0 -0.15633365962E+02  0.22485641552E+02  0.24612470067E+02  0.36820916476E+02  0.00000000000E+00 0.  1.
         11    1    4    4    0    0  0.13232964555E+02 -0.68860165579E+01  0.31689042153E+01  0.15250263248E+02  0.51100000000E-03 0. -1.
        -11    1    4    4    0    0  0.28771693378E+00  0.85854779604E+00  0.35495193355E+01  0.36631916584E+01  0.51100000000E-03 0.  1.
         12    1    4    4    0    0  0.21126844731E+01 -0.16458172791E+02 -0.31330893617E+02  0.35453628618E+02  0.00000000000E+00 0. -1.
</event>
<event>
 8    1  0.1212194E-006  0.9118800E+02  0.7816164E-02  0.1184000E+00
        -11   -1    0    0    0    0  0.00000000000E+00  0.00000000000E+00  0.45593999997E+02  0.45594000000E+02  0.51100000000E-03 0.  1.
         11   -1    0    0    0    0 -0.00000000000E+00 -0.00000000000E+00 -0.45593999997E+02  0.45594000000E+02  0.51100000000E-03 0. -1.
         23    2    1    2    0    0 -0.35527136788E-14  0.00000000000E+00  0.00000000000E+00  0.91188000000E+02  0.91188000000E+02 0.  0.
    9900012    2    3    3    0    0 -0.29860263362E+02 -0.93886018547E+01 -0.19390681669E+02  0.54367085991E+02  0.40000004135E+02 0.  0.
         12    1    3    3    0    0  0.29860263362E+02  0.93886018547E+01  0.19390681669E+02  0.36820914009E+02  0.00000000000E+00 0. -1.
         11    1    4    4    0    0 -0.12440617864E+02 -0.12681590322E+02 -0.15919593325E+01  0.17836088156E+02  0.51100000000E-03 0. -1.
        -11    1    4    4    0    0 -0.19057945013E+02 -0.74354227294E+01 -0.14868546783E+02  0.25289611760E+02  0.51100000000E-03 0.  1.
         12    1    4    4    0    0  0.16382995149E+01  0.10728411197E+02 -0.29301755541E+01  0.11241386075E+02  0.00000000000E+00 0. -1.
</event>
<event>
 8    1  0.1212194E-006  0.9118800E+02  0.7816164E-02  0.1184000E+00
        -11   -1    0    0    0    0  0.00000000000E+00  0.00000000000E+00  0.45593999997E+02  0.45594000000E+02  0.51100000000E-03 0. -1.
         11   -1    0    0    0    0 -0.00000000000E+00 -0.00000000000E+00 -0.45593999997E+02  0.45594000000E+02  0.51100000000E-03 0.  1.
         23    2    1    2    0    0  0.00000000000E+00  0.17763568394E-14  0.00000000000E+00  0.91188000000E+02  0.91188000000E+02 0.  0.
    9900012    2    3    3    0    0 -0.97152011777E+01 -0.11954650707E+02  0.33443699247E+02  0.54367084384E+02  0.40000000471E+02 0.  0.
        -12    1    3    3    0    0  0.97152011777E+01  0.11954650707E+02 -0.33443699247E+02  0.36820915616E+02  0.00000000000E+00 0.  1.
         11    1    4    4    0    0 -0.16499850335E+02 -0.15618081595E+02  0.32017965312E+02  0.39259643870E+02  0.51100000000E-03 0. -1.
        -11    1    4    4    0    0  0.17501425297E+01  0.64183853183E+01 -0.35243245938E+01  0.75285810796E+01  0.51100000000E-03 0.  1.
         12    1    4    4    0    0  0.50345066278E+01 -0.27549544303E+01  0.49500585283E+01  0.75788594348E+01  0.00000000000E+00 0. -1.
</event>
<event>
 8    1  0.1212194E-006  0.9118800E+02  0.7816164E-02  0.1184000E+00
        -11   -1    0    0    0    0  0.00000000000E+00  0.00000000000E+00  0.45593999997E+02  0.45594000000E+02  0.51100000000E-03 0. -1.
         11   -1    0    0    0    0 -0.00000000000E+00 -0.00000000000E+00 -0.45593999997E+02  0.45594000000E+02  0.51100000000E-03 0.  1.
         23    2    1    2    0    0  0.00000000000E+00  0.00000000000E+00 -0.35527136788E-14  0.91188000000E+02  0.91188000000E+02 0.  0.
    9900012    2    3    3    0    0  0.29578608486E+02  0.98180593023E+01  0.19608476907E+02  0.54367072051E+02  0.39999972354E+02 0.  0.
        -12    1    3    3    0    0 -0.29578608486E+02 -0.98180593023E+01 -0.19608476907E+02  0.36820927949E+02  0.00000000000E+00 0.  1.
         11    1    4    4    0    0  0.17963996052E+02  0.14539838663E+01  0.97241919026E+01  0.20478748293E+02  0.51100000000E-03 0. -1.
        -11    1    4    4    0    0 -0.84137185585E+01  0.90353828349E+01  0.44665377450E+01  0.13129309298E+02  0.51100000000E-03 0.  1.
        -12    1    4    4    0    0  0.20028330992E+02 -0.67130739885E+00  0.54177472598E+01  0.20759014460E+02  0.00000000000E+00 0.  1.
</event>
<event>
 8    1  0.1212194E-006  0.9118800E+02  0.7816164E-02  0.1184000E+00
        -11   -1    0    0    0    0  0.00000000000E+00  0.00000000000E+00  0.45593999997E+02  0.45594000000E+02  0.51100000000E-03 0. -1.
         11   -1    0    0    0    0 -0.00000000000E+00 -0.00000000000E+00 -0.45593999997E+02  0.45594000000E+02  0.51100000000E-03 0.  1.
         23    2    1    2    0    0 -0.17763568394E-14  0.00000000000E+00  0.00000000000E+00  0.91188000000E+02  0.91188000000E+02 0.  0.
    9900012    2    3    3    0    0  0.94540035187E+01  0.29511771971E+02 -0.19886019322E+02  0.54367127768E+02  0.40000099374E+02 0.  0.
         12    1    3    3    0    0 -0.94540035187E+01 -0.29511771971E+02  0.19886019322E+02  0.36820872232E+02  0.00000000000E+00 0. -1.
         11    1    4    4    0    0  0.61733040887E+01  0.33028953731E+01  0.41939422130E+01  0.81613695397E+01  0.51100000000E-03 0. -1.
        -11    1    4    4    0    0 -0.47882457989E+01  0.14722476913E+02  0.29388929823E+01  0.15758036569E+02  0.51100000000E-03 0.  1.
        -12    1    4    4    0    0  0.80689452289E+01  0.11486399685E+02 -0.27018854517E+02  0.30447721659E+02  0.00000000000E+00 0.  1.
</event>
<event>
 8    1  0.1212194E-006  0.9118800E+02  0.7816164E-02  0.1184000E+00
        -11   -1    0    0    0    0  0.00000000000E+00  0.00000000000E+00  0.45593999997E+02  0.45594000000E+02  0.51100000000E-03 0. -1.
         11   -1    0    0    0    0 -0.00000000000E+00 -0.00000000000E+00 -0.45593999997E+02  0.45594000000E+02  0.51100000000E-03 0.  1.
         23    2    1    2    0    0  0.00000000000E+00 -0.88817841970E-15  0.00000000000E+00  0.91188000000E+02  0.91188000000E+02 0.  0.
    9900012    2    3    3    0    0  0.35131722928E+02  0.42580944759E+01  0.10169056739E+02  0.54367095076E+02  0.40000024845E+02 0.  0.
        -12    1    3    3    0    0 -0.35131722928E+02 -0.42580944759E+01 -0.10169056739E+02  0.36820904924E+02  0.00000000000E+00 0.  1.
         11    1    4    4    0    0  0.11984949450E+02 -0.49038732349E+01 -0.19843243676E+01  0.13100554548E+02  0.51100000000E-03 0. -1.
        -11    1    4    4    0    0  0.19009600940E+01 -0.93398055522E+01  0.86602883727E+01  0.12878129212E+02  0.51100000000E-03 0.  1.
        -12    1    4    4    0    0  0.21245813384E+02  0.18501773263E+02  0.34930927343E+01  0.28388411316E+02  0.00000000000E+00 0.  1.
</event>
<event>
 8    1  0.1212194E-006  0.9118800E+02  0.7816164E-02  0.1184000E+00
        -11   -1    0    0    0    0  0.00000000000E+00  0.00000000000E+00  0.45593999997E+02  0.45594000000E+02  0.51100000000E-03 0.  1.
         11   -1    0    0    0    0 -0.00000000000E+00 -0.00000000000E+00 -0.45593999997E+02  0.45594000000E+02  0.51100000000E-03 0. -1.
         23    2    1    2    0    0  0.17763568394E-14 -0.35527136788E-14  0.00000000000E+00  0.91188000000E+02  0.91188000000E+02 0.  0.
    9900012    2    3    3    0    0  0.13032484489E+02 -0.31552338504E+02 -0.13797935018E+02  0.54367099308E+02  0.40000034492E+02 0.  0.
        -12    1    3    3    0    0 -0.13032484489E+02  0.31552338504E+02  0.13797935018E+02  0.36820900692E+02  0.00000000000E+00 0.  1.
         11    1    4    4    0    0  0.75961311145E+01 -0.21432127727E+02  0.27089671433E+01  0.22899253482E+02  0.51100000000E-03 0. -1.
        -11    1    4    4    0    0  0.77120793926E+01  0.21662932766E+01  0.27866071728E+01  0.84814017069E+01  0.51100000000E-03 0.  1.
        -12    1    4    4    0    0 -0.22757260181E+01 -0.12286504054E+02 -0.19293509334E+02  0.22986444118E+02  0.00000000000E+00 0.  1.
</event>
<event>
 8    1  0.1212194E-006  0.9118800E+02  0.7816164E-02  0.1184000E+00
        -11   -1    0    0    0    0  0.00000000000E+00  0.00000000000E+00  0.45593999997E+02  0.45594000000E+02  0.51100000000E-03 0.  1.
         11   -1    0    0    0    0 -0.00000000000E+00 -0.00000000000E+00 -0.45593999997E+02  0.45594000000E+02  0.51100000000E-03 0. -1.
         23    2    1    2    0    0 -0.71054273576E-14  0.00000000000E+00  0.22204460493E-14  0.91188000000E+02  0.91188000000E+02 0.  0.
    9900012    2    3    3    0    0  0.35733764529E+02 -0.88423049951E+01 -0.83102664532E+00  0.54367097100E+02  0.40000029460E+02 0.  0.
        -12    1    3    3    0    0 -0.35733764529E+02  0.88423049951E+01  0.83102664532E+00  0.36820902900E+02  0.00000000000E+00 0.  1.
         11    1    4    4    0    0  0.18597792217E+02 -0.27496902440E+01 -0.70735599810E+01  0.20086660321E+02  0.51100000000E-03 0. -1.
        -11    1    4    4    0    0  0.14190396568E+02 -0.12760619825E+02  0.13974858859E+02  0.23653698516E+02  0.51100000000E-03 0.  1.
        -12    1    4    4    0    0  0.29455757448E+01  0.66680050742E+01 -0.77323255234E+01  0.10626738264E+02  0.00000000000E+00 0.  1.
</event>
<event>
 8    1  0.1212194E-006  0.9118800E+02  0.7816164E-02  0.1184000E+00
        -11   -1    0    0    0    0  0.00000000000E+00  0.00000000000E+00  0.45593999997E+02  0.45594000000E+02  0.51100000000E-03 0. -1.
         11   -1    0    0    0    0 -0.00000000000E+00 -0.00000000000E+00 -0.45593999997E+02  0.45594000000E+02  0.51100000000E-03 0.  1.
         23    2    1    2    0    0  0.00000000000E+00  0.00000000000E+00 -0.17763568394E-14  0.91188000000E+02  0.91188000000E+02 0.  0.
    9900012    2    3    3    0    0  0.21431507975E+02 -0.27463273921E+02 -0.11926419903E+02  0.54367076054E+02  0.39999981480E+02 0.  0.
         12    1    3    3    0    0 -0.21431507975E+02  0.27463273921E+02  0.11926419903E+02  0.36820923946E+02  0.00000000000E+00 0. -1.
         11    1    4    4    0    0  0.61421738175E+01 -0.29498076083E+01 -0.21830581416E+01  0.71549568301E+01  0.51100000000E-03 0. -1.
        -11    1    4    4    0    0  0.25921576619E+02 -0.96867196436E+01 -0.83935606543E+01  0.28917339653E+02  0.51100000000E-03 0.  1.
        -12    1    4    4    0    0 -0.10632242461E+02 -0.14826746669E+02 -0.13498011071E+01  0.18294779571E+02  0.00000000000E+00 0.  1.
</event>
<event>
 8    1  0.1212194E-006  0.9118800E+02  0.7816164E-02  0.1184000E+00
        -11   -1    0    0    0    0  0.00000000000E+00  0.00000000000E+00  0.45593999997E+02  0.45594000000E+02  0.51100000000E-03 0. -1.
         11   -1    0    0    0    0 -0.00000000000E+00 -0.00000000000E+00 -0.45593999997E+02  0.45594000000E+02  0.51100000000E-03 0.  1.
         23    2    1    2    0    0  0.00000000000E+00 -0.71054273576E-14 -0.17763568394E-14  0.91188000000E+02  0.91188000000E+02 0.  0.
    9900012    2    3    3    0    0  0.84655487397E+01  0.35452444888E+02  0.52190633666E+01  0.54367082216E+02  0.39999995529E+02 0.  0.
        -12    1    3    3    0    0 -0.84655487397E+01 -0.35452444888E+02 -0.52190633666E+01  0.36820917784E+02  0.00000000000E+00 0.  1.
         11    1    4    4    0    0 -0.11450524567E+01  0.17758766053E+02  0.85597215914E+01  0.19747246665E+02  0.51100000000E-03 0.  1.
        -11    1    4    4    0    0 -0.95706913475E-01  0.14014455711E+02  0.10361957359E+02  0.17429408746E+02  0.51100000000E-03 0. -1.
        -12    1    4    4    0    0  0.97063081099E+01  0.36792231242E+01 -0.13702615584E+02  0.17190426805E+02  0.00000000000E+00 0.  1.
</event>
<event>
 8    1  0.1212194E-006  0.9118800E+02  0.7816164E-02  0.1184000E+00
        -11   -1    0    0    0    0  0.00000000000E+00  0.00000000000E+00  0.45593999997E+02  0.45594000000E+02  0.51100000000E-03 0.  1.
         11   -1    0    0    0    0 -0.00000000000E+00 -0.00000000000E+00 -0.45593999997E+02  0.45594000000E+02  0.51100000000E-03 0. -1.
         23    2    1    2    0    0  0.88817841970E-15  0.00000000000E+00  0.71054273576E-14  0.91188000000E+02  0.91188000000E+02 0.  0.
    9900012    2    3    3    0    0  0.66388065870E+01 -0.11847199765E+02  0.34224978919E+02  0.54367094564E+02  0.40000023677E+02 0.  0.
         12    1    3    3    0    0 -0.66388065870E+01  0.11847199765E+02 -0.34224978919E+02  0.36820905436E+02  0.00000000000E+00 0. -1.
         11    1    4    4    0    0  0.57217497493E+01 -0.57960548705E+01  0.28279896849E+02  0.29429326162E+02  0.51100000000E-03 0. -1.
        -11    1    4    4    0    0 -0.21447972953E-01 -0.14332006829E+02  0.79176351667E+01  0.16373632054E+02  0.51100000000E-03 0.  1.
         12    1    4    4    0    0  0.93850481068E+00  0.82808619348E+01 -0.19725530974E+01  0.85641363479E+01  0.00000000000E+00 0. -1.
</event>
<event>
 8    1  0.1212194E-006  0.9118800E+02  0.7816164E-02  0.1184000E+00
        -11   -1    0    0    0    0  0.00000000000E+00  0.00000000000E+00  0.45593999997E+02  0.45594000000E+02  0.51100000000E-03 0.  1.
         11   -1    0    0    0    0 -0.00000000000E+00 -0.00000000000E+00 -0.45593999997E+02  0.45594000000E+02  0.51100000000E-03 0. -1.
         23    2    1    2    0    0 -0.44408920985E-15 -0.17763568394E-14  0.71054273576E-14  0.91188000000E+02  0.91188000000E+02 0.  0.
    9900012    2    3    3    0    0  0.28284768863E+01  0.13169255305E+02 -0.34268815911E+02  0.54367064234E+02  0.39999954533E+02 0.  0.
        -12    1    3    3    0    0 -0.28284768863E+01 -0.13169255305E+02  0.34268815911E+02  0.36820935766E+02  0.00000000000E+00 0.  1.
         11    1    4    4    0    0 -0.27706174035E-01  0.78245009723E+01 -0.21081285064E+02  0.22486532933E+02  0.51100000000E-03 0. -1.
        -11    1    4    4    0    0  0.17630945873E+01  0.13250626809E+02 -0.18105799227E+02  0.22505723256E+02  0.51100000000E-03 0.  1.
        -12    1    4    4    0    0  0.10930884730E+01 -0.79058724766E+01  0.49182683803E+01  0.93748080453E+01  0.00000000000E+00 0.  1.
</event>
<event>
 8    1  0.1212194E-006  0.9118800E+02  0.7816164E-02  0.1184000E+00
        -11   -1    0    0    0    0  0.00000000000E+00  0.00000000000E+00  0.45593999997E+02  0.45594000000E+02  0.51100000000E-03 0. -1.
         11   -1    0    0    0    0 -0.00000000000E+00 -0.00000000000E+00 -0.45593999997E+02  0.45594000000E+02  0.51100000000E-03 0.  1.
         23    2    1    2    0    0  0.35527136788E-14  0.00000000000E+00  0.00000000000E+00  0.91188000000E+02  0.91188000000E+02 0.  0.
    9900012    2    3    3    0    0 -0.29796886278E+02 -0.21537497824E+02  0.20141956574E+01  0.54367146825E+02  0.40000142817E+02 0.  0.
        -12    1    3    3    0    0  0.29796886278E+02  0.21537497824E+02 -0.20141956574E+01  0.36820853175E+02  0.00000000000E+00 0.  1.
         11    1    4    4    0    0 -0.96010569825E-01 -0.62658672146E+01  0.81483446346E+01  0.10279388626E+02  0.51100000000E-03 0. -1.
        -11    1    4    4    0    0  0.68454991279E+00  0.58085453819E+01  0.20748967167E+01  0.62058846817E+01  0.51100000000E-03 0.  1.
         12    1    4    4    0    0 -0.30385425621E+02 -0.21080175991E+02 -0.82090456940E+01  0.37881873517E+02  0.00000000000E+00 0. -1.
</event>
<event>
 8    1  0.1212194E-006  0.9118800E+02  0.7816164E-02  0.1184000E+00
        -11   -1    0    0    0    0  0.00000000000E+00  0.00000000000E+00  0.45593999997E+02  0.45594000000E+02  0.51100000000E-03 0.  1.
         11   -1    0    0    0    0 -0.00000000000E+00 -0.00000000000E+00 -0.45593999997E+02  0.45594000000E+02  0.51100000000E-03 0. -1.
         23    2    1    2    0    0  0.00000000000E+00 -0.12212453271E-14  0.00000000000E+00  0.91188000000E+02  0.91188000000E+02 0.  0.
    9900012    2    3    3    0    0  0.38693080953E+01  0.90125886754E+00  0.36605953491E+02  0.54367086871E+02  0.40000006140E+02 0.  0.
         12    1    3    3    0    0 -0.38693080953E+01 -0.90125886754E+00 -0.36605953491E+02  0.36820913129E+02  0.00000000000E+00 0. -1.
         11    1    4    4    0    0 -0.13429543416E+02  0.69181827755E+01  0.44377175568E+01  0.15745069916E+02  0.51100000000E-03 0. -1.
        -11    1    4    4    0    0  0.56806898908E+01  0.30828894586E+01  0.12016135105E+02  0.13644117713E+02  0.51100000000E-03 0.  1.
        -12    1    4    4    0    0  0.11618161620E+02 -0.90998133666E+01  0.20152100829E+02  0.24977899242E+02  0.00000000000E+00 0.  1.
</event>
<event>
 8    1  0.1212194E-006  0.9118800E+02  0.7816164E-02  0.1184000E+00
        -11   -1    0    0    0    0  0.00000000000E+00  0.00000000000E+00  0.45593999997E+02  0.45594000000E+02  0.51100000000E-03 0. -1.
         11   -1    0    0    0    0 -0.00000000000E+00 -0.00000000000E+00 -0.45593999997E+02  0.45594000000E+02  0.51100000000E-03 0.  1.
         23    2    1    2    0    0  0.00000000000E+00 -0.22204460493E-15  0.00000000000E+00  0.91188000000E+02  0.91188000000E+02 0.  0.
    9900012    2    3    3    0    0  0.28933007114E+02 -0.78186470691E+00  0.22760731769E+02  0.54367066773E+02  0.39999960322E+02 0.  0.
        -12    1    3    3    0    0 -0.28933007114E+02  0.78186470691E+00 -0.22760731769E+02  0.36820933227E+02  0.00000000000E+00 0.  1.
         11    1    4    4    0    0  0.14427517483E+02  0.33939701516E+01 -0.45192986491E+01  0.15495042906E+02  0.51100000000E-03 0. -1.
        -11    1    4    4    0    0 -0.54500106411E+01 -0.43742516111E+00  0.12846752266E+02  0.13961840882E+02  0.51100000000E-03 0.  1.
         12    1    4    4    0    0  0.19955500272E+02 -0.37384096974E+01  0.14433278151E+02  0.24910182985E+02  0.00000000000E+00 0. -1.
</event>
<event>
 8    1  0.1212194E-006  0.9118800E+02  0.7816164E-02  0.1184000E+00
        -11   -1    0    0    0    0  0.00000000000E+00  0.00000000000E+00  0.45593999997E+02  0.45594000000E+02  0.51100000000E-03 0.  1.
         11   -1    0    0    0    0 -0.00000000000E+00 -0.00000000000E+00 -0.45593999997E+02  0.45594000000E+02  0.51100000000E-03 0. -1.
         23    2    1    2    0    0 -0.35527136788E-14 -0.17763568394E-14  0.00000000000E+00  0.91188000000E+02  0.91188000000E+02 0.  0.
    9900012    2    3    3    0    0  0.28651882058E+02 -0.14253343372E+02  0.18212431822E+02  0.54367070957E+02  0.39999969861E+02 0.  0.
        -12    1    3    3    0    0 -0.28651882058E+02  0.14253343372E+02 -0.18212431822E+02  0.36820929043E+02  0.00000000000E+00 0.  1.
         11    1    4    4    0    0  0.16365979497E+02 -0.20791635345E+02  0.92429861639E+01  0.28028024880E+02  0.51100000000E-03 0. -1.
        -11    1    4    4    0    0  0.11570791659E+02  0.21928718013E+01 -0.41606354557E+01  0.12490107846E+02  0.51100000000E-03 0.  1.
         12    1    4    4    0    0  0.71511090148E+00  0.43454201712E+01  0.13130081114E+02  0.13848938231E+02  0.00000000000E+00 0. -1.
</event>
<event>
 8    1  0.1212194E-006  0.9118800E+02  0.7816164E-02  0.1184000E+00
        -11   -1    0    0    0    0  0.00000000000E+00  0.00000000000E+00  0.45593999997E+02  0.45594000000E+02  0.51100000000E-03 0. -1.
         11   -1    0    0    0    0 -0.00000000000E+00 -0.00000000000E+00 -0.45593999997E+02  0.45594000000E+02  0.51100000000E-03 0.  1.
         23    2    1    2    0    0 -0.35527136788E-14  0.88817841970E-15  0.00000000000E+00  0.91188000000E+02  0.91188000000E+02 0.  0.
    9900012    2    3    3    0    0 -0.24596170690E+02 -0.76167233580E+01 -0.26320944165E+02  0.54367106623E+02  0.40000051169E+02 0.  0.
         12    1    3    3    0    0  0.24596170690E+02  0.76167233580E+01  0.26320944165E+02  0.36820893377E+02  0.00000000000E+00 0. -1.
         11    1    4    4    0    0 -0.91141274247E+01 -0.47452277860E+01  0.63200649334E+01  0.12063487327E+02  0.51100000000E-03 0. -1.
        -11    1    4    4    0    0  0.51140188664E+01  0.21305525045E+01 -0.49270879322E+01  0.74140838067E+01  0.51100000000E-03 0.  1.
        -12    1    4    4    0    0 -0.20596062131E+02 -0.50020480765E+01 -0.27713921166E+02  0.34889535490E+02  0.00000000000E+00 0.  1.
</event>
<event>
 8    1  0.1212194E-006  0.9118800E+02  0.7816164E-02  0.1184000E+00
        -11   -1    0    0    0    0  0.00000000000E+00  0.00000000000E+00  0.45593999997E+02  0.45594000000E+02  0.51100000000E-03 0.  1.
         11   -1    0    0    0    0 -0.00000000000E+00 -0.00000000000E+00 -0.45593999997E+02  0.45594000000E+02  0.51100000000E-03 0. -1.
         23    2    1    2    0    0  0.00000000000E+00 -0.17763568394E-14  0.00000000000E+00  0.91188000000E+02  0.91188000000E+02 0.  0.
    9900012    2    3    3    0    0 -0.24713230324E+02 -0.11544731748E+02 -0.24733684888E+02  0.54367085395E+02  0.40000002776E+02 0.  0.
        -12    1    3    3    0    0  0.24713230324E+02  0.11544731748E+02  0.24733684888E+02  0.36820914605E+02  0.00000000000E+00 0.  1.
         11    1    4    4    0    0 -0.30359004796E+02 -0.14431825647E+02 -0.21399257018E+02  0.39848148826E+02  0.51100000000E-03 0. -1.
        -11    1    4    4    0    0  0.51198942094E+01 -0.37636869965E+01  0.11806482800E+01  0.64631716011E+01  0.51100000000E-03 0.  1.
         12    1    4    4    0    0  0.52588026273E+00  0.66507808957E+01 -0.45150761503E+01  0.80557649677E+01  0.00000000000E+00 0. -1.
</event>
<event>
 8    1  0.1212194E-006  0.9118800E+02  0.7816164E-02  0.1184000E+00
        -11   -1    0    0    0    0  0.00000000000E+00  0.00000000000E+00  0.45593999997E+02  0.45594000000E+02  0.51100000000E-03 0. -1.
         11   -1    0    0    0    0 -0.00000000000E+00 -0.00000000000E+00 -0.45593999997E+02  0.45594000000E+02  0.51100000000E-03 0.  1.
         23    2    1    2    0    0 -0.35527136788E-14  0.88817841970E-15  0.00000000000E+00  0.91188000000E+02  0.91188000000E+02 0.  0.
    9900012    2    3    3    0    0 -0.28524445303E+02  0.20578183890E+01 -0.23192701062E+02  0.54367082319E+02  0.39999995763E+02 0.  0.
         12    1    3    3    0    0  0.28524445303E+02 -0.20578183890E+01  0.23192701062E+02  0.36820917681E+02  0.00000000000E+00 0. -1.
         11    1    4    4    0    0 -0.87001599101E+01  0.14506216125E+02 -0.11929376717E+02  0.20698625989E+02  0.51100000000E-03 0. -1.
        -11    1    4    4    0    0 -0.12147019114E+02 -0.35831725734E+01  0.50017323209E+01  0.13616406484E+02  0.51100000000E-03 0.  1.
        -12    1    4    4    0    0 -0.76772662781E+01 -0.88652251629E+01 -0.16265056665E+02  0.20052049846E+02  0.00000000000E+00 0.  1.
</event>
<event>
 8    1  0.1212194E-006  0.9118800E+02  0.7816164E-02  0.1184000E+00
        -11   -1    0    0    0    0  0.00000000000E+00  0.00000000000E+00  0.45593999997E+02  0.45594000000E+02  0.51100000000E-03 0.  1.
         11   -1    0    0    0    0 -0.00000000000E+00 -0.00000000000E+00 -0.45593999997E+02  0.45594000000E+02  0.51100000000E-03 0. -1.
         23    2    1    2    0    0  0.88817841970E-15  0.00000000000E+00  0.00000000000E+00  0.91188000000E+02  0.91188000000E+02 0.  0.
    9900012    2    3    3    0    0 -0.37253182455E+01  0.33464930693E+02 -0.14899658071E+02  0.54367090275E+02  0.40000013901E+02 0.  0.
        -12    1    3    3    0    0  0.37253182455E+01 -0.33464930693E+02  0.14899658071E+02  0.36820909725E+02  0.00000000000E+00 0.  1.
         11    1    4    4    0    0 -0.39590355106E+01  0.28221184996E+01 -0.67174083021E+01  0.82922789122E+01  0.51100000000E-03 0.  1.
        -11    1    4    4    0    0 -0.85019453241E+01 -0.35278974627E+01 -0.54550941866E+01  0.10699868581E+02  0.51100000000E-03 0. -1.
        -12    1    4    4    0    0  0.87356625892E+01  0.34170709656E+02 -0.27271555820E+01  0.35374942782E+02  0.00000000000E+00 0.  1.
</event>
<event>
 8    1  0.1212194E-006  0.9118800E+02  0.7816164E-02  0.1184000E+00
        -11   -1    0    0    0    0  0.00000000000E+00  0.00000000000E+00  0.45593999997E+02  0.45594000000E+02  0.51100000000E-03 0.  1.
         11   -1    0    0    0    0 -0.00000000000E+00 -0.00000000000E+00 -0.45593999997E+02  0.45594000000E+02  0.51100000000E-03 0. -1.
         23    2    1    2    0    0  0.00000000000E+00  0.00000000000E+00 -0.17763568394E-14  0.91188000000E+02  0.91188000000E+02 0.  0.
    9900012    2    3    3    0    0  0.84372158708E+01  0.32376506740E+02 -0.15373863250E+02  0.54367075629E+02  0.39999980511E+02 0.  0.
        -12    1    3    3    0    0 -0.84372158708E+01 -0.32376506740E+02  0.15373863250E+02  0.36820924371E+02  0.00000000000E+00 0.  1.
         11    1    4    4    0    0 -0.15598102945E+02  0.11690964308E+02 -0.20807482658E+01  0.19603800028E+02  0.51100000000E-03 0. -1.
        -11    1    4    4    0    0  0.17182387724E+02  0.17597925064E+02 -0.98163251170E+01  0.26481723009E+02  0.51100000000E-03 0.  1.
         12    1    4    4    0    0  0.68529310914E+01  0.30876173683E+01 -0.34767898669E+01  0.82815525921E+01  0.00000000000E+00 0. -1.
</event>
<event>
 8    1  0.1212194E-006  0.9118800E+02  0.7816164E-02  0.1184000E+00
        -11   -1    0    0    0    0  0.00000000000E+00  0.00000000000E+00  0.45593999997E+02  0.45594000000E+02  0.51100000000E-03 0.  1.
         11   -1    0    0    0    0 -0.00000000000E+00 -0.00000000000E+00 -0.45593999997E+02  0.45594000000E+02  0.51100000000E-03 0. -1.
         23    2    1    2    0    0  0.00000000000E+00 -0.17763568394E-14 -0.88817841970E-15  0.91188000000E+02  0.91188000000E+02 0.  0.
    9900012    2    3    3    0    0  0.33381296233E+02 -0.13607796844E+02 -0.75031521686E+01  0.54367077068E+02  0.39999983792E+02 0.  0.
        -12    1    3    3    0    0 -0.33381296233E+02  0.13607796844E+02  0.75031521686E+01  0.36820922932E+02  0.00000000000E+00 0.  1.
         11    1    4    4    0    0  0.86230826527E+00  0.75120687883E+01  0.36959191211E+01  0.84163276692E+01  0.51100000000E-03 0. -1.
        -11    1    4    4    0    0  0.11738826495E+02 -0.22332521412E+00 -0.11562505644E+02  0.16478515062E+02  0.51100000000E-03 0.  1.
         12    1    4    4    0    0  0.20780161472E+02 -0.20896540418E+02  0.36343435432E+00  0.29472234336E+02  0.00000000000E+00 0. -1.
</event>
<event>
 8    1  0.1212194E-006  0.9118800E+02  0.7816164E-02  0.1184000E+00
        -11   -1    0    0    0    0  0.00000000000E+00  0.00000000000E+00  0.45593999997E+02  0.45594000000E+02  0.51100000000E-03 0.  1.
         11   -1    0    0    0    0 -0.00000000000E+00 -0.00000000000E+00 -0.45593999997E+02  0.45594000000E+02  0.51100000000E-03 0. -1.
         23    2    1    2    0    0  0.00000000000E+00  0.35527136788E-14  0.17763568394E-14  0.91188000000E+02  0.91188000000E+02 0.  0.
    9900012    2    3    3    0    0 -0.26043036157E+02 -0.24194945070E+02 -0.95992796977E+01  0.54367064788E+02  0.39999955797E+02 0.  0.
         12    1    3    3    0    0  0.26043036157E+02  0.24194945070E+02  0.95992796977E+01  0.36820935212E+02  0.00000000000E+00 0. -1.
         11    1    4    4    0    0 -0.13700490654E+02 -0.10314274213E+02 -0.14562702938E+02  0.22498000218E+02  0.51100000000E-03 0. -1.
        -11    1    4    4    0    0  0.13019001874E+01 -0.17300236662E+02  0.37547142381E+01  0.17750803135E+02  0.51100000000E-03 0.  1.
         12    1    4    4    0    0 -0.13644445690E+02  0.34195658054E+01  0.12087090019E+01  0.14118261435E+02  0.00000000000E+00 0. -1.
</event>
<event>
 8    1  0.1212194E-006  0.9118800E+02  0.7816164E-02  0.1184000E+00
        -11   -1    0    0    0    0  0.00000000000E+00  0.00000000000E+00  0.45593999997E+02  0.45594000000E+02  0.51100000000E-03 0. -1.
         11   -1    0    0    0    0 -0.00000000000E+00 -0.00000000000E+00 -0.45593999997E+02  0.45594000000E+02  0.51100000000E-03 0.  1.
         23    2    1    2    0    0 -0.35527136788E-14  0.17763568394E-14 -0.17763568394E-14  0.91188000000E+02  0.91188000000E+02 0.  0.
    9900012    2    3    3    0    0  0.31729545380E+02  0.13045519805E+02  0.13372661250E+02  0.54367113185E+02  0.40000066127E+02 0.  0.
         12    1    3    3    0    0 -0.31729545380E+02 -0.13045519805E+02 -0.13372661250E+02  0.36820886815E+02  0.00000000000E+00 0. -1.
         11    1    4    4    0    0  0.10566646309E+02 -0.70800828835E+01  0.11009766470E+02  0.16822501177E+02  0.51100000000E-03 0. -1.
        -11    1    4    4    0    0  0.16671438371E+02  0.19646520330E+02 -0.73824018508E+01  0.26803404183E+02  0.51100000000E-03 0.  1.
        -12    1    4    4    0    0  0.44914606991E+01  0.47908235810E+00  0.97452966311E+01  0.10741207825E+02  0.00000000000E+00 0.  1.
</event>
<event>
 8    1  0.1212194E-006  0.9118800E+02  0.7816164E-02  0.1184000E+00
        -11   -1    0    0    0    0  0.00000000000E+00  0.00000000000E+00  0.45593999997E+02  0.45594000000E+02  0.51100000000E-03 0. -1.
         11   -1    0    0    0    0 -0.00000000000E+00 -0.00000000000E+00 -0.45593999997E+02  0.45594000000E+02  0.51100000000E-03 0.  1.
         23    2    1    2    0    0  0.35527136788E-14  0.00000000000E+00 -0.44408920985E-15  0.91188000000E+02  0.91188000000E+02 0.  0.
    9900012    2    3    3    0    0 -0.30228668036E+02  0.20999446293E+02 -0.10153374429E+01  0.54367081679E+02  0.39999994304E+02 0.  0.
        -12    1    3    3    0    0  0.30228668036E+02 -0.20999446293E+02  0.10153374429E+01  0.36820918321E+02  0.00000000000E+00 0.  1.
         11    1    4    4    0    0  0.24051713965E+01 -0.19855233513E+01  0.21793098327E+01  0.38048053870E+01  0.51100000000E-03 0. -1.
        -11    1    4    4    0    0 -0.37200081409E+02  0.22646418335E+02  0.20508933390E+01  0.43599455089E+02  0.51100000000E-03 0.  1.
        -12    1    4    4    0    0  0.45662419764E+01  0.33855130877E+00 -0.52455406146E+01  0.69628212038E+01  0.00000000000E+00 0.  1.
</event>
<event>
 8    1  0.1212194E-006  0.9118800E+02  0.7816164E-02  0.1184000E+00
        -11   -1    0    0    0    0  0.00000000000E+00  0.00000000000E+00  0.45593999997E+02  0.45594000000E+02  0.51100000000E-03 0.  1.
         11   -1    0    0    0    0 -0.00000000000E+00 -0.00000000000E+00 -0.45593999997E+02  0.45594000000E+02  0.51100000000E-03 0. -1.
         23    2    1    2    0    0 -0.71054273576E-14 -0.17763568394E-14  0.00000000000E+00  0.91188000000E+02  0.91188000000E+02 0.  0.
    9900012    2    3    3    0    0  0.34306900430E+02  0.86380588933E+01  0.10207716291E+02  0.54367123443E+02  0.40000089513E+02 0.  0.
        -12    1    3    3    0    0 -0.34306900430E+02 -0.86380588933E+01 -0.10207716291E+02  0.36820876557E+02  0.00000000000E+00 0.  1.
         11    1    4    4    0    0  0.15380156052E+02  0.12323035839E+02  0.12810500890E+02  0.23505644977E+02  0.51100000000E-03 0.  1.
        -11    1    4    4    0    0  0.16183118839E+02 -0.11236310997E+02 -0.79126555011E+01  0.21231065388E+02  0.51100000000E-03 0. -1.
         12    1    4    4    0    0  0.27436255391E+01  0.75513340518E+01  0.53098709021E+01  0.96304130782E+01  0.00000000000E+00 0. -1.
</event>
<event>
 8    1  0.1212194E-006  0.9118800E+02  0.7816164E-02  0.1184000E+00
        -11   -1    0    0    0    0  0.00000000000E+00  0.00000000000E+00  0.45593999997E+02  0.45594000000E+02  0.51100000000E-03 0.  1.
         11   -1    0    0    0    0 -0.00000000000E+00 -0.00000000000E+00 -0.45593999997E+02  0.45594000000E+02  0.51100000000E-03 0. -1.
         23    2    1    2    0    0 -0.35527136788E-14  0.00000000000E+00  0.00000000000E+00  0.91188000000E+02  0.91188000000E+02 0.  0.
    9900012    2    3    3    0    0  0.20719668477E+02 -0.29020851420E+02 -0.91797391912E+01  0.54367053644E+02  0.39999930392E+02 0.  0.
        -12    1    3    3    0    0 -0.20719668477E+02  0.29020851420E+02  0.91797391912E+01  0.36820946356E+02  0.00000000000E+00 0.  1.
         11    1    4    4    0    0  0.71154308852E+01 -0.95417930997E+01 -0.16434943284E+02  0.20292425515E+02  0.51100000000E-03 0. -1.
        -11    1    4    4    0    0  0.55251618356E+01  0.46627682703E+01  0.43848873210E+01  0.84555341836E+01  0.51100000000E-03 0.  1.
         12    1    4    4    0    0  0.80790757559E+01 -0.24141826591E+02  0.28703167722E+01  0.25619093946E+02  0.00000000000E+00 0. -1.
</event>
<event>
 8    1  0.1212194E-006  0.9118800E+02  0.7816164E-02  0.1184000E+00
        -11   -1    0    0    0    0  0.00000000000E+00  0.00000000000E+00  0.45593999997E+02  0.45594000000E+02  0.51100000000E-03 0.  1.
         11   -1    0    0    0    0 -0.00000000000E+00 -0.00000000000E+00 -0.45593999997E+02  0.45594000000E+02  0.51100000000E-03 0. -1.
         23    2    1    2    0    0  0.00000000000E+00  0.00000000000E+00  0.00000000000E+00  0.91188000000E+02  0.91188000000E+02 0.  0.
    9900012    2    3    3    0    0  0.74300045653E+01 -0.34741340822E+02  0.96755419875E+01  0.54367057009E+02  0.39999938064E+02 0.  0.
        -12    1    3    3    0    0 -0.74300045653E+01  0.34741340822E+02 -0.96755419875E+01  0.36820942991E+02  0.00000000000E+00 0.  1.
         11    1    4    4    0    0  0.29951026933E+01 -0.29158745685E+01 -0.13817308223E+01  0.44025157546E+01  0.51100000000E-03 0. -1.
        -11    1    4    4    0    0  0.20615334460E+02 -0.18055879556E+02  0.48535071727E+01  0.27830977949E+02  0.51100000000E-03 0.  1.
        -12    1    4    4    0    0 -0.16180432588E+02 -0.13769586697E+02  0.62037656371E+01  0.22133563306E+02  0.00000000000E+00 0.  1.
</event>
<event>
 8    1  0.1212194E-006  0.9118800E+02  0.7816164E-02  0.1184000E+00
        -11   -1    0    0    0    0  0.00000000000E+00  0.00000000000E+00  0.45593999997E+02  0.45594000000E+02  0.51100000000E-03 0.  1.
         11   -1    0    0    0    0 -0.00000000000E+00 -0.00000000000E+00 -0.45593999997E+02  0.45594000000E+02  0.51100000000E-03 0. -1.
         23    2    1    2    0    0  0.00000000000E+00 -0.17763568394E-14  0.00000000000E+00  0.91188000000E+02  0.91188000000E+02 0.  0.
    9900012    2    3    3    0    0 -0.74809885630E+01  0.13771391895E+02 -0.33319114489E+02  0.54367084545E+02  0.40000000836E+02 0.  0.
        -12    1    3    3    0    0  0.74809885630E+01 -0.13771391895E+02  0.33319114489E+02  0.36820915455E+02  0.00000000000E+00 0.  1.
         11    1    4    4    0    0 -0.12969476632E+02  0.89090946690E+01 -0.32247292370E+02  0.35881292583E+02  0.51100000000E-03 0. -1.
        -11    1    4    4    0    0  0.17400616454E+01  0.53370897717E+01  0.73539410646E+01  0.92516372175E+01  0.51100000000E-03 0.  1.
        -12    1    4    4    0    0  0.37484264238E+01 -0.47479254522E+00 -0.84257631838E+01  0.92341547444E+01  0.00000000000E+00 0.  1.
</event>
<event>
 8    1  0.1212194E-006  0.9118800E+02  0.7816164E-02  0.1184000E+00
        -11   -1    0    0    0    0  0.00000000000E+00  0.00000000000E+00  0.45593999997E+02  0.45594000000E+02  0.51100000000E-03 0.  1.
         11   -1    0    0    0    0 -0.00000000000E+00 -0.00000000000E+00 -0.45593999997E+02  0.45594000000E+02  0.51100000000E-03 0. -1.
         23    2    1    2    0    0  0.35527136788E-14  0.00000000000E+00 -0.17763568394E-14  0.91188000000E+02  0.91188000000E+02 0.  0.
    9900012    2    3    3    0    0  0.31042447570E+02  0.14328855277E+02 -0.13668579963E+02  0.54367085795E+02  0.40000003688E+02 0.  0.
        -12    1    3    3    0    0 -0.31042447570E+02 -0.14328855277E+02  0.13668579963E+02  0.36820914205E+02  0.00000000000E+00 0.  1.
         11    1    4    4    0    0 -0.26695300677E+01  0.84001323979E+01  0.13864310968E+01  0.89224888082E+01  0.51100000000E-03 0. -1.
        -11    1    4    4    0    0  0.11688598499E+02  0.12910754145E+02  0.78316586736E+00  0.17433423545E+02  0.51100000000E-03 0.  1.
        -12    1    4    4    0    0  0.22023379138E+02 -0.69820312652E+01 -0.15838176927E+02  0.28011173442E+02  0.00000000000E+00 0.  1.
</event>
<event>
 8    1  0.1212194E-006  0.9118800E+02  0.7816164E-02  0.1184000E+00
        -11   -1    0    0    0    0  0.00000000000E+00  0.00000000000E+00  0.45593999997E+02  0.45594000000E+02  0.51100000000E-03 0.  1.
         11   -1    0    0    0    0 -0.00000000000E+00 -0.00000000000E+00 -0.45593999997E+02  0.45594000000E+02  0.51100000000E-03 0. -1.
         23    2    1    2    0    0  0.17763568394E-14 -0.35527136788E-14  0.00000000000E+00  0.91188000000E+02  0.91188000000E+02 0.  0.
    9900012    2    3    3    0    0 -0.61707512850E+01 -0.29796921120E+02 -0.20732719147E+02  0.54367077648E+02  0.39999985113E+02 0.  0.
        -12    1    3    3    0    0  0.61707512850E+01  0.29796921120E+02  0.20732719147E+02  0.36820922352E+02  0.00000000000E+00 0.  1.
         11    1    4    4    0    0  0.17879784192E+01 -0.26454726341E+02 -0.80294299710E+01  0.27704172222E+02  0.51100000000E-03 0. -1.
        -11    1    4    4    0    0 -0.12513530690E+02 -0.91213565831E+01 -0.56890497420E+01  0.16497056812E+02  0.51100000000E-03 0.  1.
         12    1    4    4    0    0  0.45548009856E+01  0.57791618043E+01 -0.70142394342E+01  0.10165848613E+02  0.00000000000E+00 0. -1.
</event>
<event>
 8    1  0.1212194E-006  0.9118800E+02  0.7816164E-02  0.1184000E+00
        -11   -1    0    0    0    0  0.00000000000E+00  0.00000000000E+00  0.45593999997E+02  0.45594000000E+02  0.51100000000E-03 0. -1.
         11   -1    0    0    0    0 -0.00000000000E+00 -0.00000000000E+00 -0.45593999997E+02  0.45594000000E+02  0.51100000000E-03 0.  1.
         23    2    1    2    0    0  0.00000000000E+00  0.00000000000E+00  0.00000000000E+00  0.91188000000E+02  0.91188000000E+02 0.  0.
    9900012    2    3    3    0    0 -0.25488532784E+02 -0.21461734554E+02  0.15668706951E+02  0.54367085684E+02  0.40000003435E+02 0.  0.
         12    1    3    3    0    0  0.25488532784E+02  0.21461734554E+02 -0.15668706951E+02  0.36820914316E+02  0.00000000000E+00 0. -1.
         11    1    4    4    0    0 -0.18310009483E+02 -0.18473340070E+02 -0.51612949305E+01  0.26517158714E+02  0.51100000000E-03 0.  1.
        -11    1    4    4    0    0 -0.13436216192E+01  0.26087859831E+01 -0.20524392155E+01  0.35810040989E+01  0.51100000000E-03 0. -1.
         12    1    4    4    0    0 -0.58349016815E+01 -0.55971804667E+01  0.22882441097E+02  0.24268922872E+02  0.00000000000E+00 0. -1.
</event>
<event>
 8    1  0.1212194E-006  0.9118800E+02  0.7816164E-02  0.1184000E+00
        -11   -1    0    0    0    0  0.00000000000E+00  0.00000000000E+00  0.45593999997E+02  0.45594000000E+02  0.51100000000E-03 0.  1.
         11   -1    0    0    0    0 -0.00000000000E+00 -0.00000000000E+00 -0.45593999997E+02  0.45594000000E+02  0.51100000000E-03 0. -1.
         23    2    1    2    0    0  0.17763568394E-14  0.35527136788E-14 -0.71054273576E-14  0.91188000000E+02  0.91188000000E+02 0.  0.
    9900012    2    3    3    0    0  0.76018146962E+01 -0.30510372143E+02  0.19160115843E+02  0.54367076137E+02  0.39999981670E+02 0.  0.
         12    1    3    3    0    0 -0.76018146962E+01  0.30510372143E+02 -0.19160115843E+02  0.36820923863E+02  0.00000000000E+00 0. -1.
         11    1    4    4    0    0  0.57722116657E+00 -0.66386644905E+01 -0.48780622918E+01  0.82583619730E+01  0.51100000000E-03 0. -1.
        -11    1    4    4    0    0  0.18329687651E+02 -0.20553020724E+02  0.16066738543E+02  0.31883290262E+02  0.51100000000E-03 0.  1.
         12    1    4    4    0    0 -0.11305094122E+02 -0.33186869286E+01  0.79714395921E+01  0.14225423902E+02  0.00000000000E+00 0. -1.
</event>
<event>
 8    1  0.1212194E-006  0.9118800E+02  0.7816164E-02  0.1184000E+00
        -11   -1    0    0    0    0  0.00000000000E+00  0.00000000000E+00  0.45593999997E+02  0.45594000000E+02  0.51100000000E-03 0.  1.
         11   -1    0    0    0    0 -0.00000000000E+00 -0.00000000000E+00 -0.45593999997E+02  0.45594000000E+02  0.51100000000E-03 0. -1.
         23    2    1    2    0    0  0.00000000000E+00  0.00000000000E+00 -0.35527136788E-14  0.91188000000E+02  0.91188000000E+02 0.  0.
    9900012    2    3    3    0    0  0.18783383009E+02  0.26723526985E+02 -0.16994607122E+02  0.54367095027E+02  0.40000024734E+02 0.  0.
        -12    1    3    3    0    0 -0.18783383009E+02 -0.26723526985E+02  0.16994607122E+02  0.36820904973E+02  0.00000000000E+00 0.  1.
         11    1    4    4    0    0  0.10721951473E+02  0.17465855072E+02  0.75497051784E+01  0.21840658995E+02  0.51100000000E-03 0.  1.
        -11    1    4    4    0    0  0.61629025140E+01 -0.41911766452E+01 -0.11437195188E+02  0.13651255001E+02  0.51100000000E-03 0. -1.
         12    1    4    4    0    0  0.18985290218E+01  0.13448848558E+02 -0.13107117113E+02  0.18875181032E+02  0.00000000000E+00 0. -1.
</event>
<event>
 8    1  0.1212194E-006  0.9118800E+02  0.7816164E-02  0.1184000E+00
        -11   -1    0    0    0    0  0.00000000000E+00  0.00000000000E+00  0.45593999997E+02  0.45594000000E+02  0.51100000000E-03 0. -1.
         11   -1    0    0    0    0 -0.00000000000E+00 -0.00000000000E+00 -0.45593999997E+02  0.45594000000E+02  0.51100000000E-03 0.  1.
         23    2    1    2    0    0  0.17763568394E-14  0.00000000000E+00  0.00000000000E+00  0.91188000000E+02  0.91188000000E+02 0.  0.
    9900012    2    3    3    0    0  0.48425547239E+01 -0.10928817961E+02 -0.34826602297E+02  0.54367059954E+02  0.39999944778E+02 0.  0.
         12    1    3    3    0    0 -0.48425547239E+01  0.10928817961E+02  0.34826602297E+02  0.36820940046E+02  0.00000000000E+00 0. -1.
         11    1    4    4    0    0  0.10679915883E+02 -0.13814854873E+02 -0.45648485968E+01  0.18048508565E+02  0.51100000000E-03 0. -1.
        -11    1    4    4    0    0 -0.10487420296E+02 -0.37099812100E+01 -0.22604999320E+02  0.25193966333E+02  0.51100000000E-03 0.  1.
        -12    1    4    4    0    0  0.46500591364E+01  0.65960181225E+01 -0.76567543803E+01  0.11124585057E+02  0.00000000000E+00 0.  1.
</event>
<event>
 8    1  0.1212194E-006  0.9118800E+02  0.7816164E-02  0.1184000E+00
        -11   -1    0    0    0    0  0.00000000000E+00  0.00000000000E+00  0.45593999997E+02  0.45594000000E+02  0.51100000000E-03 0. -1.
         11   -1    0    0    0    0 -0.00000000000E+00 -0.00000000000E+00 -0.45593999997E+02  0.45594000000E+02  0.51100000000E-03 0.  1.
         23    2    1    2    0    0 -0.88817841970E-15  0.00000000000E+00  0.17763568394E-14  0.91188000000E+02  0.91188000000E+02 0.  0.
    9900012    2    3    3    0    0  0.21420393969E+01  0.34397125789E+02 -0.12962686270E+02  0.54367057173E+02  0.39999938438E+02 0.  0.
        -12    1    3    3    0    0 -0.21420393969E+01 -0.34397125789E+02  0.12962686270E+02  0.36820942827E+02  0.00000000000E+00 0.  1.
         11    1    4    4    0    0 -0.12052609053E+02  0.10345454749E+02 -0.65037547706E+01  0.17163701388E+02  0.51100000000E-03 0. -1.
        -11    1    4    4    0    0  0.15889222886E+01 -0.46376897962E+01  0.97191862577E+00  0.49977461682E+01  0.51100000000E-03 0.  1.
        -12    1    4    4    0    0  0.12605726161E+02  0.28689360836E+02 -0.74308501256E+01  0.32205609617E+02  0.00000000000E+00 0.  1.
</event>
<event>
 8    1  0.1212194E-006  0.9118800E+02  0.7816164E-02  0.1184000E+00
        -11   -1    0    0    0    0  0.00000000000E+00  0.00000000000E+00  0.45593999997E+02  0.45594000000E+02  0.51100000000E-03 0.  1.
         11   -1    0    0    0    0 -0.00000000000E+00 -0.00000000000E+00 -0.45593999997E+02  0.45594000000E+02  0.51100000000E-03 0. -1.
         23    2    1    2    0    0  0.35527136788E-14  0.00000000000E+00 -0.77715611724E-15  0.91188000000E+02  0.91188000000E+02 0.  0.
    9900012    2    3    3    0    0  0.28187079235E+02  0.23689604119E+02 -0.26686400040E+00  0.54367082093E+02  0.39999995248E+02 0.  0.
        -12    1    3    3    0    0 -0.28187079235E+02 -0.23689604119E+02  0.26686400040E+00  0.36820917907E+02  0.00000000000E+00 0.  1.
         11    1    4    4    0    0  0.18149511356E+01  0.16145912514E+02 -0.35606934964E+01  0.16633192026E+02  0.51100000000E-03 0. -1.
        -11    1    4    4    0    0  0.25007417279E+02  0.12628654804E+02  0.95121708252E+01  0.29586064882E+02  0.51100000000E-03 0.  1.
        -12    1    4    4    0    0  0.13647108206E+01 -0.50849631993E+01 -0.62183413292E+01  0.81478251853E+01  0.00000000000E+00 0.  1.
</event>
<event>
 8    1  0.1212194E-006  0.9118800E+02  0.7816164E-02  0.1184000E+00
        -11   -1    0    0    0    0  0.00000000000E+00  0.00000000000E+00  0.45593999997E+02  0.45594000000E+02  0.51100000000E-03 0. -1.
         11   -1    0    0    0    0 -0.00000000000E+00 -0.00000000000E+00 -0.45593999997E+02  0.45594000000E+02  0.51100000000E-03 0.  1.
         23    2    1    2    0    0  0.00000000000E+00  0.00000000000E+00  0.35527136788E-14  0.91188000000E+02  0.91188000000E+02 0.  0.
    9900012    2    3    3    0    0 -0.26924424281E+02  0.16569209607E+02 -0.18876216077E+02  0.54367151786E+02  0.40000154125E+02 0.  0.
         12    1    3    3    0    0  0.26924424281E+02 -0.16569209607E+02  0.18876216077E+02  0.36820848214E+02  0.00000000000E+00 0. -1.
         11    1    4    4    0    0 -0.70188090633E+01  0.96146577862E+01 -0.16590951017E+01  0.12019064932E+02  0.51100000000E-03 0. -1.
        -11    1    4    4    0    0 -0.13061461486E+02  0.11311397931E+02 -0.25468259561E+02  0.30776317919E+02  0.51100000000E-03 0.  1.
         12    1    4    4    0    0 -0.68441537316E+01 -0.43568461100E+01  0.82511385859E+01  0.11571768935E+02  0.00000000000E+00 0. -1.
</event>
<event>
 8    1  0.1212194E-006  0.9118800E+02  0.7816164E-02  0.1184000E+00
        -11   -1    0    0    0    0  0.00000000000E+00  0.00000000000E+00  0.45593999997E+02  0.45594000000E+02  0.51100000000E-03 0. -1.
         11   -1    0    0    0    0 -0.00000000000E+00 -0.00000000000E+00 -0.45593999997E+02  0.45594000000E+02  0.51100000000E-03 0.  1.
         23    2    1    2    0    0 -0.35527136788E-14  0.17763568394E-14  0.00000000000E+00  0.91188000000E+02  0.91188000000E+02 0.  0.
    9900012    2    3    3    0    0 -0.13182191003E+02  0.82072147091E+01 -0.33386525121E+02  0.54366965352E+02  0.39999729112E+02 0.  0.
         12    1    3    3    0    0  0.13182191003E+02 -0.82072147091E+01  0.33386525121E+02  0.36821034648E+02  0.00000000000E+00 0. -1.
         11    1    4    4    0    0  0.55044295039E+01  0.15872578846E+01  0.53624642410E+01  0.78469200807E+01  0.51100000000E-03 0. -1.
        -11    1    4    4    0    0 -0.17584898447E+02  0.49545851516E+01 -0.17904801833E+02  0.25580431903E+02  0.51100000000E-03 0.  1.
         12    1    4    4    0    0 -0.11017220601E+01  0.16653716729E+01 -0.20844187528E+02  0.20939613368E+02  0.00000000000E+00 0. -1.
</event>
<event>
 8    1  0.1212194E-006  0.9118800E+02  0.7816164E-02  0.1184000E+00
        -11   -1    0    0    0    0  0.00000000000E+00  0.00000000000E+00  0.45593999997E+02  0.45594000000E+02  0.51100000000E-03 0.  1.
         11   -1    0    0    0    0 -0.00000000000E+00 -0.00000000000E+00 -0.45593999997E+02  0.45594000000E+02  0.51100000000E-03 0. -1.
         23    2    1    2    0    0  0.00000000000E+00  0.00000000000E+00  0.00000000000E+00  0.91188000000E+02  0.91188000000E+02 0.  0.
    9900012    2    3    3    0    0  0.89028403567E+01  0.42191728956E+01 -0.35478419503E+02  0.54367078817E+02  0.39999987780E+02 0.  0.
        -12    1    3    3    0    0 -0.89028403567E+01 -0.42191728956E+01  0.35478419503E+02  0.36820921183E+02  0.00000000000E+00 0.  1.
         11    1    4    4    0    0  0.10641514913E+02  0.10319817720E+02 -0.35045711074E+02  0.38051837569E+02  0.51100000000E-03 0. -1.
        -11    1    4    4    0    0  0.42443129779E+01 -0.39743744340E+01 -0.56421760426E+01  0.81020982191E+01  0.51100000000E-03 0.  1.
         12    1    4    4    0    0 -0.59829875342E+01 -0.21262703902E+01  0.52094676136E+01  0.82131430296E+01  0.00000000000E+00 0. -1.
</event>
<event>
 8    1  0.1212194E-006  0.9118800E+02  0.7816164E-02  0.1184000E+00
        -11   -1    0    0    0    0  0.00000000000E+00  0.00000000000E+00  0.45593999997E+02  0.45594000000E+02  0.51100000000E-03 0.  1.
         11   -1    0    0    0    0 -0.00000000000E+00 -0.00000000000E+00 -0.45593999997E+02  0.45594000000E+02  0.51100000000E-03 0. -1.
         23    2    1    2    0    0  0.00000000000E+00 -0.17763568394E-14 -0.88817841970E-15  0.91188000000E+02  0.91188000000E+02 0.  0.
    9900012    2    3    3    0    0 -0.32879564536E+02 -0.15723610515E+02  0.52421853371E+01  0.54367106491E+02  0.40000050866E+02 0.  0.
        -12    1    3    3    0    0  0.32879564536E+02  0.15723610515E+02 -0.52421853371E+01  0.36820893509E+02  0.00000000000E+00 0.  1.
         11    1    4    4    0    0 -0.73878236106E+01 -0.15088028029E+02  0.67810917473E+01  0.18116614834E+02  0.51100000000E-03 0. -1.
        -11    1    4    4    0    0 -0.98390693474E+01 -0.34774786974E+01  0.11610474040E+02  0.15610997771E+02  0.51100000000E-03 0.  1.
         12    1    4    4    0    0 -0.15652671578E+02  0.28418962112E+01 -0.13149380450E+02  0.20639493885E+02  0.00000000000E+00 0. -1.
</event>
<event>
 8    1  0.1212194E-006  0.9118800E+02  0.7816164E-02  0.1184000E+00
        -11   -1    0    0    0    0  0.00000000000E+00  0.00000000000E+00  0.45593999997E+02  0.45594000000E+02  0.51100000000E-03 0.  1.
         11   -1    0    0    0    0 -0.00000000000E+00 -0.00000000000E+00 -0.45593999997E+02  0.45594000000E+02  0.51100000000E-03 0. -1.
         23    2    1    2    0    0 -0.88817841970E-15  0.00000000000E+00 -0.71054273576E-14  0.91188000000E+02  0.91188000000E+02 0.  0.
    9900012    2    3    3    0    0 -0.55634954784E+01  0.54888488790E+01 -0.35981929205E+02  0.54367093258E+02  0.40000020701E+02 0.  0.
        -12    1    3    3    0    0  0.55634954784E+01 -0.54888488790E+01  0.35981929205E+02  0.36820906742E+02  0.00000000000E+00 0.  1.
         11    1    4    4    0    0 -0.23494781108E+01  0.27186355800E+01  0.69329851593E+01  0.78087969810E+01  0.51100000000E-03 0.  1.
        -11    1    4    4    0    0  0.60437972511E+01  0.56859205915E+01 -0.18046805058E+02  0.19863140518E+02  0.51100000000E-03 0. -1.
         12    1    4    4    0    0 -0.92578146186E+01 -0.29157072924E+01 -0.24868109307E+02  0.26695155759E+02  0.00000000000E+00 0. -1.
</event>
<event>
 8    1  0.1212194E-006  0.9118800E+02  0.7816164E-02  0.1184000E+00
        -11   -1    0    0    0    0  0.00000000000E+00  0.00000000000E+00  0.45593999997E+02  0.45594000000E+02  0.51100000000E-03 0. -1.
         11   -1    0    0    0    0 -0.00000000000E+00 -0.00000000000E+00 -0.45593999997E+02  0.45594000000E+02  0.51100000000E-03 0.  1.
         23    2    1    2    0    0  0.00000000000E+00  0.00000000000E+00  0.35527136788E-14  0.91188000000E+02  0.91188000000E+02 0.  0.
    9900012    2    3    3    0    0 -0.30240147999E+02 -0.65471554007E+01  0.19961169459E+02  0.54367080932E+02  0.39999992601E+02 0.  0.
        -12    1    3    3    0    0  0.30240147999E+02  0.65471554007E+01 -0.19961169459E+02  0.36820919068E+02  0.00000000000E+00 0.  1.
         11    1    4    4    0    0 -0.69994741152E+01 -0.67914865070E+01 -0.45053853109E+01  0.10743157074E+02  0.51100000000E-03 0. -1.
        -11    1    4    4    0    0  0.59032646141E+01  0.28550923284E+01  0.67848552648E+01  0.94358013191E+01  0.51100000000E-03 0.  1.
         12    1    4    4    0    0 -0.29143938498E+02 -0.26107612221E+01  0.17681699505E+02  0.34188122539E+02  0.00000000000E+00 0. -1.
</event>
<event>
 8    1  0.1212194E-006  0.9118800E+02  0.7816164E-02  0.1184000E+00
        -11   -1    0    0    0    0  0.00000000000E+00  0.00000000000E+00  0.45593999997E+02  0.45594000000E+02  0.51100000000E-03 0. -1.
         11   -1    0    0    0    0 -0.00000000000E+00 -0.00000000000E+00 -0.45593999997E+02  0.45594000000E+02  0.51100000000E-03 0.  1.
         23    2    1    2    0    0  0.00000000000E+00  0.35527136788E-14  0.00000000000E+00  0.91188000000E+02  0.91188000000E+02 0.  0.
    9900012    2    3    3    0    0 -0.23646572953E+02 -0.19052067600E+02  0.20823957235E+02  0.54367097143E+02  0.40000029557E+02 0.  0.
        -12    1    3    3    0    0  0.23646572953E+02  0.19052067600E+02 -0.20823957235E+02  0.36820902857E+02  0.00000000000E+00 0.  1.
         11    1    4    4    0    0 -0.67715719967E+01 -0.26803709324E+02  0.86842327863E+01  0.28977731453E+02  0.51100000000E-03 0. -1.
        -11    1    4    4    0    0  0.36318266338E+00 -0.22834792823E+01  0.81063081331E+00  0.24501636387E+01  0.51100000000E-03 0.  1.
        -12    1    4    4    0    0 -0.17238183620E+02  0.10035121007E+02  0.11329093635E+02  0.22939202051E+02  0.00000000000E+00 0.  1.
</event>
<event>
 8    1  0.1212194E-006  0.9118800E+02  0.7816164E-02  0.1184000E+00
        -11   -1    0    0    0    0  0.00000000000E+00  0.00000000000E+00  0.45593999997E+02  0.45594000000E+02  0.51100000000E-03 0.  1.
         11   -1    0    0    0    0 -0.00000000000E+00 -0.00000000000E+00 -0.45593999997E+02  0.45594000000E+02  0.51100000000E-03 0. -1.
         23    2    1    2    0    0  0.00000000000E+00 -0.22204460493E-14  0.00000000000E+00  0.91188000000E+02  0.91188000000E+02 0.  0.
    9900012    2    3    3    0    0  0.86117181588E+01  0.25315421027E+01  0.35710096685E+02  0.54367063017E+02  0.39999951760E+02 0.  0.
         12    1    3    3    0    0 -0.86117181588E+01 -0.25315421027E+01 -0.35710096685E+02  0.36820936983E+02  0.00000000000E+00 0. -1.
         11    1    4    4    0    0  0.57243162866E+01  0.16939930323E+02  0.57406614009E+01  0.18779888974E+02  0.51100000000E-03 0. -1.
        -11    1    4    4    0    0 -0.35210630501E+01 -0.57777215841E+01  0.19257120590E+02  0.20411189221E+02  0.51100000000E-03 0.  1.
         12    1    4    4    0    0  0.64084649224E+01 -0.86306666361E+01  0.10712314693E+02  0.15175984823E+02  0.00000000000E+00 0. -1.
</event>
<event>
 8    1  0.1212194E-006  0.9118800E+02  0.7816164E-02  0.1184000E+00
        -11   -1    0    0    0    0  0.00000000000E+00  0.00000000000E+00  0.45593999997E+02  0.45594000000E+02  0.51100000000E-03 0.  1.
         11   -1    0    0    0    0 -0.00000000000E+00 -0.00000000000E+00 -0.45593999997E+02  0.45594000000E+02  0.51100000000E-03 0. -1.
         23    2    1    2    0    0  0.35527136788E-14  0.00000000000E+00 -0.55511151231E-16  0.91188000000E+02  0.91188000000E+02 0.  0.
    9900012    2    3    3    0    0  0.29923352568E+02 -0.21454362835E+02 -0.28695007916E+00  0.54367094880E+02  0.40000024397E+02 0.  0.
        -12    1    3    3    0    0 -0.29923352568E+02  0.21454362835E+02  0.28695007916E+00  0.36820905120E+02  0.00000000000E+00 0.  1.
         11    1    4    4    0    0 -0.22928777155E+01 -0.16530126799E+01  0.46207238303E+01  0.54167174668E+01  0.51100000000E-03 0. -1.
        -11    1    4    4    0    0  0.19213000802E+02  0.39117350763E+01  0.48525923578E+01  0.20198730752E+02  0.51100000000E-03 0.  1.
         12    1    4    4    0    0  0.13003229481E+02 -0.23713085231E+02 -0.97602662673E+01  0.28751646661E+02  0.00000000000E+00 0. -1.
</event>
<event>
 8    1  0.1212194E-006  0.9118800E+02  0.7816164E-02  0.1184000E+00
        -11   -1    0    0    0    0  0.00000000000E+00  0.00000000000E+00  0.45593999997E+02  0.45594000000E+02  0.51100000000E-03 0.  1.
         11   -1    0    0    0    0 -0.00000000000E+00 -0.00000000000E+00 -0.45593999997E+02  0.45594000000E+02  0.51100000000E-03 0. -1.
         23    2    1    2    0    0  0.88817841970E-15  0.71054273576E-14 -0.13322676296E-14  0.91188000000E+02  0.91188000000E+02 0.  0.
    9900012    2    3    3    0    0 -0.56566349456E+01  0.36356166920E+02 -0.14198718608E+01  0.54367021902E+02  0.39999858029E+02 0.  0.
        -12    1    3    3    0    0  0.56566349456E+01 -0.36356166920E+02  0.14198718608E+01  0.36820978098E+02  0.00000000000E+00 0.  1.
         11    1    4    4    0    0 -0.45756477399E+01  0.10945573571E+01 -0.46093568675E+01  0.65864086604E+01  0.51100000000E-03 0. -1.
        -11    1    4    4    0    0 -0.11102816995E+00 -0.43649759757E+01 -0.56776493334E+01  0.71624747635E+01  0.51100000000E-03 0.  1.
        -12    1    4    4    0    0 -0.96995903568E+00  0.39626585539E+02  0.88671343401E+01  0.40618138478E+02  0.00000000000E+00 0.  1.
</event>
<event>
 8    1  0.1212194E-006  0.9118800E+02  0.7816164E-02  0.1184000E+00
        -11   -1    0    0    0    0  0.00000000000E+00  0.00000000000E+00  0.45593999997E+02  0.45594000000E+02  0.51100000000E-03 0.  1.
         11   -1    0    0    0    0 -0.00000000000E+00 -0.00000000000E+00 -0.45593999997E+02  0.45594000000E+02  0.51100000000E-03 0. -1.
         23    2    1    2    0    0  0.35527136788E-14  0.00000000000E+00 -0.17763568394E-14  0.91188000000E+02  0.91188000000E+02 0.  0.
    9900012    2    3    3    0    0  0.31643425234E+02 -0.11512129938E+02 -0.14897813391E+02  0.54367077414E+02  0.39999984580E+02 0.  0.
         12    1    3    3    0    0 -0.31643425234E+02  0.11512129938E+02  0.14897813391E+02  0.36820922586E+02  0.00000000000E+00 0. -1.
         11    1    4    4    0    0  0.15397242758E+02 -0.10620005148E+02 -0.15400190811E+02  0.24228608527E+02  0.51100000000E-03 0. -1.
        -11    1    4    4    0    0  0.16825750606E+02  0.90184581274E+01 -0.35467503345E+01  0.19416949005E+02  0.51100000000E-03 0.  1.
        -12    1    4    4    0    0 -0.57956812959E+00 -0.99105829183E+01  0.40491277552E+01  0.10721519882E+02  0.00000000000E+00 0.  1.
</event>
<event>
 8    1  0.1212194E-006  0.9118800E+02  0.7816164E-02  0.1184000E+00
        -11   -1    0    0    0    0  0.00000000000E+00  0.00000000000E+00  0.45593999997E+02  0.45594000000E+02  0.51100000000E-03 0.  1.
         11   -1    0    0    0    0 -0.00000000000E+00 -0.00000000000E+00 -0.45593999997E+02  0.45594000000E+02  0.51100000000E-03 0. -1.
         23    2    1    2    0    0 -0.17763568394E-14 -0.35527136788E-14 -0.35527136788E-14  0.91188000000E+02  0.91188000000E+02 0.  0.
    9900012    2    3    3    0    0  0.12512033962E+02 -0.17046239193E+02 -0.30143898791E+02  0.54367083406E+02  0.39999998240E+02 0.  0.
        -12    1    3    3    0    0 -0.12512033962E+02  0.17046239193E+02  0.30143898791E+02  0.36820916594E+02  0.00000000000E+00 0.  1.
         11    1    4    4    0    0  0.50068848895E+01 -0.33489291779E+01 -0.26998739453E+02  0.27662540650E+02  0.51100000000E-03 0. -1.
        -11    1    4    4    0    0  0.10792383897E+02 -0.46301662357E+01  0.61958933604E+01  0.13277917169E+02  0.51100000000E-03 0.  1.
        -12    1    4    4    0    0 -0.32872348244E+01 -0.90671437794E+01 -0.93410526990E+01  0.13426625586E+02  0.00000000000E+00 0.  1.
</event>
<event>
 8    1  0.1212194E-006  0.9118800E+02  0.7816164E-02  0.1184000E+00
        -11   -1    0    0    0    0  0.00000000000E+00  0.00000000000E+00  0.45593999997E+02  0.45594000000E+02  0.51100000000E-03 0.  1.
         11   -1    0    0    0    0 -0.00000000000E+00 -0.00000000000E+00 -0.45593999997E+02  0.45594000000E+02  0.51100000000E-03 0. -1.
         23    2    1    2    0    0 -0.44408920985E-15 -0.71054273576E-14 -0.44408920985E-15  0.91188000000E+02  0.91188000000E+02 0.  0.
    9900012    2    3    3    0    0 -0.37772972009E+01 -0.36602455326E+02  0.13312607470E+01  0.54367082504E+02  0.39999996185E+02 0.  0.
        -12    1    3    3    0    0  0.37772972009E+01  0.36602455326E+02 -0.13312607470E+01  0.36820917496E+02  0.00000000000E+00 0.  1.
         11    1    4    4    0    0  0.95172955802E+00  0.26760412989E+01 -0.50999764165E+01  0.58375290916E+01  0.51100000000E-03 0. -1.
        -11    1    4    4    0    0  0.37564507205E+01  0.25181832016E+01 -0.21786531918E+01  0.50198305394E+01  0.51100000000E-03 0.  1.
         12    1    4    4    0    0 -0.84854774794E+01 -0.41796679827E+02  0.86098903553E+01  0.43509722873E+02  0.00000000000E+00 0. -1.
</event>
<event>
 8    1  0.1212194E-006  0.9118800E+02  0.7816164E-02  0.1184000E+00
        -11   -1    0    0    0    0  0.00000000000E+00  0.00000000000E+00  0.45593999997E+02  0.45594000000E+02  0.51100000000E-03 0.  1.
         11   -1    0    0    0    0 -0.00000000000E+00 -0.00000000000E+00 -0.45593999997E+02  0.45594000000E+02  0.51100000000E-03 0. -1.
         23    2    1    2    0    0  0.00000000000E+00  0.00000000000E+00  0.00000000000E+00  0.91188000000E+02  0.91188000000E+02 0.  0.
    9900012    2    3    3    0    0  0.86378479298E+01  0.17012682967E+02  0.31491722073E+02  0.54367185809E+02  0.40000231688E+02 0.  0.
         12    1    3    3    0    0 -0.86378479298E+01 -0.17012682967E+02 -0.31491722073E+02  0.36820814191E+02  0.00000000000E+00 0. -1.
         11    1    4    4    0    0  0.19614725812E+01 -0.76657318563E+01  0.18125643250E+01  0.81176480136E+01  0.51100000000E-03 0. -1.
        -11    1    4    4    0    0  0.44234208868E+01  0.14688202531E+02  0.52480926101E+00  0.15348790537E+02  0.51100000000E-03 0.  1.
         12    1    4    4    0    0  0.22529544619E+01  0.99902122922E+01  0.29154348487E+02  0.30900747258E+02  0.00000000000E+00 0. -1.
</event>
<event>
 8    1  0.1212194E-006  0.9118800E+02  0.7816164E-02  0.1184000E+00
        -11   -1    0    0    0    0  0.00000000000E+00  0.00000000000E+00  0.45593999997E+02  0.45594000000E+02  0.51100000000E-03 0.  1.
         11   -1    0    0    0    0 -0.00000000000E+00 -0.00000000000E+00 -0.45593999997E+02  0.45594000000E+02  0.51100000000E-03 0. -1.
         23    2    1    2    0    0  0.00000000000E+00  0.17763568394E-14  0.00000000000E+00  0.91188000000E+02  0.91188000000E+02 0.  0.
    9900012    2    3    3    0    0  0.33548596242E+02  0.12004255590E+02 -0.92826258781E+01  0.54367114551E+02  0.40000069241E+02 0.  0.
         12    1    3    3    0    0 -0.33548596242E+02 -0.12004255590E+02  0.92826258781E+01  0.36820885449E+02  0.00000000000E+00 0. -1.
         11    1    4    4    0    0  0.23251761620E+02  0.94385572946E+01 -0.91774467624E+01  0.26719960920E+02  0.51100000000E-03 0. -1.
        -11    1    4    4    0    0  0.14428364504E+02  0.10171782059E+02  0.39478918545E+01  0.18089463864E+02  0.51100000000E-03 0.  1.
         12    1    4    4    0    0 -0.41315298827E+01 -0.76060837632E+01 -0.40530709702E+01  0.95576897666E+01  0.00000000000E+00 0. -1.
</event>
<event>
 8    1  0.1212194E-006  0.9118800E+02  0.7816164E-02  0.1184000E+00
        -11   -1    0    0    0    0  0.00000000000E+00  0.00000000000E+00  0.45593999997E+02  0.45594000000E+02  0.51100000000E-03 0. -1.
         11   -1    0    0    0    0 -0.00000000000E+00 -0.00000000000E+00 -0.45593999997E+02  0.45594000000E+02  0.51100000000E-03 0.  1.
         23    2    1    2    0    0  0.00000000000E+00  0.00000000000E+00 -0.35527136788E-14  0.91188000000E+02  0.91188000000E+02 0.  0.
    9900012    2    3    3    0    0 -0.29686679488E+02 -0.53298360573E+01  0.21120460351E+02  0.54367082889E+02  0.39999997063E+02 0.  0.
         12    1    3    3    0    0  0.29686679488E+02  0.53298360573E+01 -0.21120460351E+02  0.36820917111E+02  0.00000000000E+00 0. -1.
         11    1    4    4    0    0 -0.75410469121E+01  0.40435856360E+01  0.66538887628E+01  0.10839382328E+02  0.51100000000E-03 0. -1.
        -11    1    4    4    0    0 -0.22030469806E+02 -0.19849524984E+02  0.14593497818E+02  0.33050195473E+02  0.51100000000E-03 0.  1.
        -12    1    4    4    0    0 -0.11516276963E+00  0.10476103290E+02 -0.12692622933E+00  0.10477505089E+02  0.00000000000E+00 0.  1.
</event>
<event>
 8    1  0.1212194E-006  0.9118800E+02  0.7816164E-02  0.1184000E+00
        -11   -1    0    0    0    0  0.00000000000E+00  0.00000000000E+00  0.45593999997E+02  0.45594000000E+02  0.51100000000E-03 0. -1.
         11   -1    0    0    0    0 -0.00000000000E+00 -0.00000000000E+00 -0.45593999997E+02  0.45594000000E+02  0.51100000000E-03 0.  1.
         23    2    1    2    0    0  0.00000000000E+00  0.35527136788E-14  0.00000000000E+00  0.91188000000E+02  0.91188000000E+02 0.  0.
    9900012    2    3    3    0    0  0.24279251484E+02 -0.27165912490E+02 -0.53208235178E+01  0.54367081802E+02  0.39999994584E+02 0.  0.
        -12    1    3    3    0    0 -0.24279251484E+02  0.27165912490E+02  0.53208235178E+01  0.36820918198E+02  0.00000000000E+00 0.  1.
         11    1    4    4    0    0 -0.89438197403E-01 -0.92974499052E+01  0.53657891472E+01  0.10735095126E+02  0.51100000000E-03 0. -1.
        -11    1    4    4    0    0  0.69907017525E+01  0.98964812284E+00 -0.15959355961E+02  0.17451371217E+02  0.51100000000E-03 0.  1.
        -12    1    4    4    0    0  0.17377987929E+02 -0.18858110708E+02  0.52727432965E+01  0.26180615459E+02  0.00000000000E+00 0.  1.
</event>
<event>
 8    1  0.1212194E-006  0.9118800E+02  0.7816164E-02  0.1184000E+00
        -11   -1    0    0    0    0  0.00000000000E+00  0.00000000000E+00  0.45593999997E+02  0.45594000000E+02  0.51100000000E-03 0.  1.
         11   -1    0    0    0    0 -0.00000000000E+00 -0.00000000000E+00 -0.45593999997E+02  0.45594000000E+02  0.51100000000E-03 0. -1.
         23    2    1    2    0    0  0.88817841970E-15  0.17763568394E-14 -0.71054273576E-14  0.91188000000E+02  0.91188000000E+02 0.  0.
    9900012    2    3    3    0    0  0.63597516679E+01  0.12837297727E+02 -0.33919562975E+02  0.54367090090E+02  0.40000013478E+02 0.  0.
        -12    1    3    3    0    0 -0.63597516679E+01 -0.12837297727E+02  0.33919562975E+02  0.36820909910E+02  0.00000000000E+00 0.  1.
         11    1    4    4    0    0 -0.77637539075E+01  0.85246491445E+01 -0.27087365635E+02  0.29439274704E+02  0.51100000000E-03 0. -1.
        -11    1    4    4    0    0  0.84784612808E+00 -0.42480492596E+01 -0.79902550709E+01  0.90889461396E+01  0.51100000000E-03 0.  1.
        -12    1    4    4    0    0  0.13275659447E+02  0.85606978423E+01  0.11580577313E+01  0.15838869247E+02  0.00000000000E+00 0.  1.
</event>
<event>
 8    1  0.1212194E-006  0.9118800E+02  0.7816164E-02  0.1184000E+00
        -11   -1    0    0    0    0  0.00000000000E+00  0.00000000000E+00  0.45593999997E+02  0.45594000000E+02  0.51100000000E-03 0.  1.
         11   -1    0    0    0    0 -0.00000000000E+00 -0.00000000000E+00 -0.45593999997E+02  0.45594000000E+02  0.51100000000E-03 0. -1.
         23    2    1    2    0    0  0.00000000000E+00  0.77715611724E-15 -0.17763568394E-14  0.91188000000E+02  0.91188000000E+02 0.  0.
    9900012    2    3    3    0    0  0.34945429600E+02 -0.75356891970E+00  0.11577158320E+02  0.54367061516E+02  0.39999948339E+02 0.  0.
         12    1    3    3    0    0 -0.34945429600E+02  0.75356891970E+00 -0.11577158320E+02  0.36820938484E+02  0.00000000000E+00 0. -1.
         11    1    4    4    0    0 -0.32744062265E+01 -0.29407983620E+01  0.45552873961E+01  0.63340883057E+01  0.51100000000E-03 0.  1.
        -11    1    4    4    0    0  0.27024857860E+02 -0.15665739632E+01  0.17510224865E+02  0.32239805697E+02  0.51100000000E-03 0. -1.
         12    1    4    4    0    0  0.11194977967E+02  0.37538034055E+01 -0.10488353942E+02  0.15793167513E+02  0.00000000000E+00 0. -1.
</event>
<event>
 8    1  0.1212194E-006  0.9118800E+02  0.7816164E-02  0.1184000E+00
        -11   -1    0    0    0    0  0.00000000000E+00  0.00000000000E+00  0.45593999997E+02  0.45594000000E+02  0.51100000000E-03 0.  1.
         11   -1    0    0    0    0 -0.00000000000E+00 -0.00000000000E+00 -0.45593999997E+02  0.45594000000E+02  0.51100000000E-03 0. -1.
         23    2    1    2    0    0  0.88817841970E-15  0.00000000000E+00  0.00000000000E+00  0.91188000000E+02  0.91188000000E+02 0.  0.
    9900012    2    3    3    0    0  0.22203117178E+01  0.11145097781E+02 -0.35023383388E+02  0.54367076972E+02  0.39999983573E+02 0.  0.
        -12    1    3    3    0    0 -0.22203117178E+01 -0.11145097781E+02  0.35023383388E+02  0.36820923028E+02  0.00000000000E+00 0.  1.
         11    1    4    4    0    0 -0.99511751641E+01  0.94615263975E+01 -0.66463832089E+01  0.15255188591E+02  0.51100000000E-03 0. -1.
        -11    1    4    4    0    0 -0.28751499590E+01 -0.44069624434E+01 -0.20319102859E+02  0.20989372228E+02  0.51100000000E-03 0.  1.
         12    1    4    4    0    0  0.15046636841E+02  0.60905338266E+01 -0.80578973207E+01  0.18122516154E+02  0.00000000000E+00 0. -1.
</event>
<event>
 8    1  0.1212194E-006  0.9118800E+02  0.7816164E-02  0.1184000E+00
        -11   -1    0    0    0    0  0.00000000000E+00  0.00000000000E+00  0.45593999997E+02  0.45594000000E+02  0.51100000000E-03 0. -1.
         11   -1    0    0    0    0 -0.00000000000E+00 -0.00000000000E+00 -0.45593999997E+02  0.45594000000E+02  0.51100000000E-03 0.  1.
         23    2    1    2    0    0  0.00000000000E+00  0.00000000000E+00  0.00000000000E+00  0.91188000000E+02  0.91188000000E+02 0.  0.
    9900012    2    3    3    0    0  0.10446366053E+02 -0.19552689241E+02  0.29399764953E+02  0.54367076607E+02  0.39999982740E+02 0.  0.
        -12    1    3    3    0    0 -0.10446366053E+02  0.19552689241E+02 -0.29399764953E+02  0.36820923393E+02  0.00000000000E+00 0.  1.
         11    1    4    4    0    0 -0.21037248229E+01  0.27031224765E+01  0.12352433926E+02  0.12818547243E+02  0.51100000000E-03 0. -1.
        -11    1    4    4    0    0 -0.33194045686E+01 -0.52100532374E+01  0.17181864371E+02  0.18258684644E+02  0.51100000000E-03 0.  1.
        -12    1    4    4    0    0  0.15869495444E+02 -0.17045758480E+02 -0.13453334453E+00  0.23289844719E+02  0.00000000000E+00 0.  1.
</event>
<event>
 8    1  0.1212194E-006  0.9118800E+02  0.7816164E-02  0.1184000E+00
        -11   -1    0    0    0    0  0.00000000000E+00  0.00000000000E+00  0.45593999997E+02  0.45594000000E+02  0.51100000000E-03 0.  1.
         11   -1    0    0    0    0 -0.00000000000E+00 -0.00000000000E+00 -0.45593999997E+02  0.45594000000E+02  0.51100000000E-03 0. -1.
         23    2    1    2    0    0  0.35527136788E-14  0.35527136788E-14  0.00000000000E+00  0.91188000000E+02  0.91188000000E+02 0.  0.
    9900012    2    3    3    0    0  0.21127627907E+02  0.24367511696E+02 -0.17765918133E+02  0.54367080208E+02  0.39999990950E+02 0.  0.
        -12    1    3    3    0    0 -0.21127627907E+02 -0.24367511696E+02  0.17765918133E+02  0.36820919792E+02  0.00000000000E+00 0.  1.
         11    1    4    4    0    0  0.68913451283E+01  0.30365452979E-01 -0.26296401036E+00  0.68964273410E+01  0.51100000000E-03 0.  1.
        -11    1    4    4    0    0  0.12401666294E+02  0.29443368227E+02 -0.31227063000E+01  0.32100849744E+02  0.51100000000E-03 0. -1.
         12    1    4    4    0    0  0.18346164850E+01 -0.51062219839E+01 -0.14380247823E+02  0.15369803123E+02  0.00000000000E+00 0. -1.
</event>
<event>
 8    1  0.1212194E-006  0.9118800E+02  0.7816164E-02  0.1184000E+00
        -11   -1    0    0    0    0  0.00000000000E+00  0.00000000000E+00  0.45593999997E+02  0.45594000000E+02  0.51100000000E-03 0. -1.
         11   -1    0    0    0    0 -0.00000000000E+00 -0.00000000000E+00 -0.45593999997E+02  0.45594000000E+02  0.51100000000E-03 0.  1.
         23    2    1    2    0    0  0.35527136788E-14  0.00000000000E+00  0.00000000000E+00  0.91188000000E+02  0.91188000000E+02 0.  0.
    9900012    2    3    3    0    0  0.29652423001E+02 -0.16791150711E+02  0.13948870402E+02  0.54367083152E+02  0.39999997663E+02 0.  0.
        -12    1    3    3    0    0 -0.29652423001E+02  0.16791150711E+02 -0.13948870402E+02  0.36820916848E+02  0.00000000000E+00 0.  1.
         11    1    4    4    0    0  0.23757207057E+01 -0.68104383301E+01  0.58487088037E+01  0.92862001945E+01  0.51100000000E-03 0. -1.
        -11    1    4    4    0    0  0.51005462847E+01  0.67598933660E+01 -0.90776138826E+01  0.12414298401E+02  0.51100000000E-03 0.  1.
        -12    1    4    4    0    0  0.22176156010E+02 -0.16740605747E+02  0.17177775481E+02  0.32666584557E+02  0.00000000000E+00 0.  1.
</event>
<event>
 8    1  0.1212194E-006  0.9118800E+02  0.7816164E-02  0.1184000E+00
        -11   -1    0    0    0    0  0.00000000000E+00  0.00000000000E+00  0.45593999997E+02  0.45594000000E+02  0.51100000000E-03 0. -1.
         11   -1    0    0    0    0 -0.00000000000E+00 -0.00000000000E+00 -0.45593999997E+02  0.45594000000E+02  0.51100000000E-03 0.  1.
         23    2    1    2    0    0  0.00000000000E+00  0.35527136788E-14 -0.26645352591E-14  0.91188000000E+02  0.91188000000E+02 0.  0.
    9900012    2    3    3    0    0  0.21926800869E+02 -0.28624570230E+02  0.74585054875E+01  0.54367083101E+02  0.39999997545E+02 0.  0.
        -12    1    3    3    0    0 -0.21926800869E+02  0.28624570230E+02 -0.74585054875E+01  0.36820916899E+02  0.00000000000E+00 0.  1.
         11    1    4    4    0    0  0.18337628273E+02 -0.14968794352E+02  0.19473659996E+02  0.30652191584E+02  0.51100000000E-03 0. -1.
        -11    1    4    4    0    0  0.77391584786E+01 -0.20517510568E+01 -0.59765755904E+01  0.99911817322E+01  0.51100000000E-03 0.  1.
        -12    1    4    4    0    0 -0.41499858828E+01 -0.11604024822E+02 -0.60385789182E+01  0.13723709784E+02  0.00000000000E+00 0.  1.
</event>
<event>
 8    1  0.1212194E-006  0.9118800E+02  0.7816164E-02  0.1184000E+00
        -11   -1    0    0    0    0  0.00000000000E+00  0.00000000000E+00  0.45593999997E+02  0.45594000000E+02  0.51100000000E-03 0. -1.
         11   -1    0    0    0    0 -0.00000000000E+00 -0.00000000000E+00 -0.45593999997E+02  0.45594000000E+02  0.51100000000E-03 0.  1.
         23    2    1    2    0    0  0.35527136788E-14 -0.88817841970E-15  0.35527136788E-14  0.91188000000E+02  0.91188000000E+02 0.  0.
    9900012    2    3    3    0    0  0.22987387800E+02  0.72624946078E+01 -0.27831917232E+02  0.54367089601E+02  0.40000012363E+02 0.  0.
         12    1    3    3    0    0 -0.22987387800E+02 -0.72624946078E+01  0.27831917232E+02  0.36820910399E+02  0.00000000000E+00 0. -1.
         11    1    4    4    0    0 -0.73866328140E+01  0.30317074961E+01 -0.51481657407E+01  0.95003792254E+01  0.51100000000E-03 0. -1.
        -11    1    4    4    0    0  0.32323841865E+01  0.70511409024E+01 -0.14388194364E+02  0.16345856750E+02  0.51100000000E-03 0.  1.
        -12    1    4    4    0    0  0.27141636428E+02 -0.28203537907E+01 -0.82955571272E+01  0.28520853626E+02  0.00000000000E+00 0.  1.
</event>
<event>
 8    1  0.1212194E-006  0.9118800E+02  0.7816164E-02  0.1184000E+00
        -11   -1    0    0    0    0  0.00000000000E+00  0.00000000000E+00  0.45593999997E+02  0.45594000000E+02  0.51100000000E-03 0.  1.
         11   -1    0    0    0    0 -0.00000000000E+00 -0.00000000000E+00 -0.45593999997E+02  0.45594000000E+02  0.51100000000E-03 0. -1.
         23    2    1    2    0    0  0.00000000000E+00  0.00000000000E+00 -0.38857805862E-15  0.91188000000E+02  0.91188000000E+02 0.  0.
    9900012    2    3    3    0    0 -0.14756175352E+02  0.33731933534E+02 -0.43814219825E+00  0.54367081766E+02  0.39999994503E+02 0.  0.
         12    1    3    3    0    0  0.14756175352E+02 -0.33731933534E+02  0.43814219825E+00  0.36820918234E+02  0.00000000000E+00 0. -1.
         11    1    4    4    0    0 -0.14085308684E+02  0.54806853181E+01 -0.14449958512E+02  0.20910168185E+02  0.51100000000E-03 0. -1.
        -11    1    4    4    0    0  0.45371630881E+01  0.20041875413E+02  0.10825033704E+02  0.23225933220E+02  0.51100000000E-03 0.  1.
         12    1    4    4    0    0 -0.52080297563E+01  0.82093728029E+01  0.31867826097E+01  0.10230980362E+02  0.00000000000E+00 0. -1.
</event>
<event>
 8    1  0.1212194E-006  0.9118800E+02  0.7816164E-02  0.1184000E+00
        -11   -1    0    0    0    0  0.00000000000E+00  0.00000000000E+00  0.45593999997E+02  0.45594000000E+02  0.51100000000E-03 0. -1.
         11   -1    0    0    0    0 -0.00000000000E+00 -0.00000000000E+00 -0.45593999997E+02  0.45594000000E+02  0.51100000000E-03 0.  1.
         23    2    1    2    0    0  0.35527136788E-14  0.00000000000E+00 -0.21371793224E-14  0.91188000000E+02  0.91188000000E+02 0.  0.
    9900012    2    3    3    0    0  0.22484081245E+02 -0.29157926860E+02 -0.24624544325E+00  0.54367092284E+02  0.40000018480E+02 0.  0.
        -12    1    3    3    0    0 -0.22484081245E+02  0.29157926860E+02  0.24624544325E+00  0.36820907716E+02  0.00000000000E+00 0.  1.
         11    1    4    4    0    0  0.13117654500E+02 -0.13961612586E+02 -0.12456726905E+02  0.22851029102E+02  0.51100000000E-03 0. -1.
        -11    1    4    4    0    0  0.14098753785E+01 -0.40827976155E+01 -0.68278845795E+01  0.80794178654E+01  0.51100000000E-03 0.  1.
         12    1    4    4    0    0  0.79565513671E+01 -0.11113516659E+02  0.19038366041E+02  0.23436645317E+02  0.00000000000E+00 0. -1.
</event>
<event>
 8    1  0.1212194E-006  0.9118800E+02  0.7816164E-02  0.1184000E+00
        -11   -1    0    0    0    0  0.00000000000E+00  0.00000000000E+00  0.45593999997E+02  0.45594000000E+02  0.51100000000E-03 0.  1.
         11   -1    0    0    0    0 -0.00000000000E+00 -0.00000000000E+00 -0.45593999997E+02  0.45594000000E+02  0.51100000000E-03 0. -1.
         23    2    1    2    0    0 -0.88817841970E-15 -0.17763568394E-14  0.00000000000E+00  0.91188000000E+02  0.91188000000E+02 0.  0.
    9900012    2    3    3    0    0 -0.50620344985E+01  0.13228511073E+02  0.33987670236E+02  0.54367089819E+02  0.40000012860E+02 0.  0.
         12    1    3    3    0    0  0.50620344985E+01 -0.13228511073E+02 -0.33987670236E+02  0.36820910181E+02  0.00000000000E+00 0. -1.
         11    1    4    4    0    0  0.44162149248E+01 -0.90007943496E+00  0.17693784833E+02  0.18258781976E+02  0.51100000000E-03 0.  1.
        -11    1    4    4    0    0  0.42645454101E+01 -0.12291631699E+01  0.14793510890E+02  0.15444907069E+02  0.51100000000E-03 0. -1.
         12    1    4    4    0    0 -0.13742794833E+02  0.15357753678E+02  0.15003745128E+01  0.20663400774E+02  0.00000000000E+00 0. -1.
</event>
<event>
 8    1  0.1212194E-006  0.9118800E+02  0.7816164E-02  0.1184000E+00
        -11   -1    0    0    0    0  0.00000000000E+00  0.00000000000E+00  0.45593999997E+02  0.45594000000E+02  0.51100000000E-03 0.  1.
         11   -1    0    0    0    0 -0.00000000000E+00 -0.00000000000E+00 -0.45593999997E+02  0.45594000000E+02  0.51100000000E-03 0. -1.
         23    2    1    2    0    0 -0.35527136788E-14  0.35527136788E-14 -0.55511151231E-16  0.91188000000E+02  0.91188000000E+02 0.  0.
    9900012    2    3    3    0    0 -0.30713932021E+02 -0.20303913693E+02  0.43077543515E+00  0.54367080688E+02  0.39999992045E+02 0.  0.
         12    1    3    3    0    0  0.30713932021E+02  0.20303913693E+02 -0.43077543515E+00  0.36820919312E+02  0.00000000000E+00 0. -1.
         11    1    4    4    0    0  0.82261071963E+01 -0.10623804529E+02  0.22013123939E+01  0.13615426500E+02  0.51100000000E-03 0. -1.
        -11    1    4    4    0    0 -0.27605448711E+02 -0.89308622737E+01  0.11008658472E+01  0.29035030659E+02  0.51100000000E-03 0.  1.
         12    1    4    4    0    0 -0.11334590506E+02 -0.74924689091E+00 -0.28714028059E+01  0.11716623529E+02  0.00000000000E+00 0. -1.
</event>
<event>
 8    1  0.1212194E-006  0.9118800E+02  0.7816164E-02  0.1184000E+00
        -11   -1    0    0    0    0  0.00000000000E+00  0.00000000000E+00  0.45593999997E+02  0.45594000000E+02  0.51100000000E-03 0.  1.
         11   -1    0    0    0    0 -0.00000000000E+00 -0.00000000000E+00 -0.45593999997E+02  0.45594000000E+02  0.51100000000E-03 0. -1.
         23    2    1    2    0    0  0.17763568394E-14 -0.17763568394E-14  0.00000000000E+00  0.91188000000E+02  0.91188000000E+02 0.  0.
    9900012    2    3    3    0    0  0.11098861659E+02 -0.10135442347E+02  0.33613511539E+02  0.54367080950E+02  0.39999992643E+02 0.  0.
         12    1    3    3    0    0 -0.11098861659E+02  0.10135442347E+02 -0.33613511539E+02  0.36820919050E+02  0.00000000000E+00 0. -1.
         11    1    4    4    0    0  0.16619720092E+01 -0.62489550811E+01 -0.25771537260E+01  0.69608413395E+01  0.51100000000E-03 0. -1.
        -11    1    4    4    0    0 -0.28829012791E+01  0.83503406329E+01  0.25566464821E+02  0.27049647543E+02  0.51100000000E-03 0.  1.
        -12    1    4    4    0    0  0.12319790929E+02 -0.12236827899E+02  0.10624200443E+02  0.20356592068E+02  0.00000000000E+00 0.  1.
</event>
<event>
 8    1  0.1212194E-006  0.9118800E+02  0.7816164E-02  0.1184000E+00
        -11   -1    0    0    0    0  0.00000000000E+00  0.00000000000E+00  0.45593999997E+02  0.45594000000E+02  0.51100000000E-03 0. -1.
         11   -1    0    0    0    0 -0.00000000000E+00 -0.00000000000E+00 -0.45593999997E+02  0.45594000000E+02  0.51100000000E-03 0.  1.
         23    2    1    2    0    0  0.00000000000E+00  0.00000000000E+00  0.00000000000E+00  0.91188000000E+02  0.91188000000E+02 0.  0.
    9900012    2    3    3    0    0 -0.23200834922E+02 -0.16302439130E+02  0.23488987666E+02  0.54367071111E+02  0.39999970213E+02 0.  0.
        -12    1    3    3    0    0  0.23200834922E+02  0.16302439130E+02 -0.23488987666E+02  0.36820928889E+02  0.00000000000E+00 0.  1.
         11    1    4    4    0    0 -0.14059237232E+02 -0.36598828525E+01  0.20561792191E+02  0.25176262479E+02  0.51100000000E-03 0. -1.
        -11    1    4    4    0    0 -0.15946393637E+02 -0.16354589198E+01  0.26467834117E+01  0.16247081540E+02  0.51100000000E-03 0.  1.
        -12    1    4    4    0    0  0.68047959468E+01 -0.11007097357E+02  0.28041206341E+00  0.12943727092E+02  0.00000000000E+00 0.  1.
</event>
<event>
 8    1  0.1212194E-006  0.9118800E+02  0.7816164E-02  0.1184000E+00
        -11   -1    0    0    0    0  0.00000000000E+00  0.00000000000E+00  0.45593999997E+02  0.45594000000E+02  0.51100000000E-03 0. -1.
         11   -1    0    0    0    0 -0.00000000000E+00 -0.00000000000E+00 -0.45593999997E+02  0.45594000000E+02  0.51100000000E-03 0.  1.
         23    2    1    2    0    0  0.00000000000E+00  0.00000000000E+00  0.44408920985E-14  0.91188000000E+02  0.91188000000E+02 0.  0.
    9900012    2    3    3    0    0 -0.16066419709E+02  0.32469838066E+02 -0.65845093228E+01  0.54367136494E+02  0.40000119266E+02 0.  0.
         12    1    3    3    0    0  0.16066419709E+02 -0.32469838066E+02  0.65845093228E+01  0.36820863506E+02  0.00000000000E+00 0. -1.
         11    1    4    4    0    0 -0.85477606787E+01  0.18514033516E+02  0.13494816080E+02  0.24452887579E+02  0.51100000000E-03 0. -1.
        -11    1    4    4    0    0 -0.10921442682E+02  0.85871484728E+01 -0.74236602420E+01  0.15752071635E+02  0.51100000000E-03 0.  1.
         12    1    4    4    0    0  0.34027836515E+01  0.53686560766E+01 -0.12655665161E+02  0.14162177280E+02  0.00000000000E+00 0. -1.
</event>
<event>
 8    1  0.1212194E-006  0.9118800E+02  0.7816164E-02  0.1184000E+00
        -11   -1    0    0    0    0  0.00000000000E+00  0.00000000000E+00  0.45593999997E+02  0.45594000000E+02  0.51100000000E-03 0. -1.
         11   -1    0    0    0    0 -0.00000000000E+00 -0.00000000000E+00 -0.45593999997E+02  0.45594000000E+02  0.51100000000E-03 0.  1.
         23    2    1    2    0    0  0.00000000000E+00  0.47184478547E-15  0.00000000000E+00  0.91188000000E+02  0.91188000000E+02 0.  0.
    9900012    2    3    3    0    0 -0.33515762734E+02  0.15762814481E+00  0.15246292239E+02  0.54367073540E+02  0.39999975750E+02 0.  0.
         12    1    3    3    0    0  0.33515762734E+02 -0.15762814481E+00 -0.15246292239E+02  0.36820926460E+02  0.00000000000E+00 0. -1.
         11    1    4    4    0    0 -0.33540830078E+01  0.31370131687E+01 -0.10344939712E+02  0.11318502655E+02  0.51100000000E-03 0. -1.
        -11    1    4    4    0    0 -0.29006542570E+02  0.11300825767E+01  0.17486927402E+02  0.33888777327E+02  0.51100000000E-03 0.  1.
        -12    1    4    4    0    0 -0.11551371567E+01 -0.41094676006E+01  0.81043045491E+01  0.91597935586E+01  0.00000000000E+00 0.  1.
</event>
<event>
 8    1  0.1212194E-006  0.9118800E+02  0.7816164E-02  0.1184000E+00
        -11   -1    0    0    0    0  0.00000000000E+00  0.00000000000E+00  0.45593999997E+02  0.45594000000E+02  0.51100000000E-03 0.  1.
         11   -1    0    0    0    0 -0.00000000000E+00 -0.00000000000E+00 -0.45593999997E+02  0.45594000000E+02  0.51100000000E-03 0. -1.
         23    2    1    2    0    0  0.17763568394E-14  0.00000000000E+00 -0.71054273576E-14  0.91188000000E+02  0.91188000000E+02 0.  0.
    9900012    2    3    3    0    0 -0.15149949450E+02  0.25071878952E+02  0.22308271995E+02  0.54367094499E+02  0.40000023529E+02 0.  0.
         12    1    3    3    0    0  0.15149949450E+02 -0.25071878952E+02 -0.22308271995E+02  0.36820905501E+02  0.00000000000E+00 0. -1.
         11    1    4    4    0    0  0.37268561506E+01 -0.29784205908E+01  0.13592933718E+01  0.49606576897E+01  0.51100000000E-03 0.  1.
        -11    1    4    4    0    0  0.49167696842E+01  0.51940144492E+00 -0.30572773182E+01  0.58130325004E+01  0.51100000000E-03 0. -1.
        -12    1    4    4    0    0 -0.23793575285E+02  0.27530898098E+02  0.24006255941E+02  0.43593404309E+02  0.00000000000E+00 0.  1.
</event>
<event>
 8    1  0.1212194E-006  0.9118800E+02  0.7816164E-02  0.1184000E+00
        -11   -1    0    0    0    0  0.00000000000E+00  0.00000000000E+00  0.45593999997E+02  0.45594000000E+02  0.51100000000E-03 0.  1.
         11   -1    0    0    0    0 -0.00000000000E+00 -0.00000000000E+00 -0.45593999997E+02  0.45594000000E+02  0.51100000000E-03 0. -1.
         23    2    1    2    0    0 -0.17763568394E-14  0.71054273576E-14 -0.44408920985E-15  0.91188000000E+02  0.91188000000E+02 0.  0.
    9900012    2    3    3    0    0 -0.45881029106E+01 -0.36518207672E+02 -0.10721957410E+01  0.54367084971E+02  0.40000001808E+02 0.  0.
        -12    1    3    3    0    0  0.45881029106E+01  0.36518207672E+02  0.10721957410E+01  0.36820915029E+02  0.00000000000E+00 0.  1.
         11    1    4    4    0    0  0.20336139294E+01 -0.73894468569E+01  0.10228747106E+02  0.12781501402E+02  0.51100000000E-03 0.  1.
        -11    1    4    4    0    0 -0.15501795854E+02 -0.24371743720E+02 -0.40346336301E+01  0.29164461857E+02  0.51100000000E-03 0. -1.
         12    1    4    4    0    0  0.88800790139E+01 -0.47570170954E+01 -0.72663092170E+01  0.12421121712E+02  0.00000000000E+00 0. -1.
</event>
<event>
 8    1  0.1212194E-006  0.9118800E+02  0.7816164E-02  0.1184000E+00
        -11   -1    0    0    0    0  0.00000000000E+00  0.00000000000E+00  0.45593999997E+02  0.45594000000E+02  0.51100000000E-03 0.  1.
         11   -1    0    0    0    0 -0.00000000000E+00 -0.00000000000E+00 -0.45593999997E+02  0.45594000000E+02  0.51100000000E-03 0. -1.
         23    2    1    2    0    0 -0.35527136788E-14  0.35527136788E-14  0.00000000000E+00  0.91188000000E+02  0.91188000000E+02 0.  0.
    9900012    2    3    3    0    0 -0.21474683118E+02 -0.18471459808E+02 -0.23525025633E+02  0.54367032149E+02  0.39999881389E+02 0.  0.
        -12    1    3    3    0    0  0.21474683118E+02  0.18471459808E+02  0.23525025633E+02  0.36820967851E+02  0.00000000000E+00 0.  1.
         11    1    4    4    0    0 -0.15631879917E+02 -0.26266528487E+02 -0.25046383201E+02  0.39517179811E+02  0.51100000000E-03 0. -1.
        -11    1    4    4    0    0  0.23812762378E+01  0.11774359553E+01  0.32024777884E+01  0.41608528207E+01  0.51100000000E-03 0.  1.
         12    1    4    4    0    0 -0.82240794385E+01  0.66176327236E+01 -0.16811202209E+01  0.10688999517E+02  0.00000000000E+00 0. -1.
</event>
<event>
 8    1  0.1212194E-006  0.9118800E+02  0.7816164E-02  0.1184000E+00
        -11   -1    0    0    0    0  0.00000000000E+00  0.00000000000E+00  0.45593999997E+02  0.45594000000E+02  0.51100000000E-03 0. -1.
         11   -1    0    0    0    0 -0.00000000000E+00 -0.00000000000E+00 -0.45593999997E+02  0.45594000000E+02  0.51100000000E-03 0.  1.
         23    2    1    2    0    0 -0.17763568394E-14  0.00000000000E+00  0.00000000000E+00  0.91188000000E+02  0.91188000000E+02 0.  0.
    9900012    2    3    3    0    0  0.10779890786E+02  0.20075958479E+01  0.35150495032E+02  0.54366894810E+02  0.39999568296E+02 0.  0.
        -12    1    3    3    0    0 -0.10779890786E+02 -0.20075958479E+01 -0.35150495032E+02  0.36821105190E+02  0.00000000000E+00 0.  1.
         11    1    4    4    0    0 -0.71674236080E+01  0.83429009537E+01  0.30821773172E+02  0.32725489443E+02  0.51100000000E-03 0. -1.
        -11    1    4    4    0    0  0.19693582407E+01  0.95846902035E+00  0.34107562353E+01  0.40534297947E+01  0.51100000000E-03 0.  1.
         12    1    4    4    0    0  0.15977956154E+02 -0.72937741262E+01  0.91796562402E+00  0.17587975573E+02  0.00000000000E+00 0. -1.
</event>
<event>
 8    1  0.1212194E-006  0.9118800E+02  0.7816164E-02  0.1184000E+00
        -11   -1    0    0    0    0  0.00000000000E+00  0.00000000000E+00  0.45593999997E+02  0.45594000000E+02  0.51100000000E-03 0.  1.
         11   -1    0    0    0    0 -0.00000000000E+00 -0.00000000000E+00 -0.45593999997E+02  0.45594000000E+02  0.51100000000E-03 0. -1.
         23    2    1    2    0    0  0.00000000000E+00 -0.44408920985E-15 -0.13322676296E-14  0.91188000000E+02  0.91188000000E+02 0.  0.
    9900012    2    3    3    0    0  0.36592522856E+02 -0.20654132994E+01  0.35357902517E+01  0.54367075599E+02  0.39999980443E+02 0.  0.
         12    1    3    3    0    0 -0.36592522856E+02  0.20654132994E+01 -0.35357902517E+01  0.36820924401E+02  0.00000000000E+00 0. -1.
         11    1    4    4    0    0  0.73206785694E+01  0.11068460692E+02  0.95909258989E+01  0.16373424098E+02  0.51100000000E-03 0. -1.
        -11    1    4    4    0    0  0.33961953647E+00  0.25075517336E+01  0.29567420003E+01  0.38917194970E+01  0.51100000000E-03 0.  1.
        -12    1    4    4    0    0  0.28932224750E+02 -0.15641425725E+02 -0.90118776474E+01  0.34101932004E+02  0.00000000000E+00 0.  1.
</event>
<event>
 8    1  0.1212194E-006  0.9118800E+02  0.7816164E-02  0.1184000E+00
        -11   -1    0    0    0    0  0.00000000000E+00  0.00000000000E+00  0.45593999997E+02  0.45594000000E+02  0.51100000000E-03 0. -1.
         11   -1    0    0    0    0 -0.00000000000E+00 -0.00000000000E+00 -0.45593999997E+02  0.45594000000E+02  0.51100000000E-03 0.  1.
         23    2    1    2    0    0  0.88817841970E-15  0.00000000000E+00  0.17763568394E-14  0.91188000000E+02  0.91188000000E+02 0.  0.
    9900012    2    3    3    0    0 -0.33062279760E+01  0.34137510948E+02 -0.13397005285E+02  0.54367074594E+02  0.39999978152E+02 0.  0.
        -12    1    3    3    0    0  0.33062279760E+01 -0.34137510948E+02  0.13397005285E+02  0.36820925406E+02  0.00000000000E+00 0.  1.
         11    1    4    4    0    0 -0.11163436580E+02  0.20917903630E+02 -0.21100515611E+02  0.31739766349E+02  0.51100000000E-03 0. -1.
        -11    1    4    4    0    0 -0.33066264895E+01 -0.73406451186E+00  0.88659839124E+00  0.35012406968E+01  0.51100000000E-03 0.  1.
        -12    1    4    4    0    0  0.11163835093E+02  0.13953671830E+02  0.68169119354E+01  0.19126067548E+02  0.00000000000E+00 0.  1.
</event>
<event>
 8    1  0.1212194E-006  0.9118800E+02  0.7816164E-02  0.1184000E+00
        -11   -1    0    0    0    0  0.00000000000E+00  0.00000000000E+00  0.45593999997E+02  0.45594000000E+02  0.51100000000E-03 0.  1.
         11   -1    0    0    0    0 -0.00000000000E+00 -0.00000000000E+00 -0.45593999997E+02  0.45594000000E+02  0.51100000000E-03 0. -1.
         23    2    1    2    0    0 -0.35527136788E-14  0.35527136788E-14 -0.88817841970E-15  0.91188000000E+02  0.91188000000E+02 0.  0.
    9900012    2    3    3    0    0  0.20158458582E+02 -0.30441555366E+02 -0.47673307758E+01  0.54367093056E+02  0.40000020239E+02 0.  0.
         12    1    3    3    0    0 -0.20158458582E+02  0.30441555366E+02  0.47673307758E+01  0.36820906944E+02  0.00000000000E+00 0. -1.
         11    1    4    4    0    0 -0.54288616540E+01 -0.89606847846E+01  0.12394271810E+01  0.10550004297E+02  0.51100000000E-03 0. -1.
        -11    1    4    4    0    0  0.84765980167E+01 -0.18572258323E+02  0.75783185223E+01  0.21776418554E+02  0.51100000000E-03 0.  1.
         12    1    4    4    0    0  0.17110722219E+02 -0.29086122583E+01 -0.13585076479E+02  0.22040670205E+02  0.00000000000E+00 0. -1.
</event>
<event>
 8    1  0.1212194E-006  0.9118800E+02  0.7816164E-02  0.1184000E+00
        -11   -1    0    0    0    0  0.00000000000E+00  0.00000000000E+00  0.45593999997E+02  0.45594000000E+02  0.51100000000E-03 0.  1.
         11   -1    0    0    0    0 -0.00000000000E+00 -0.00000000000E+00 -0.45593999997E+02  0.45594000000E+02  0.51100000000E-03 0. -1.
         23    2    1    2    0    0 -0.35527136788E-14 -0.71054273576E-14  0.88817841970E-15  0.91188000000E+02  0.91188000000E+02 0.  0.
    9900012    2    3    3    0    0  0.19448104891E+02 -0.30315392236E+02  0.76503193993E+01  0.54367093205E+02  0.40000020580E+02 0.  0.
         12    1    3    3    0    0 -0.19448104891E+02  0.30315392236E+02 -0.76503193993E+01  0.36820906795E+02  0.00000000000E+00 0. -1.
         11    1    4    4    0    0  0.65357541223E+01 -0.59575025042E+01 -0.86497075887E+01  0.12370341938E+02  0.51100000000E-03 0. -1.
        -11    1    4    4    0    0  0.17642332415E+01 -0.30895204310E+01  0.17592843200E+02  0.17948977339E+02  0.51100000000E-03 0.  1.
         12    1    4    4    0    0  0.11148117527E+02 -0.21268369301E+02 -0.12928162115E+01  0.24047773928E+02  0.00000000000E+00 0. -1.
</event>
<event>
 8    1  0.1212194E-006  0.9118800E+02  0.7816164E-02  0.1184000E+00
        -11   -1    0    0    0    0  0.00000000000E+00  0.00000000000E+00  0.45593999997E+02  0.45594000000E+02  0.51100000000E-03 0.  1.
         11   -1    0    0    0    0 -0.00000000000E+00 -0.00000000000E+00 -0.45593999997E+02  0.45594000000E+02  0.51100000000E-03 0. -1.
         23    2    1    2    0    0 -0.17763568394E-14  0.00000000000E+00  0.00000000000E+00  0.91188000000E+02  0.91188000000E+02 0.  0.
    9900012    2    3    3    0    0  0.10692833326E+02 -0.26546748942E+02 -0.23167075896E+02  0.54367082446E+02  0.39999996053E+02 0.  0.
        -12    1    3    3    0    0 -0.10692833326E+02  0.26546748942E+02  0.23167075896E+02  0.36820917554E+02  0.00000000000E+00 0.  1.
         11    1    4    4    0    0  0.11864446178E+02 -0.10200969590E+02  0.17879348375E+01  0.15748700738E+02  0.51100000000E-03 0. -1.
        -11    1    4    4    0    0  0.48511156735E+01 -0.28388768432E+01  0.34493103048E+01  0.65947165859E+01  0.51100000000E-03 0.  1.
        -12    1    4    4    0    0 -0.60227285256E+01 -0.13506902509E+02 -0.28404321038E+02  0.32023665123E+02  0.00000000000E+00 0.  1.
</event>
<event>
 8    1  0.1212194E-006  0.9118800E+02  0.7816164E-02  0.1184000E+00
        -11   -1    0    0    0    0  0.00000000000E+00  0.00000000000E+00  0.45593999997E+02  0.45594000000E+02  0.51100000000E-03 0.  1.
         11   -1    0    0    0    0 -0.00000000000E+00 -0.00000000000E+00 -0.45593999997E+02  0.45594000000E+02  0.51100000000E-03 0. -1.
         23    2    1    2    0    0 -0.35527136788E-14  0.00000000000E+00 -0.35527136788E-14  0.91188000000E+02  0.91188000000E+02 0.  0.
    9900012    2    3    3    0    0 -0.30020766204E+02 -0.87788810446E+01 -0.19428445735E+02  0.54367086655E+02  0.40000005648E+02 0.  0.
        -12    1    3    3    0    0  0.30020766204E+02  0.87788810446E+01  0.19428445735E+02  0.36820913345E+02  0.00000000000E+00 0.  1.
         11    1    4    4    0    0 -0.52438089673E+01 -0.63768321639E+01 -0.17960984589E+02  0.19767612111E+02  0.51100000000E-03 0. -1.
        -11    1    4    4    0    0 -0.61943778609E+01 -0.11658738024E+02  0.25701470995E+01  0.13449986831E+02  0.51100000000E-03 0.  1.
         12    1    4    4    0    0 -0.18582579376E+02  0.92566891431E+01 -0.40376082457E+01  0.21149487712E+02  0.00000000000E+00 0. -1.
</event>
<event>
 8    1  0.1212194E-006  0.9118800E+02  0.7816164E-02  0.1184000E+00
        -11   -1    0    0    0    0  0.00000000000E+00  0.00000000000E+00  0.45593999997E+02  0.45594000000E+02  0.51100000000E-03 0. -1.
         11   -1    0    0    0    0 -0.00000000000E+00 -0.00000000000E+00 -0.45593999997E+02  0.45594000000E+02  0.51100000000E-03 0.  1.
         23    2    1    2    0    0  0.00000000000E+00  0.18873791419E-14  0.00000000000E+00  0.91188000000E+02  0.91188000000E+02 0.  0.
    9900012    2    3    3    0    0 -0.33046859584E+02 -0.32974110776E+00 -0.16235040430E+02  0.54367079379E+02  0.39999989061E+02 0.  0.
         12    1    3    3    0    0  0.33046859584E+02  0.32974110776E+00  0.16235040430E+02  0.36820920621E+02  0.00000000000E+00 0. -1.
         11    1    4    4    0    0  0.18676709443E+01 -0.67486709710E+01 -0.35995149284E+01  0.78733260196E+01  0.51100000000E-03 0. -1.
        -11    1    4    4    0    0 -0.81275232670E+01 -0.94503824054E+01 -0.84965057268E+01  0.15084991611E+02  0.51100000000E-03 0.  1.
        -12    1    4    4    0    0 -0.26787007262E+02  0.15869312269E+02 -0.41390197750E+01  0.31408761749E+02  0.00000000000E+00 0.  1.
</event>
<event>
 8    1  0.1212194E-006  0.9118800E+02  0.7816164E-02  0.1184000E+00
        -11   -1    0    0    0    0  0.00000000000E+00  0.00000000000E+00  0.45593999997E+02  0.45594000000E+02  0.51100000000E-03 0.  1.
         11   -1    0    0    0    0 -0.00000000000E+00 -0.00000000000E+00 -0.45593999997E+02  0.45594000000E+02  0.51100000000E-03 0. -1.
         23    2    1    2    0    0  0.00000000000E+00  0.00000000000E+00  0.00000000000E+00  0.91188000000E+02  0.91188000000E+02 0.  0.
    9900012    2    3    3    0    0  0.18159372966E+02  0.10979031244E+02 -0.30091143227E+02  0.54367097590E+02  0.40000030576E+02 0.  0.
        -12    1    3    3    0    0 -0.18159372966E+02 -0.10979031244E+02  0.30091143227E+02  0.36820902410E+02  0.00000000000E+00 0.  1.
         11    1    4    4    0    0  0.88719261217E+01 -0.76439536016E+01  0.17873091562E+01  0.11846331671E+02  0.51100000000E-03 0. -1.
        -11    1    4    4    0    0  0.46459108732E+01  0.82173889485E+01 -0.86356714498E+00  0.94792255721E+01  0.51100000000E-03 0.  1.
         12    1    4    4    0    0  0.46415359706E+01  0.10405595897E+02 -0.31014885239E+02  0.33041540347E+02  0.00000000000E+00 0. -1.
</event>
<event>
 8    1  0.1212194E-006  0.9118800E+02  0.7816164E-02  0.1184000E+00
        -11   -1    0    0    0    0  0.00000000000E+00  0.00000000000E+00  0.45593999997E+02  0.45594000000E+02  0.51100000000E-03 0.  1.
         11   -1    0    0    0    0 -0.00000000000E+00 -0.00000000000E+00 -0.45593999997E+02  0.45594000000E+02  0.51100000000E-03 0. -1.
         23    2    1    2    0    0 -0.35527136788E-14 -0.71054273576E-14  0.00000000000E+00  0.91188000000E+02  0.91188000000E+02 0.  0.
    9900012    2    3    3    0    0 -0.21434281667E+02 -0.28300561562E+02  0.97688838905E+01  0.54367064273E+02  0.39999954624E+02 0.  0.
        -12    1    3    3    0    0  0.21434281667E+02  0.28300561562E+02 -0.97688838905E+01  0.36820935727E+02  0.00000000000E+00 0.  1.
         11    1    4    4    0    0 -0.15670451629E+02 -0.14249689977E+02  0.26342404238E+01  0.21343756501E+02  0.51100000000E-03 0. -1.
        -11    1    4    4    0    0 -0.13156166647E+02 -0.46647301416E+01  0.13557272349E+02  0.19458778532E+02  0.51100000000E-03 0.  1.
        -12    1    4    4    0    0  0.73923366092E+01 -0.93861414439E+01 -0.64226288827E+01  0.13564529240E+02  0.00000000000E+00 0.  1.
</event>
<event>
 8    1  0.1212194E-006  0.9118800E+02  0.7816164E-02  0.1184000E+00
        -11   -1    0    0    0    0  0.00000000000E+00  0.00000000000E+00  0.45593999997E+02  0.45594000000E+02  0.51100000000E-03 0.  1.
         11   -1    0    0    0    0 -0.00000000000E+00 -0.00000000000E+00 -0.45593999997E+02  0.45594000000E+02  0.51100000000E-03 0. -1.
         23    2    1    2    0    0 -0.44061976290E-15  0.35527136788E-14 -0.35527136788E-14  0.91188000000E+02  0.91188000000E+02 0.  0.
    9900012    2    3    3    0    0  0.28650516339E-01  0.30651806671E+02 -0.20401664851E+02  0.54367326436E+02  0.40000552272E+02 0.  0.
        -12    1    3    3    0    0 -0.28650516339E-01 -0.30651806671E+02  0.20401664851E+02  0.36820673564E+02  0.00000000000E+00 0.  1.
         11    1    4    4    0    0 -0.53498130768E+01  0.19697726651E+02 -0.21595255930E+02  0.29714912319E+02  0.51100000000E-03 0. -1.
        -11    1    4    4    0    0 -0.70345968944E+01 -0.34016138908E+00  0.32279347936E+01  0.77473109225E+01  0.51100000000E-03 0.  1.
         12    1    4    4    0    0  0.12413060488E+02  0.11294241409E+02 -0.20343437140E+01  0.16905103195E+02  0.00000000000E+00 0. -1.
</event>
<event>
 8    1  0.1212194E-006  0.9118800E+02  0.7816164E-02  0.1184000E+00
        -11   -1    0    0    0    0  0.00000000000E+00  0.00000000000E+00  0.45593999997E+02  0.45594000000E+02  0.51100000000E-03 0.  1.
         11   -1    0    0    0    0 -0.00000000000E+00 -0.00000000000E+00 -0.45593999997E+02  0.45594000000E+02  0.51100000000E-03 0. -1.
         23    2    1    2    0    0  0.17763568394E-14  0.35527136788E-14  0.00000000000E+00  0.91188000000E+02  0.91188000000E+02 0.  0.
    9900012    2    3    3    0    0 -0.10344694950E+02  0.26082076672E+02 -0.23843091381E+02  0.54367076006E+02  0.39999981372E+02 0.  0.
        -12    1    3    3    0    0  0.10344694950E+02 -0.26082076672E+02  0.23843091381E+02  0.36820923994E+02  0.00000000000E+00 0.  1.
         11    1    4    4    0    0 -0.15263791761E+01  0.12992363323E+02  0.81017744915E+01  0.15387335321E+02  0.51100000000E-03 0. -1.
        -11    1    4    4    0    0 -0.80206890274E+01 -0.74813501104E+00 -0.82637285913E+01  0.11540379931E+02  0.51100000000E-03 0.  1.
         12    1    4    4    0    0 -0.79762674656E+00  0.13837848360E+02 -0.23681137282E+02  0.27439360754E+02  0.00000000000E+00 0. -1.
</event>
<event>
 8    1  0.1212194E-006  0.9118800E+02  0.7816164E-02  0.1184000E+00
        -11   -1    0    0    0    0  0.00000000000E+00  0.00000000000E+00  0.45593999997E+02  0.45594000000E+02  0.51100000000E-03 0.  1.
         11   -1    0    0    0    0 -0.00000000000E+00 -0.00000000000E+00 -0.45593999997E+02  0.45594000000E+02  0.51100000000E-03 0. -1.
         23    2    1    2    0    0 -0.58286708793E-15  0.35527136788E-14  0.00000000000E+00  0.91188000000E+02  0.91188000000E+02 0.  0.
    9900012    2    3    3    0    0 -0.24107492811E+00  0.27435059608E+02  0.24556858433E+02  0.54367083269E+02  0.39999997928E+02 0.  0.
         12    1    3    3    0    0  0.24107492811E+00 -0.27435059608E+02 -0.24556858433E+02  0.36820916731E+02  0.00000000000E+00 0. -1.
         11    1    4    4    0    0 -0.28921117588E+01  0.14852611447E+01 -0.55238128090E+01  0.64095880759E+01  0.51100000000E-03 0. -1.
        -11    1    4    4    0    0 -0.89017718998E+01  0.22607464313E+02  0.25120408554E+02  0.34948160350E+02  0.51100000000E-03 0.  1.
         12    1    4    4    0    0  0.11552808731E+02  0.33423341500E+01  0.49602626881E+01  0.13009334843E+02  0.00000000000E+00 0. -1.
</event>
<event>
 8    1  0.1212194E-006  0.9118800E+02  0.7816164E-02  0.1184000E+00
        -11   -1    0    0    0    0  0.00000000000E+00  0.00000000000E+00  0.45593999997E+02  0.45594000000E+02  0.51100000000E-03 0.  1.
         11   -1    0    0    0    0 -0.00000000000E+00 -0.00000000000E+00 -0.45593999997E+02  0.45594000000E+02  0.51100000000E-03 0. -1.
         23    2    1    2    0    0  0.71054273576E-14 -0.72164496601E-15  0.00000000000E+00  0.91188000000E+02  0.91188000000E+02 0.  0.
    9900012    2    3    3    0    0  0.35198017402E+02  0.27982706696E+00 -0.10807497268E+02  0.54367072127E+02  0.39999972527E+02 0.  0.
        -12    1    3    3    0    0 -0.35198017402E+02 -0.27982706696E+00  0.10807497268E+02  0.36820927873E+02  0.00000000000E+00 0.  1.
         11    1    4    4    0    0  0.26038246351E+02 -0.11427997249E+02 -0.15186835458E+02  0.32237080601E+02  0.51100000000E-03 0. -1.
        -11    1    4    4    0    0  0.11065903605E+02  0.59164631578E+01 -0.26498663097E+01  0.12824997100E+02  0.51100000000E-03 0.  1.
        -12    1    4    4    0    0 -0.19061325537E+01  0.57913611582E+01  0.70292044991E+01  0.93049944260E+01  0.00000000000E+00 0.  1.
</event>
<event>
 8    1  0.1212194E-006  0.9118800E+02  0.7816164E-02  0.1184000E+00
        -11   -1    0    0    0    0  0.00000000000E+00  0.00000000000E+00  0.45593999997E+02  0.45594000000E+02  0.51100000000E-03 0. -1.
         11   -1    0    0    0    0 -0.00000000000E+00 -0.00000000000E+00 -0.45593999997E+02  0.45594000000E+02  0.51100000000E-03 0.  1.
         23    2    1    2    0    0  0.17763568394E-14  0.00000000000E+00 -0.71054273576E-14  0.91188000000E+02  0.91188000000E+02 0.  0.
    9900012    2    3    3    0    0  0.11493046284E+02  0.31054556621E+01 -0.34843213349E+02  0.54367034718E+02  0.39999887247E+02 0.  0.
         12    1    3    3    0    0 -0.11493046284E+02 -0.31054556621E+01  0.34843213349E+02  0.36820965282E+02  0.00000000000E+00 0. -1.
         11    1    4    4    0    0 -0.61198510625E+01 -0.35966578311E+01  0.33867560455E+01  0.78650264688E+01  0.51100000000E-03 0. -1.
        -11    1    4    4    0    0  0.13818365256E+02  0.12698130150E+02 -0.22884955495E+02  0.29595792200E+02  0.51100000000E-03 0.  1.
         12    1    4    4    0    0  0.37945320911E+01 -0.59960166569E+01 -0.15345013900E+02  0.16906216050E+02  0.00000000000E+00 0. -1.
</event>
<event>
 8    1  0.1212194E-006  0.9118800E+02  0.7816164E-02  0.1184000E+00
        -11   -1    0    0    0    0  0.00000000000E+00  0.00000000000E+00  0.45593999997E+02  0.45594000000E+02  0.51100000000E-03 0. -1.
         11   -1    0    0    0    0 -0.00000000000E+00 -0.00000000000E+00 -0.45593999997E+02  0.45594000000E+02  0.51100000000E-03 0.  1.
         23    2    1    2    0    0  0.35527136788E-14  0.00000000000E+00 -0.88817841970E-15  0.91188000000E+02  0.91188000000E+02 0.  0.
    9900012    2    3    3    0    0 -0.29282145543E+02  0.21054717311E+02  0.74185645651E+01  0.54367078381E+02  0.39999986786E+02 0.  0.
        -12    1    3    3    0    0  0.29282145543E+02 -0.21054717311E+02 -0.74185645651E+01  0.36820921619E+02  0.00000000000E+00 0.  1.
         11    1    4    4    0    0  0.38932370517E+01 -0.23398532991E+01  0.45116278631E+01  0.64021085931E+01  0.51100000000E-03 0. -1.
        -11    1    4    4    0    0 -0.33097165801E+01  0.50696322578E+01  0.10492409195E+02  0.12113878242E+02  0.51100000000E-03 0.  1.
         12    1    4    4    0    0 -0.29865666015E+02  0.18324938352E+02 -0.75854724934E+01  0.35851091546E+02  0.00000000000E+00 0. -1.
</event>
<event>
 8    1  0.1212194E-006  0.9118800E+02  0.7816164E-02  0.1184000E+00
        -11   -1    0    0    0    0  0.00000000000E+00  0.00000000000E+00  0.45593999997E+02  0.45594000000E+02  0.51100000000E-03 0.  1.
         11   -1    0    0    0    0 -0.00000000000E+00 -0.00000000000E+00 -0.45593999997E+02  0.45594000000E+02  0.51100000000E-03 0. -1.
         23    2    1    2    0    0 -0.66613381478E-15  0.00000000000E+00  0.71054273576E-14  0.91188000000E+02  0.91188000000E+02 0.  0.
    9900012    2    3    3    0    0 -0.11942187791E+01  0.42873200410E+01 -0.36550960841E+02  0.54367081896E+02  0.39999994799E+02 0.  0.
        -12    1    3    3    0    0  0.11942187791E+01 -0.42873200410E+01  0.36550960841E+02  0.36820918104E+02  0.00000000000E+00 0.  1.
         11    1    4    4    0    0  0.62632280288E+01  0.26641559145E+01 -0.17158702199E+02  0.18459328630E+02  0.51100000000E-03 0. -1.
        -11    1    4    4    0    0  0.81906835251E+01  0.16709909375E+01 -0.18421505473E+02  0.20229467899E+02  0.51100000000E-03 0.  1.
        -12    1    4    4    0    0 -0.15648130333E+02 -0.47826810998E-01 -0.97075316827E+00  0.15678285367E+02  0.00000000000E+00 0.  1.
</event>
<event>
 8    1  0.1212194E-006  0.9118800E+02  0.7816164E-02  0.1184000E+00
        -11   -1    0    0    0    0  0.00000000000E+00  0.00000000000E+00  0.45593999997E+02  0.45594000000E+02  0.51100000000E-03 0. -1.
         11   -1    0    0    0    0 -0.00000000000E+00 -0.00000000000E+00 -0.45593999997E+02  0.45594000000E+02  0.51100000000E-03 0.  1.
         23    2    1    2    0    0  0.88817841970E-15  0.00000000000E+00  0.00000000000E+00  0.91188000000E+02  0.91188000000E+02 0.  0.
    9900012    2    3    3    0    0  0.65709210106E+01  0.32228722187E+02  0.16550298885E+02  0.54367082984E+02  0.39999997279E+02 0.  0.
        -12    1    3    3    0    0 -0.65709210106E+01 -0.32228722187E+02 -0.16550298885E+02  0.36820917016E+02  0.00000000000E+00 0.  1.
         11    1    4    4    0    0  0.16424461454E+02  0.12349475651E+02  0.32715492707E+01  0.20808063769E+02  0.51100000000E-03 0. -1.
        -11    1    4    4    0    0  0.16745807857E+01  0.15773016015E+02  0.50562505379E+00  0.15869716821E+02  0.51100000000E-03 0.  1.
        -12    1    4    4    0    0 -0.11528121229E+02  0.41062305208E+01  0.12773124560E+02  0.17689302394E+02  0.00000000000E+00 0.  1.
</event>
<event>
 8    1  0.1212194E-006  0.9118800E+02  0.7816164E-02  0.1184000E+00
        -11   -1    0    0    0    0  0.00000000000E+00  0.00000000000E+00  0.45593999997E+02  0.45594000000E+02  0.51100000000E-03 0. -1.
         11   -1    0    0    0    0 -0.00000000000E+00 -0.00000000000E+00 -0.45593999997E+02  0.45594000000E+02  0.51100000000E-03 0.  1.
         23    2    1    2    0    0  0.00000000000E+00 -0.17763568394E-14  0.35527136788E-14  0.91188000000E+02  0.91188000000E+02 0.  0.
    9900012    2    3    3    0    0  0.17209278336E+02  0.15471076128E+02 -0.28640349066E+02  0.54367040588E+02  0.39999900628E+02 0.  0.
         12    1    3    3    0    0 -0.17209278336E+02 -0.15471076128E+02  0.28640349066E+02  0.36820959412E+02  0.00000000000E+00 0. -1.
         11    1    4    4    0    0  0.10554777174E+02  0.18967272764E+02  0.42551578464E+00  0.21710408131E+02  0.51100000000E-03 0. -1.
        -11    1    4    4    0    0  0.98853791218E+01  0.31528011031E+00 -0.19405447646E+02  0.21780530768E+02  0.51100000000E-03 0.  1.
         12    1    4    4    0    0 -0.32308779597E+01 -0.38114767462E+01 -0.96604172040E+01  0.10876101688E+02  0.00000000000E+00 0. -1.
</event>
<event>
 8    1  0.1212194E-006  0.9118800E+02  0.7816164E-02  0.1184000E+00
        -11   -1    0    0    0    0  0.00000000000E+00  0.00000000000E+00  0.45593999997E+02  0.45594000000E+02  0.51100000000E-03 0. -1.
         11   -1    0    0    0    0 -0.00000000000E+00 -0.00000000000E+00 -0.45593999997E+02  0.45594000000E+02  0.51100000000E-03 0.  1.
         23    2    1    2    0    0  0.00000000000E+00  0.00000000000E+00  0.00000000000E+00  0.91188000000E+02  0.91188000000E+02 0.  0.
    9900012    2    3    3    0    0  0.16359795280E+02  0.29512297374E+02 -0.14736225586E+02  0.54367150710E+02  0.40000151674E+02 0.  0.
         12    1    3    3    0    0 -0.16359795280E+02 -0.29512297374E+02  0.14736225586E+02  0.36820849290E+02  0.00000000000E+00 0. -1.
         11    1    4    4    0    0  0.15112891505E+02 -0.16568759434E+01 -0.61407968079E+01  0.16396771427E+02  0.51100000000E-03 0. -1.
        -11    1    4    4    0    0 -0.44938574841E+01 -0.57918226204E+00 -0.23649441038E+01  0.51110828652E+01  0.51100000000E-03 0.  1.
         12    1    4    4    0    0  0.57407612591E+01  0.31748355580E+02 -0.62304846744E+01  0.32859296418E+02  0.00000000000E+00 0. -1.
</event>
<event>
 8    1  0.1212194E-006  0.9118800E+02  0.7816164E-02  0.1184000E+00
        -11   -1    0    0    0    0  0.00000000000E+00  0.00000000000E+00  0.45593999997E+02  0.45594000000E+02  0.51100000000E-03 0.  1.
         11   -1    0    0    0    0 -0.00000000000E+00 -0.00000000000E+00 -0.45593999997E+02  0.45594000000E+02  0.51100000000E-03 0. -1.
         23    2    1    2    0    0 -0.35527136788E-14  0.35527136788E-14  0.17763568394E-14  0.91188000000E+02  0.91188000000E+02 0.  0.
    9900012    2    3    3    0    0 -0.26392017193E+02 -0.22209989808E+02  0.12882432202E+02  0.54367091833E+02  0.40000017452E+02 0.  0.
         12    1    3    3    0    0  0.26392017193E+02  0.22209989808E+02 -0.12882432202E+02  0.36820908167E+02  0.00000000000E+00 0. -1.
         11    1    4    4    0    0  0.37846140914E+01  0.41814383152E+01  0.26083954222E+01  0.62138118047E+01  0.51100000000E-03 0. -1.
        -11    1    4    4    0    0 -0.29236006104E+02 -0.26444772384E+02  0.16271949602E+01  0.39455263312E+02  0.51100000000E-03 0.  1.
         12    1    4    4    0    0 -0.94062518039E+00  0.53344260962E-01  0.86468418196E+01  0.86980167161E+01  0.00000000000E+00 0. -1.
</event>
<event>
 8    1  0.1212194E-006  0.9118800E+02  0.7816164E-02  0.1184000E+00
        -11   -1    0    0    0    0  0.00000000000E+00  0.00000000000E+00  0.45593999997E+02  0.45594000000E+02  0.51100000000E-03 0.  1.
         11   -1    0    0    0    0 -0.00000000000E+00 -0.00000000000E+00 -0.45593999997E+02  0.45594000000E+02  0.51100000000E-03 0. -1.
         23    2    1    2    0    0 -0.13322676296E-14  0.00000000000E+00  0.00000000000E+00  0.91188000000E+02  0.91188000000E+02 0.  0.
    9900012    2    3    3    0    0 -0.34878955646E+01 -0.11396971311E+02  0.34838532121E+02  0.54367086230E+02  0.40000004678E+02 0.  0.
         12    1    3    3    0    0  0.34878955646E+01  0.11396971311E+02 -0.34838532121E+02  0.36820913770E+02  0.00000000000E+00 0. -1.
         11    1    4    4    0    0  0.10732320888E+02 -0.17886407214E+02  0.19660016072E+02  0.28663958325E+02  0.51100000000E-03 0.  1.
        -11    1    4    4    0    0 -0.28899035418E+01 -0.18104641886E+01 -0.16460718735E+01  0.37866708245E+01  0.51100000000E-03 0. -1.
        -12    1    4    4    0    0 -0.11330312911E+02  0.82999000917E+01  0.16824587923E+02  0.21916457080E+02  0.00000000000E+00 0.  1.
</event>
<event>
 8    1  0.1212194E-006  0.9118800E+02  0.7816164E-02  0.1184000E+00
        -11   -1    0    0    0    0  0.00000000000E+00  0.00000000000E+00  0.45593999997E+02  0.45594000000E+02  0.51100000000E-03 0. -1.
         11   -1    0    0    0    0 -0.00000000000E+00 -0.00000000000E+00 -0.45593999997E+02  0.45594000000E+02  0.51100000000E-03 0.  1.
         23    2    1    2    0    0  0.00000000000E+00 -0.71054273576E-14  0.00000000000E+00  0.91188000000E+02  0.91188000000E+02 0.  0.
    9900012    2    3    3    0    0  0.59082780659E+01 -0.35266862209E+02 -0.87818104144E+01  0.54367088633E+02  0.40000010156E+02 0.  0.
         12    1    3    3    0    0 -0.59082780659E+01  0.35266862209E+02  0.87818104144E+01  0.36820911367E+02  0.00000000000E+00 0. -1.
         11    1    4    4    0    0 -0.55591586392E+01 -0.34123843758E+01 -0.15397750730E+01  0.67022025813E+01  0.51100000000E-03 0. -1.
        -11    1    4    4    0    0  0.14458734403E+02 -0.33718935851E+01  0.61240729913E+01  0.16060166162E+02  0.51100000000E-03 0.  1.
        -12    1    4    4    0    0 -0.29912976978E+01 -0.28482584248E+02 -0.13366108333E+02  0.31604719890E+02  0.00000000000E+00 0.  1.
</event>
<event>
 8    1  0.1212194E-006  0.9118800E+02  0.7816164E-02  0.1184000E+00
        -11   -1    0    0    0    0  0.00000000000E+00  0.00000000000E+00  0.45593999997E+02  0.45594000000E+02  0.51100000000E-03 0.  1.
         11   -1    0    0    0    0 -0.00000000000E+00 -0.00000000000E+00 -0.45593999997E+02  0.45594000000E+02  0.51100000000E-03 0. -1.
         23    2    1    2    0    0  0.00000000000E+00  0.00000000000E+00  0.00000000000E+00  0.91188000000E+02  0.91188000000E+02 0.  0.
    9900012    2    3    3    0    0 -0.29578854564E+02  0.19178723584E+02  0.10632382564E+02  0.54367086994E+02  0.40000006420E+02 0.  0.
         12    1    3    3    0    0  0.29578854564E+02 -0.19178723584E+02 -0.10632382564E+02  0.36820913006E+02  0.00000000000E+00 0. -1.
         11    1    4    4    0    0 -0.12476431905E+02  0.67130826916E+01 -0.79860017360E+01  0.16263549929E+02  0.51100000000E-03 0.  1.
        -11    1    4    4    0    0 -0.12646286256E+02  0.17937365741E+02  0.46215797220E+01  0.22428478441E+02  0.51100000000E-03 0. -1.
        -12    1    4    4    0    0 -0.44561364032E+01 -0.54717248490E+01  0.13996804578E+02  0.15675058624E+02  0.00000000000E+00 0.  1.
</event>
<event>
 8    1  0.1212194E-006  0.9118800E+02  0.7816164E-02  0.1184000E+00
        -11   -1    0    0    0    0  0.00000000000E+00  0.00000000000E+00  0.45593999997E+02  0.45594000000E+02  0.51100000000E-03 0. -1.
         11   -1    0    0    0    0 -0.00000000000E+00 -0.00000000000E+00 -0.45593999997E+02  0.45594000000E+02  0.51100000000E-03 0.  1.
         23    2    1    2    0    0  0.00000000000E+00 -0.35527136788E-14  0.00000000000E+00  0.91188000000E+02  0.91188000000E+02 0.  0.
    9900012    2    3    3    0    0 -0.22928434047E+02 -0.23763176575E+02  0.16290438896E+02  0.54367081377E+02  0.39999993616E+02 0.  0.
        -12    1    3    3    0    0  0.22928434047E+02  0.23763176575E+02 -0.16290438896E+02  0.36820918623E+02  0.00000000000E+00 0.  1.
         11    1    4    4    0    0 -0.17503405455E+01  0.23819982547E+01 -0.24168578114E+01  0.38182207442E+01  0.51100000000E-03 0. -1.
        -11    1    4    4    0    0 -0.11434712245E+02  0.63191674362E+01  0.52781066646E+01  0.14090526301E+02  0.51100000000E-03 0.  1.
         12    1    4    4    0    0 -0.97433812566E+01 -0.32464342265E+02  0.13429190043E+02  0.36458334332E+02  0.00000000000E+00 0. -1.
</event>
<event>
 8    1  0.1212194E-006  0.9118800E+02  0.7816164E-02  0.1184000E+00
        -11   -1    0    0    0    0  0.00000000000E+00  0.00000000000E+00  0.45593999997E+02  0.45594000000E+02  0.51100000000E-03 0.  1.
         11   -1    0    0    0    0 -0.00000000000E+00 -0.00000000000E+00 -0.45593999997E+02  0.45594000000E+02  0.51100000000E-03 0. -1.
         23    2    1    2    0    0  0.00000000000E+00  0.22204460493E-15  0.00000000000E+00  0.91188000000E+02  0.91188000000E+02 0.  0.
    9900012    2    3    3    0    0 -0.20748631615E+02  0.38024501238E+00  0.30415936338E+02  0.54367089046E+02  0.40000011099E+02 0.  0.
         12    1    3    3    0    0  0.20748631615E+02 -0.38024501238E+00 -0.30415936338E+02  0.36820910954E+02  0.00000000000E+00 0. -1.
         11    1    4    4    0    0 -0.18009669820E+02  0.44642668142E+01  0.51666873977E+00  0.18561918868E+02  0.51100000000E-03 0. -1.
        -11    1    4    4    0    0 -0.48089487137E+01  0.32121097099E+01  0.27117068736E+02  0.27726865196E+02  0.51100000000E-03 0.  1.
        -12    1    4    4    0    0  0.20699869189E+01 -0.72961315117E+01  0.27821988624E+01  0.80783049825E+01  0.00000000000E+00 0.  1.
</event>
<event>
 8    1  0.1212194E-006  0.9118800E+02  0.7816164E-02  0.1184000E+00
        -11   -1    0    0    0    0  0.00000000000E+00  0.00000000000E+00  0.45593999997E+02  0.45594000000E+02  0.51100000000E-03 0.  1.
         11   -1    0    0    0    0 -0.00000000000E+00 -0.00000000000E+00 -0.45593999997E+02  0.45594000000E+02  0.51100000000E-03 0. -1.
         23    2    1    2    0    0  0.00000000000E+00  0.00000000000E+00 -0.35527136788E-14  0.91188000000E+02  0.91188000000E+02 0.  0.
    9900012    2    3    3    0    0 -0.22141695444E+02 -0.20155679610E+02 -0.21430671870E+02  0.54367084823E+02  0.40000001471E+02 0.  0.
        -12    1    3    3    0    0  0.22141695444E+02  0.20155679610E+02  0.21430671870E+02  0.36820915177E+02  0.00000000000E+00 0.  1.
         11    1    4    4    0    0 -0.14513250801E+02 -0.14506096635E+02  0.43758073012E+01  0.20981157694E+02  0.51100000000E-03 0. -1.
        -11    1    4    4    0    0 -0.79020023746E+01  0.57322200412E+01 -0.10973526693E+02  0.14687350900E+02  0.51100000000E-03 0.  1.
         12    1    4    4    0    0  0.27355773137E+00 -0.11381803017E+02 -0.14832952478E+02  0.18698576228E+02  0.00000000000E+00 0. -1.
</event>
<event>
 8    1  0.1212194E-006  0.9118800E+02  0.7816164E-02  0.1184000E+00
        -11   -1    0    0    0    0  0.00000000000E+00  0.00000000000E+00  0.45593999997E+02  0.45594000000E+02  0.51100000000E-03 0. -1.
         11   -1    0    0    0    0 -0.00000000000E+00 -0.00000000000E+00 -0.45593999997E+02  0.45594000000E+02  0.51100000000E-03 0.  1.
         23    2    1    2    0    0  0.35527136788E-14  0.44408920985E-15  0.00000000000E+00  0.91188000000E+02  0.91188000000E+02 0.  0.
    9900012    2    3    3    0    0  0.24466131624E+02 -0.20437897218E+01  0.27441052955E+02  0.54367081213E+02  0.39999993242E+02 0.  0.
        -12    1    3    3    0    0 -0.24466131624E+02  0.20437897218E+01 -0.27441052955E+02  0.36820918787E+02  0.00000000000E+00 0.  1.
         11    1    4    4    0    0  0.18726666285E+02 -0.20030461064E+02  0.17691709094E+02  0.32632866431E+02  0.51100000000E-03 0. -1.
        -11    1    4    4    0    0  0.60964127005E+01  0.13394422697E+02  0.64477461310E+01  0.16067054417E+02  0.51100000000E-03 0.  1.
         12    1    4    4    0    0 -0.35694736216E+00  0.45922486447E+01  0.33015977292E+01  0.56671603648E+01  0.00000000000E+00 0. -1.
</event>
<event>
 8    1  0.1212194E-006  0.9118800E+02  0.7816164E-02  0.1184000E+00
        -11   -1    0    0    0    0  0.00000000000E+00  0.00000000000E+00  0.45593999997E+02  0.45594000000E+02  0.51100000000E-03 0.  1.
         11   -1    0    0    0    0 -0.00000000000E+00 -0.00000000000E+00 -0.45593999997E+02  0.45594000000E+02  0.51100000000E-03 0. -1.
         23    2    1    2    0    0  0.00000000000E+00  0.00000000000E+00 -0.35527136788E-14  0.91188000000E+02  0.91188000000E+02 0.  0.
    9900012    2    3    3    0    0 -0.44869633001E+01 -0.32587967215E+02 -0.16543002697E+02  0.54367090382E+02  0.40000014144E+02 0.  0.
        -12    1    3    3    0    0  0.44869633001E+01  0.32587967215E+02  0.16543002697E+02  0.36820909618E+02  0.00000000000E+00 0.  1.
         11    1    4    4    0    0  0.72672172982E+01 -0.20157395066E+02 -0.63666051241E+01  0.22353225364E+02  0.51100000000E-03 0. -1.
        -11    1    4    4    0    0  0.96465207507E+00  0.17691302158E+01  0.64260624001E+01  0.67345863701E+01  0.51100000000E-03 0.  1.
        -12    1    4    4    0    0 -0.12718832673E+02 -0.14199702364E+02 -0.16602459973E+02  0.25279278648E+02  0.00000000000E+00 0.  1.
</event>
<event>
 8    1  0.1212194E-006  0.9118800E+02  0.7816164E-02  0.1184000E+00
        -11   -1    0    0    0    0  0.00000000000E+00  0.00000000000E+00  0.45593999997E+02  0.45594000000E+02  0.51100000000E-03 0.  1.
         11   -1    0    0    0    0 -0.00000000000E+00 -0.00000000000E+00 -0.45593999997E+02  0.45594000000E+02  0.51100000000E-03 0. -1.
         23    2    1    2    0    0  0.88817841970E-15 -0.35527136788E-14  0.71054273576E-14  0.91188000000E+02  0.91188000000E+02 0.  0.
    9900012    2    3    3    0    0  0.73313763289E+01 -0.12799824336E+02  0.33737130048E+02  0.54367102051E+02  0.40000040745E+02 0.  0.
         12    1    3    3    0    0 -0.73313763289E+01  0.12799824336E+02 -0.33737130048E+02  0.36820897949E+02  0.00000000000E+00 0. -1.
         11    1    4    4    0    0 -0.13020135860E+02  0.60241127918E+00  0.49403246371E+01  0.13938925530E+02  0.51100000000E-03 0.  1.
        -11    1    4    4    0    0 -0.16392202443E+01 -0.24414283756E+01  0.69611466718E+01  0.75567968591E+01  0.51100000000E-03 0. -1.
         12    1    4    4    0    0  0.21990732433E+02 -0.10960807240E+02  0.21835658739E+02  0.32871379661E+02  0.00000000000E+00 0. -1.
</event>
<event>
 8    1  0.1212194E-006  0.9118800E+02  0.7816164E-02  0.1184000E+00
        -11   -1    0    0    0    0  0.00000000000E+00  0.00000000000E+00  0.45593999997E+02  0.45594000000E+02  0.51100000000E-03 0. -1.
         11   -1    0    0    0    0 -0.00000000000E+00 -0.00000000000E+00 -0.45593999997E+02  0.45594000000E+02  0.51100000000E-03 0.  1.
         23    2    1    2    0    0  0.00000000000E+00 -0.35527136788E-14  0.17763568394E-14  0.91188000000E+02  0.91188000000E+02 0.  0.
    9900012    2    3    3    0    0 -0.22354739237E+02 -0.26258234331E+02 -0.12905467719E+02  0.54367077502E+02  0.39999984782E+02 0.  0.
         12    1    3    3    0    0  0.22354739237E+02  0.26258234331E+02  0.12905467719E+02  0.36820922498E+02  0.00000000000E+00 0. -1.
         11    1    4    4    0    0 -0.80407355314E+01 -0.19597044073E+02  0.10129842289E+02  0.23480018512E+02  0.51100000000E-03 0. -1.
        -11    1    4    4    0    0 -0.15989416434E+01 -0.64863128439E+01 -0.13259836171E+02  0.14847630257E+02  0.51100000000E-03 0.  1.
         12    1    4    4    0    0 -0.12715062062E+02 -0.17487741440E+00 -0.97754738366E+01  0.16039428733E+02  0.00000000000E+00 0. -1.
</event>
<event>
 8    1  0.1212194E-006  0.9118800E+02  0.7816164E-02  0.1184000E+00
        -11   -1    0    0    0    0  0.00000000000E+00  0.00000000000E+00  0.45593999997E+02  0.45594000000E+02  0.51100000000E-03 0. -1.
         11   -1    0    0    0    0 -0.00000000000E+00 -0.00000000000E+00 -0.45593999997E+02  0.45594000000E+02  0.51100000000E-03 0.  1.
         23    2    1    2    0    0  0.53290705182E-14 -0.35527136788E-14 -0.35527136788E-14  0.91188000000E+02  0.91188000000E+02 0.  0.
    9900012    2    3    3    0    0  0.53282209320E+01 -0.28733837481E+02 -0.22399909219E+02  0.54367091705E+02  0.40000017159E+02 0.  0.
         12    1    3    3    0    0 -0.53282209320E+01  0.28733837481E+02  0.22399909219E+02  0.36820908295E+02  0.00000000000E+00 0. -1.
         11    1    4    4    0    0  0.13034966759E+02 -0.24174609434E+02 -0.56052244253E+01  0.28031065638E+02  0.51100000000E-03 0. -1.
        -11    1    4    4    0    0 -0.12278263690E+02  0.16873303990E+01 -0.87443757207E+01  0.15167958008E+02  0.51100000000E-03 0.  1.
        -12    1    4    4    0    0  0.45715178630E+01 -0.62465584454E+01 -0.80503090734E+01  0.11168068059E+02  0.00000000000E+00 0.  1.
</event>
<event>
 8    1  0.1212194E-006  0.9118800E+02  0.7816164E-02  0.1184000E+00
        -11   -1    0    0    0    0  0.00000000000E+00  0.00000000000E+00  0.45593999997E+02  0.45594000000E+02  0.51100000000E-03 0.  1.
         11   -1    0    0    0    0 -0.00000000000E+00 -0.00000000000E+00 -0.45593999997E+02  0.45594000000E+02  0.51100000000E-03 0. -1.
         23    2    1    2    0    0  0.35527136788E-14  0.00000000000E+00  0.00000000000E+00  0.91188000000E+02  0.91188000000E+02 0.  0.
    9900012    2    3    3    0    0  0.30171895419E+02  0.17051377985E+02  0.12437313592E+02  0.54367088364E+02  0.40000009543E+02 0.  0.
         12    1    3    3    0    0 -0.30171895419E+02 -0.17051377985E+02 -0.12437313592E+02  0.36820911636E+02  0.00000000000E+00 0. -1.
         11    1    4    4    0    0 -0.51436015179E+00 -0.55023843945E+01  0.18434019992E+01  0.58257129677E+01  0.51100000000E-03 0. -1.
        -11    1    4    4    0    0  0.12972708109E+02  0.22232974542E+02  0.15640567530E+02  0.30120153811E+02  0.51100000000E-03 0.  1.
         12    1    4    4    0    0  0.17713547462E+02  0.32078783726E+00 -0.50466559379E+01  0.18421221585E+02  0.00000000000E+00 0. -1.
</event>
<event>
 8    1  0.1212194E-006  0.9118800E+02  0.7816164E-02  0.1184000E+00
        -11   -1    0    0    0    0  0.00000000000E+00  0.00000000000E+00  0.45593999997E+02  0.45594000000E+02  0.51100000000E-03 0.  1.
         11   -1    0    0    0    0 -0.00000000000E+00 -0.00000000000E+00 -0.45593999997E+02  0.45594000000E+02  0.51100000000E-03 0. -1.
         23    2    1    2    0    0  0.00000000000E+00  0.00000000000E+00  0.00000000000E+00  0.91188000000E+02  0.91188000000E+02 0.  0.
    9900012    2    3    3    0    0  0.12771535195E+02  0.53800807967E+01  0.34113351833E+02  0.54367107101E+02  0.40000052257E+02 0.  0.
         12    1    3    3    0    0 -0.12771535195E+02 -0.53800807967E+01 -0.34113351833E+02  0.36820892899E+02  0.00000000000E+00 0. -1.
         11    1    4    4    0    0  0.13414120178E+02  0.33047211421E+01  0.13548230801E+01  0.13881474987E+02  0.51100000000E-03 0. -1.
        -11    1    4    4    0    0 -0.11150570713E+01 -0.82645018831E+01  0.27770829690E+02  0.28995936363E+02  0.51100000000E-03 0.  1.
         12    1    4    4    0    0  0.47247208864E+00  0.10339861538E+02  0.49876990626E+01  0.11489695750E+02  0.00000000000E+00 0. -1.
</event>
<event>
 8    1  0.1212194E-006  0.9118800E+02  0.7816164E-02  0.1184000E+00
        -11   -1    0    0    0    0  0.00000000000E+00  0.00000000000E+00  0.45593999997E+02  0.45594000000E+02  0.51100000000E-03 0.  1.
         11   -1    0    0    0    0 -0.00000000000E+00 -0.00000000000E+00 -0.45593999997E+02  0.45594000000E+02  0.51100000000E-03 0. -1.
         23    2    1    2    0    0  0.44408920985E-15  0.00000000000E+00  0.35527136788E-14  0.91188000000E+02  0.91188000000E+02 0.  0.
    9900012    2    3    3    0    0  0.18390432963E+01  0.19471844205E+02  0.31196878787E+02  0.54367081448E+02  0.39999993777E+02 0.  0.
         12    1    3    3    0    0 -0.18390432963E+01 -0.19471844205E+02 -0.31196878787E+02  0.36820918552E+02  0.00000000000E+00 0. -1.
         11    1    4    4    0    0  0.34686394709E+00 -0.32076354057E+01 -0.80876200125E+00  0.33261593061E+01  0.51100000000E-03 0. -1.
        -11    1    4    4    0    0  0.52279501822E+01  0.24551253057E+02  0.36885507181E+02  0.44616545474E+02  0.51100000000E-03 0.  1.
        -12    1    4    4    0    0 -0.37357708331E+01 -0.18717734470E+01 -0.48798663929E+01  0.64243766675E+01  0.00000000000E+00 0.  1.
</event>
<event>
 8    1  0.1212194E-006  0.9118800E+02  0.7816164E-02  0.1184000E+00
        -11   -1    0    0    0    0  0.00000000000E+00  0.00000000000E+00  0.45593999997E+02  0.45594000000E+02  0.51100000000E-03 0.  1.
         11   -1    0    0    0    0 -0.00000000000E+00 -0.00000000000E+00 -0.45593999997E+02  0.45594000000E+02  0.51100000000E-03 0. -1.
         23    2    1    2    0    0 -0.71054273576E-14  0.00000000000E+00 -0.17763568394E-14  0.91188000000E+02  0.91188000000E+02 0.  0.
    9900012    2    3    3    0    0 -0.28507494212E+02  0.20209437075E+02 -0.11605230120E+02  0.54367082857E+02  0.39999996988E+02 0.  0.
        -12    1    3    3    0    0  0.28507494212E+02 -0.20209437075E+02  0.11605230120E+02  0.36820917143E+02  0.00000000000E+00 0.  1.
         11    1    4    4    0    0 -0.13723805879E+01 -0.41850142872E+01  0.10879519114E+01  0.45366741876E+01  0.51100000000E-03 0. -1.
        -11    1    4    4    0    0  0.65109395708E+01  0.91872047404E+01 -0.27276686129E+01  0.11586079637E+02  0.51100000000E-03 0.  1.
        -12    1    4    4    0    0 -0.33646053195E+02  0.15207246622E+02 -0.99655134183E+01  0.38244329032E+02  0.00000000000E+00 0.  1.
</event>
<event>
 8    1  0.1212194E-006  0.9118800E+02  0.7816164E-02  0.1184000E+00
        -11   -1    0    0    0    0  0.00000000000E+00  0.00000000000E+00  0.45593999997E+02  0.45594000000E+02  0.51100000000E-03 0. -1.
         11   -1    0    0    0    0 -0.00000000000E+00 -0.00000000000E+00 -0.45593999997E+02  0.45594000000E+02  0.51100000000E-03 0.  1.
         23    2    1    2    0    0 -0.17763568394E-14 -0.35527136788E-14  0.00000000000E+00  0.91188000000E+02  0.91188000000E+02 0.  0.
    9900012    2    3    3    0    0 -0.35756750769E+01 -0.25786780331E+02  0.26039160534E+02  0.54367063382E+02  0.39999952593E+02 0.  0.
        -12    1    3    3    0    0  0.35756750769E+01  0.25786780331E+02 -0.26039160534E+02  0.36820936618E+02  0.00000000000E+00 0.  1.
         11    1    4    4    0    0  0.91887202068E+01 -0.40196906539E+01  0.46316597664E+01  0.11047296703E+02  0.51100000000E-03 0. -1.
        -11    1    4    4    0    0 -0.97411108804E+01 -0.12622001055E+02  0.27596311954E+02  0.31870999130E+02  0.51100000000E-03 0.  1.
         12    1    4    4    0    0 -0.30232844033E+01 -0.91450886224E+01 -0.61888111868E+01  0.11448767549E+02  0.00000000000E+00 0. -1.
</event>
<event>
 8    1  0.1212194E-006  0.9118800E+02  0.7816164E-02  0.1184000E+00
        -11   -1    0    0    0    0  0.00000000000E+00  0.00000000000E+00  0.45593999997E+02  0.45594000000E+02  0.51100000000E-03 0.  1.
         11   -1    0    0    0    0 -0.00000000000E+00 -0.00000000000E+00 -0.45593999997E+02  0.45594000000E+02  0.51100000000E-03 0. -1.
         23    2    1    2    0    0 -0.88817841970E-15  0.00000000000E+00 -0.35527136788E-14  0.91188000000E+02  0.91188000000E+02 0.  0.
    9900012    2    3    3    0    0  0.57228250477E+01  0.19777167419E+02  0.30526904492E+02  0.54367095943E+02  0.40000026822E+02 0.  0.
         12    1    3    3    0    0 -0.57228250477E+01 -0.19777167419E+02 -0.30526904492E+02  0.36820904057E+02  0.00000000000E+00 0. -1.
         11    1    4    4    0    0 -0.48875189339E+01  0.47345784099E+01 -0.38411810803E+00  0.68155426072E+01  0.51100000000E-03 0. -1.
        -11    1    4    4    0    0 -0.73116930904E+01 -0.52546359907E+01  0.88474746503E+01  0.12623385568E+02  0.51100000000E-03 0.  1.
         12    1    4    4    0    0  0.17922037072E+02  0.20297225000E+02  0.22063547950E+02  0.34928167768E+02  0.00000000000E+00 0. -1.
</event>
<event>
 8    1  0.1212194E-006  0.9118800E+02  0.7816164E-02  0.1184000E+00
        -11   -1    0    0    0    0  0.00000000000E+00  0.00000000000E+00  0.45593999997E+02  0.45594000000E+02  0.51100000000E-03 0. -1.
         11   -1    0    0    0    0 -0.00000000000E+00 -0.00000000000E+00 -0.45593999997E+02  0.45594000000E+02  0.51100000000E-03 0.  1.
         23    2    1    2    0    0  0.00000000000E+00  0.13322676296E-14  0.00000000000E+00  0.91188000000E+02  0.91188000000E+02 0.  0.
    9900012    2    3    3    0    0  0.91534443312E+01  0.14238807425E+01  0.35636606772E+02  0.54367072232E+02  0.39999972768E+02 0.  0.
        -12    1    3    3    0    0 -0.91534443312E+01 -0.14238807425E+01 -0.35636606772E+02  0.36820927768E+02  0.00000000000E+00 0.  1.
         11    1    4    4    0    0 -0.18150511260E+01  0.44014209565E+01  0.25663983019E+02  0.26101857054E+02  0.51100000000E-03 0. -1.
        -11    1    4    4    0    0  0.44307703995E+01 -0.13234172296E+02  0.31056726404E+01  0.14297560823E+02  0.51100000000E-03 0.  1.
        -12    1    4    4    0    0  0.65377250577E+01  0.10256632082E+02  0.68669511123E+01  0.13967654355E+02  0.00000000000E+00 0.  1.
</event>
<event>
 8    1  0.1212194E-006  0.9118800E+02  0.7816164E-02  0.1184000E+00
        -11   -1    0    0    0    0  0.00000000000E+00  0.00000000000E+00  0.45593999997E+02  0.45594000000E+02  0.51100000000E-03 0. -1.
         11   -1    0    0    0    0 -0.00000000000E+00 -0.00000000000E+00 -0.45593999997E+02  0.45594000000E+02  0.51100000000E-03 0.  1.
         23    2    1    2    0    0  0.35527136788E-14 -0.88817841970E-15  0.00000000000E+00  0.91188000000E+02  0.91188000000E+02 0.  0.
    9900012    2    3    3    0    0 -0.97253587653E+01  0.58241393533E+01  0.35032518595E+02  0.54367074409E+02  0.39999977730E+02 0.  0.
        -12    1    3    3    0    0  0.97253587653E+01 -0.58241393533E+01 -0.35032518595E+02  0.36820925591E+02  0.00000000000E+00 0.  1.
         11    1    4    4    0    0  0.11370354190E+02 -0.31267768890E+01  0.10241799780E+02  0.15619095721E+02  0.51100000000E-03 0. -1.
        -11    1    4    4    0    0 -0.18705647241E+02  0.23838820136E+01  0.78559675527E+01  0.20427930845E+02  0.51100000000E-03 0.  1.
         12    1    4    4    0    0 -0.23900657143E+01  0.65670342287E+01  0.16934751261E+02  0.18320047843E+02  0.00000000000E+00 0. -1.
</event>
<event>
 8    1  0.1212194E-006  0.9118800E+02  0.7816164E-02  0.1184000E+00
        -11   -1    0    0    0    0  0.00000000000E+00  0.00000000000E+00  0.45593999997E+02  0.45594000000E+02  0.51100000000E-03 0.  1.
         11   -1    0    0    0    0 -0.00000000000E+00 -0.00000000000E+00 -0.45593999997E+02  0.45594000000E+02  0.51100000000E-03 0. -1.
         23    2    1    2    0    0 -0.88817841970E-15  0.00000000000E+00 -0.17763568394E-14  0.91188000000E+02  0.91188000000E+02 0.  0.
    9900012    2    3    3    0    0  0.27249877931E+01 -0.34287641995E+02 -0.13141955748E+02  0.54367096251E+02  0.40000027523E+02 0.  0.
         12    1    3    3    0    0 -0.27249877931E+01  0.34287641995E+02  0.13141955748E+02  0.36820903749E+02  0.00000000000E+00 0. -1.
         11    1    4    4    0    0 -0.50245491665E+00 -0.38144710393E+01 -0.64470738287E+01  0.75078233508E+01  0.51100000000E-03 0. -1.
        -11    1    4    4    0    0 -0.14187165250E+02 -0.68385746045E+01 -0.76013674000E+01  0.17487782795E+02  0.51100000000E-03 0.  1.
        -12    1    4    4    0    0  0.17414607960E+02 -0.23634596351E+02  0.90648548029E+00  0.29371490105E+02  0.00000000000E+00 0.  1.
</event>
<event>
 8    1  0.1212194E-006  0.9118800E+02  0.7816164E-02  0.1184000E+00
        -11   -1    0    0    0    0  0.00000000000E+00  0.00000000000E+00  0.45593999997E+02  0.45594000000E+02  0.51100000000E-03 0. -1.
         11   -1    0    0    0    0 -0.00000000000E+00 -0.00000000000E+00 -0.45593999997E+02  0.45594000000E+02  0.51100000000E-03 0.  1.
         23    2    1    2    0    0  0.35527136788E-14  0.17763568394E-14 -0.35527136788E-14  0.91188000000E+02  0.91188000000E+02 0.  0.
    9900012    2    3    3    0    0  0.30219669254E+02  0.12193581313E+02  0.17142545897E+02  0.54367099483E+02  0.40000034891E+02 0.  0.
        -12    1    3    3    0    0 -0.30219669254E+02 -0.12193581313E+02 -0.17142545897E+02  0.36820900517E+02  0.00000000000E+00 0.  1.
         11    1    4    4    0    0  0.93970987882E+01  0.11319480534E+02  0.80142889441E+01  0.16753057414E+02  0.51100000000E-03 0. -1.
        -11    1    4    4    0    0  0.14125585418E+01 -0.12715605473E+02  0.30497004075E+01  0.13152285619E+02  0.51100000000E-03 0.  1.
        -12    1    4    4    0    0  0.19410011924E+02  0.13589706253E+02  0.60785565454E+01  0.24461756449E+02  0.00000000000E+00 0.  1.
</event>
<event>
 8    1  0.1212194E-006  0.9118800E+02  0.7816164E-02  0.1184000E+00
        -11   -1    0    0    0    0  0.00000000000E+00  0.00000000000E+00  0.45593999997E+02  0.45594000000E+02  0.51100000000E-03 0.  1.
         11   -1    0    0    0    0 -0.00000000000E+00 -0.00000000000E+00 -0.45593999997E+02  0.45594000000E+02  0.51100000000E-03 0. -1.
         23    2    1    2    0    0  0.88817841970E-15  0.88817841970E-15  0.00000000000E+00  0.91188000000E+02  0.91188000000E+02 0.  0.
    9900012    2    3    3    0    0 -0.58921822925E+01  0.73987402773E+01  0.35585386317E+02  0.54367097117E+02  0.40000029497E+02 0.  0.
         12    1    3    3    0    0  0.58921822925E+01 -0.73987402773E+01 -0.35585386317E+02  0.36820902883E+02  0.00000000000E+00 0. -1.
         11    1    4    4    0    0 -0.64816882142E+01  0.74804757217E+01 -0.37977789862E+01  0.10601552934E+02  0.51100000000E-03 0. -1.
        -11    1    4    4    0    0  0.91068114882E+01  0.13845923647E+00  0.11859417326E+02  0.14953225940E+02  0.51100000000E-03 0.  1.
         12    1    4    4    0    0 -0.85173055664E+01 -0.22019468090E+00  0.27523747976E+02  0.28812318242E+02  0.00000000000E+00 0. -1.
</event>
<event>
 8    1  0.1212194E-006  0.9118800E+02  0.7816164E-02  0.1184000E+00
        -11   -1    0    0    0    0  0.00000000000E+00  0.00000000000E+00  0.45593999997E+02  0.45594000000E+02  0.51100000000E-03 0.  1.
         11   -1    0    0    0    0 -0.00000000000E+00 -0.00000000000E+00 -0.45593999997E+02  0.45594000000E+02  0.51100000000E-03 0. -1.
         23    2    1    2    0    0  0.00000000000E+00  0.00000000000E+00  0.00000000000E+00  0.91188000000E+02  0.91188000000E+02 0.  0.
    9900012    2    3    3    0    0 -0.23214333102E+02 -0.27938624241E+02 -0.60255927776E+01  0.54367085370E+02  0.40000002718E+02 0.  0.
         12    1    3    3    0    0  0.23214333102E+02  0.27938624241E+02  0.60255927776E+01  0.36820914630E+02  0.00000000000E+00 0. -1.
         11    1    4    4    0    0 -0.11146164569E+02 -0.31584448589E+01  0.12262742627E+02  0.16869724821E+02  0.51100000000E-03 0. -1.
        -11    1    4    4    0    0 -0.12132318458E+02 -0.53845593508E+01 -0.62695986643E+01  0.14679730864E+02  0.51100000000E-03 0.  1.
        -12    1    4    4    0    0  0.64149924761E-01 -0.19395620031E+02 -0.12018736740E+02  0.22817629685E+02  0.00000000000E+00 0.  1.
</event>
<event>
 8    1  0.1212194E-006  0.9118800E+02  0.7816164E-02  0.1184000E+00
        -11   -1    0    0    0    0  0.00000000000E+00  0.00000000000E+00  0.45593999997E+02  0.45594000000E+02  0.51100000000E-03 0. -1.
         11   -1    0    0    0    0 -0.00000000000E+00 -0.00000000000E+00 -0.45593999997E+02  0.45594000000E+02  0.51100000000E-03 0.  1.
         23    2    1    2    0    0  0.77715611724E-15  0.35527136788E-14  0.00000000000E+00  0.91188000000E+02  0.91188000000E+02 0.  0.
    9900012    2    3    3    0    0  0.82421908970E+00 -0.17411537739E+02  0.32433601709E+02  0.54367088776E+02  0.40000010482E+02 0.  0.
        -12    1    3    3    0    0 -0.82421908970E+00  0.17411537739E+02 -0.32433601709E+02  0.36820911224E+02  0.00000000000E+00 0.  1.
         11    1    4    4    0    0 -0.75505414390E+01 -0.20179415526E+02  0.31190747879E+02  0.37908867571E+02  0.51100000000E-03 0. -1.
        -11    1    4    4    0    0  0.63392967702E+01  0.28639408564E+01  0.72903700012E+01  0.10076623233E+02  0.51100000000E-03 0.  1.
        -12    1    4    4    0    0  0.20354637585E+01 -0.96063070029E-01 -0.60475161715E+01  0.63815979715E+01  0.00000000000E+00 0.  1.
</event>
<event>
 8    1  0.1212194E-006  0.9118800E+02  0.7816164E-02  0.1184000E+00
        -11   -1    0    0    0    0  0.00000000000E+00  0.00000000000E+00  0.45593999997E+02  0.45594000000E+02  0.51100000000E-03 0.  1.
         11   -1    0    0    0    0 -0.00000000000E+00 -0.00000000000E+00 -0.45593999997E+02  0.45594000000E+02  0.51100000000E-03 0. -1.
         23    2    1    2    0    0  0.00000000000E+00  0.00000000000E+00  0.00000000000E+00  0.91188000000E+02  0.91188000000E+02 0.  0.
    9900012    2    3    3    0    0 -0.26431495857E+02 -0.20787081322E+02  0.15001756387E+02  0.54367089938E+02  0.40000013132E+02 0.  0.
         12    1    3    3    0    0  0.26431495857E+02  0.20787081322E+02 -0.15001756387E+02  0.36820910062E+02  0.00000000000E+00 0. -1.
         11    1    4    4    0    0 -0.21934467044E+02  0.52762709953E+01  0.21149260618E+01  0.22659055422E+02  0.51100000000E-03 0. -1.
        -11    1    4    4    0    0 -0.79167498570E+01 -0.18050288479E+02  0.11684436458E+02  0.22913181754E+02  0.51100000000E-03 0.  1.
         12    1    4    4    0    0  0.34197210443E+01 -0.80130638379E+01  0.12023938667E+01  0.87948527618E+01  0.00000000000E+00 0. -1.
</event>
<event>
 8    1  0.1212194E-006  0.9118800E+02  0.7816164E-02  0.1184000E+00
        -11   -1    0    0    0    0  0.00000000000E+00  0.00000000000E+00  0.45593999997E+02  0.45594000000E+02  0.51100000000E-03 0. -1.
         11   -1    0    0    0    0 -0.00000000000E+00 -0.00000000000E+00 -0.45593999997E+02  0.45594000000E+02  0.51100000000E-03 0.  1.
         23    2    1    2    0    0 -0.88817841970E-15  0.00000000000E+00  0.00000000000E+00  0.91188000000E+02  0.91188000000E+02 0.  0.
    9900012    2    3    3    0    0 -0.67137884441E+01  0.21281297255E+02  0.29288432837E+02  0.54367070270E+02  0.39999968294E+02 0.  0.
        -12    1    3    3    0    0  0.67137884441E+01 -0.21281297255E+02 -0.29288432837E+02  0.36820929730E+02  0.00000000000E+00 0.  1.
         11    1    4    4    0    0 -0.14128937325E+02  0.14236793609E+02  0.11216202175E+02  0.22980782269E+02  0.51100000000E-03 0. -1.
        -11    1    4    4    0    0  0.93842700280E+01  0.14581391260E+02  0.15277542501E+02  0.23110274775E+02  0.51100000000E-03 0.  1.
         12    1    4    4    0    0 -0.19691211473E+01 -0.75368876138E+01  0.27946881609E+01  0.82760132258E+01  0.00000000000E+00 0. -1.
</event>
<event>
 8    1  0.1212194E-006  0.9118800E+02  0.7816164E-02  0.1184000E+00
        -11   -1    0    0    0    0  0.00000000000E+00  0.00000000000E+00  0.45593999997E+02  0.45594000000E+02  0.51100000000E-03 0. -1.
         11   -1    0    0    0    0 -0.00000000000E+00 -0.00000000000E+00 -0.45593999997E+02  0.45594000000E+02  0.51100000000E-03 0.  1.
         23    2    1    2    0    0  0.00000000000E+00  0.35527136788E-14 -0.35527136788E-14  0.91188000000E+02  0.91188000000E+02 0.  0.
    9900012    2    3    3    0    0  0.12723817341E+02  0.29359017649E+02 -0.18219000159E+02  0.54367090018E+02  0.40000013315E+02 0.  0.
         12    1    3    3    0    0 -0.12723817341E+02 -0.29359017649E+02  0.18219000159E+02  0.36820909982E+02  0.00000000000E+00 0. -1.
         11    1    4    4    0    0  0.10022496536E+02  0.10225347321E+02  0.69561599770E+01  0.15918427263E+02  0.51100000000E-03 0. -1.
        -11    1    4    4    0    0 -0.43822370776E+01  0.20682235582E+02 -0.22066241160E+02  0.30559415401E+02  0.51100000000E-03 0.  1.
        -12    1    4    4    0    0  0.70835578824E+01 -0.15485652528E+01 -0.31089189767E+01  0.78892473545E+01  0.00000000000E+00 0.  1.
</event>
<event>
 8    1  0.1212194E-006  0.9118800E+02  0.7816164E-02  0.1184000E+00
        -11   -1    0    0    0    0  0.00000000000E+00  0.00000000000E+00  0.45593999997E+02  0.45594000000E+02  0.51100000000E-03 0. -1.
         11   -1    0    0    0    0 -0.00000000000E+00 -0.00000000000E+00 -0.45593999997E+02  0.45594000000E+02  0.51100000000E-03 0.  1.
         23    2    1    2    0    0 -0.88817841970E-15  0.00000000000E+00  0.88817841970E-15  0.91188000000E+02  0.91188000000E+02 0.  0.
    9900012    2    3    3    0    0  0.42094436413E+01  0.36381176326E+02 -0.38035404723E+01  0.54367131912E+02  0.40000108820E+02 0.  0.
        -12    1    3    3    0    0 -0.42094436413E+01 -0.36381176326E+02  0.38035404723E+01  0.36820868088E+02  0.00000000000E+00 0.  1.
         11    1    4    4    0    0 -0.48873565349E+01  0.19781478980E+02 -0.90788815711E+01  0.22307381186E+02  0.51100000000E-03 0. -1.
        -11    1    4    4    0    0  0.11664740517E+02  0.61733557961E+01 -0.76511695623E+01  0.15255061096E+02  0.51100000000E-03 0.  1.
         12    1    4    4    0    0 -0.25679403404E+01  0.10426341550E+02  0.12926510661E+02  0.16804689630E+02  0.00000000000E+00 0. -1.
</event>
<event>
 8    1  0.1212194E-006  0.9118800E+02  0.7816164E-02  0.1184000E+00
        -11   -1    0    0    0    0  0.00000000000E+00  0.00000000000E+00  0.45593999997E+02  0.45594000000E+02  0.51100000000E-03 0.  1.
         11   -1    0    0    0    0 -0.00000000000E+00 -0.00000000000E+00 -0.45593999997E+02  0.45594000000E+02  0.51100000000E-03 0. -1.
         23    2    1    2    0    0 -0.44408920985E-15 -0.35527136788E-14  0.00000000000E+00  0.91188000000E+02  0.91188000000E+02 0.  0.
    9900012    2    3    3    0    0 -0.20230089880E+01  0.26772426749E+02  0.25197688009E+02  0.54367097236E+02  0.40000029768E+02 0.  0.
         12    1    3    3    0    0  0.20230089880E+01 -0.26772426749E+02 -0.25197688009E+02  0.36820902764E+02  0.00000000000E+00 0. -1.
         11    1    4    4    0    0  0.54826462000E+01  0.32348486619E+01 -0.46680092021E+01  0.78939195203E+01  0.51100000000E-03 0. -1.
        -11    1    4    4    0    0 -0.11909606670E+02  0.74699217204E+01  0.22731238732E+01  0.14240981495E+02  0.51100000000E-03 0.  1.
         12    1    4    4    0    0  0.44039514818E+01  0.16067656366E+02  0.27592573338E+02  0.32232196220E+02  0.00000000000E+00 0. -1.
</event>
<event>
 8    1  0.1212194E-006  0.9118800E+02  0.7816164E-02  0.1184000E+00
        -11   -1    0    0    0    0  0.00000000000E+00  0.00000000000E+00  0.45593999997E+02  0.45594000000E+02  0.51100000000E-03 0.  1.
         11   -1    0    0    0    0 -0.00000000000E+00 -0.00000000000E+00 -0.45593999997E+02  0.45594000000E+02  0.51100000000E-03 0. -1.
         23    2    1    2    0    0  0.00000000000E+00  0.00000000000E+00  0.71054273576E-14  0.91188000000E+02  0.91188000000E+02 0.  0.
    9900012    2    3    3    0    0 -0.11367771477E+02  0.81446492925E+01 -0.34061969772E+02  0.54367091195E+02  0.40000015998E+02 0.  0.
        -12    1    3    3    0    0  0.11367771477E+02 -0.81446492925E+01  0.34061969772E+02  0.36820908805E+02  0.00000000000E+00 0.  1.
         11    1    4    4    0    0  0.30438733617E+01  0.45717490257E+00 -0.83409184233E+01  0.88907308102E+01  0.51100000000E-03 0. -1.
        -11    1    4    4    0    0 -0.80119006518E+00 -0.10642860904E+02  0.52994681063E+00  0.10686123601E+02  0.51100000000E-03 0.  1.
         12    1    4    4    0    0 -0.13610454773E+02  0.18330335294E+02 -0.26250998159E+02  0.34790236784E+02  0.00000000000E+00 0. -1.
</event>
<event>
 8    1  0.1212194E-006  0.9118800E+02  0.7816164E-02  0.1184000E+00
        -11   -1    0    0    0    0  0.00000000000E+00  0.00000000000E+00  0.45593999997E+02  0.45594000000E+02  0.51100000000E-03 0. -1.
         11   -1    0    0    0    0 -0.00000000000E+00 -0.00000000000E+00 -0.45593999997E+02  0.45594000000E+02  0.51100000000E-03 0.  1.
         23    2    1    2    0    0 -0.17763568394E-14 -0.35527136788E-14 -0.35527136788E-14  0.91188000000E+02  0.91188000000E+02 0.  0.
    9900012    2    3    3    0    0  0.10313216906E+02 -0.29127648985E+02 -0.20024934725E+02  0.54367076748E+02  0.39999983062E+02 0.  0.
         12    1    3    3    0    0 -0.10313216906E+02  0.29127648985E+02  0.20024934725E+02  0.36820923252E+02  0.00000000000E+00 0. -1.
         11    1    4    4    0    0 -0.83443035835E+01 -0.69675688452E+01 -0.14705434996E+02  0.18287269796E+02  0.51100000000E-03 0. -1.
        -11    1    4    4    0    0  0.60033144589E+01 -0.21870251105E+01 -0.10105585885E+02  0.11955991372E+02  0.51100000000E-03 0.  1.
        -12    1    4    4    0    0  0.12654206031E+02 -0.19973055030E+02  0.47860861556E+01  0.24123815581E+02  0.00000000000E+00 0.  1.
</event>
<event>
 8    1  0.1212194E-006  0.9118800E+02  0.7816164E-02  0.1184000E+00
        -11   -1    0    0    0    0  0.00000000000E+00  0.00000000000E+00  0.45593999997E+02  0.45594000000E+02  0.51100000000E-03 0.  1.
         11   -1    0    0    0    0 -0.00000000000E+00 -0.00000000000E+00 -0.45593999997E+02  0.45594000000E+02  0.51100000000E-03 0. -1.
         23    2    1    2    0    0  0.00000000000E+00  0.00000000000E+00  0.35527136788E-14  0.91188000000E+02  0.91188000000E+02 0.  0.
    9900012    2    3    3    0    0  0.23398229295E+02 -0.14929608708E+02  0.24195244554E+02  0.54367079190E+02  0.39999988629E+02 0.  0.
         12    1    3    3    0    0 -0.23398229295E+02  0.14929608708E+02 -0.24195244554E+02  0.36820920810E+02  0.00000000000E+00 0. -1.
         11    1    4    4    0    0 -0.15994340965E+01 -0.97712917908E+01 -0.72204037311E+01  0.12254409941E+02  0.51100000000E-03 0. -1.
        -11    1    4    4    0    0  0.90478346270E+01 -0.76717013505E+01  0.14366781931E+02  0.18631230135E+02  0.51100000000E-03 0.  1.
         12    1    4    4    0    0  0.15949828764E+02  0.25133844333E+01  0.17048866354E+02  0.23481439114E+02  0.00000000000E+00 0. -1.
</event>
<event>
 8    1  0.1212194E-006  0.9118800E+02  0.7816164E-02  0.1184000E+00
        -11   -1    0    0    0    0  0.00000000000E+00  0.00000000000E+00  0.45593999997E+02  0.45594000000E+02  0.51100000000E-03 0.  1.
         11   -1    0    0    0    0 -0.00000000000E+00 -0.00000000000E+00 -0.45593999997E+02  0.45594000000E+02  0.51100000000E-03 0. -1.
         23    2    1    2    0    0  0.88817841970E-15  0.00000000000E+00  0.00000000000E+00  0.91188000000E+02  0.91188000000E+02 0.  0.
    9900012    2    3    3    0    0  0.49390684959E+01 -0.15439967930E+02 -0.33060449421E+02  0.54367077643E+02  0.39999985104E+02 0.  0.
        -12    1    3    3    0    0 -0.49390684959E+01  0.15439967930E+02  0.33060449421E+02  0.36820922357E+02  0.00000000000E+00 0.  1.
         11    1    4    4    0    0 -0.33307742044E+01  0.36245380781E+01 -0.18812494467E+02  0.19445855122E+02  0.51100000000E-03 0. -1.
        -11    1    4    4    0    0  0.49167504627E+01  0.47942104577E+01  0.12160802480E+00  0.68683096754E+01  0.51100000000E-03 0.  1.
         12    1    4    4    0    0  0.33530922376E+01 -0.23858716466E+02 -0.14369562978E+02  0.28052912846E+02  0.00000000000E+00 0. -1.
</event>
<event>
 8    1  0.1212194E-006  0.9118800E+02  0.7816164E-02  0.1184000E+00
        -11   -1    0    0    0    0  0.00000000000E+00  0.00000000000E+00  0.45593999997E+02  0.45594000000E+02  0.51100000000E-03 0.  1.
         11   -1    0    0    0    0 -0.00000000000E+00 -0.00000000000E+00 -0.45593999997E+02  0.45594000000E+02  0.51100000000E-03 0. -1.
         23    2    1    2    0    0  0.00000000000E+00  0.00000000000E+00 -0.17763568394E-14  0.91188000000E+02  0.91188000000E+02 0.  0.
    9900012    2    3    3    0    0 -0.32674412517E+02  0.15163913436E+02 -0.76300209108E+01  0.54367099371E+02  0.40000034636E+02 0.  0.
         12    1    3    3    0    0  0.32674412517E+02 -0.15163913436E+02  0.76300209108E+01  0.36820900629E+02  0.00000000000E+00 0. -1.
         11    1    4    4    0    0 -0.11498722073E+02  0.21938041738E+01  0.80305596573E+01  0.14195889361E+02  0.51100000000E-03 0. -1.
        -11    1    4    4    0    0 -0.12654572907E+02  0.20000321136E+02 -0.38133532028E+01  0.23972749611E+02  0.51100000000E-03 0.  1.
        -12    1    4    4    0    0 -0.85211175373E+01 -0.70302118735E+01 -0.11847227365E+02  0.16198460400E+02  0.00000000000E+00 0.  1.
</event>
<event>
 8    1  0.1212194E-006  0.9118800E+02  0.7816164E-02  0.1184000E+00
        -11   -1    0    0    0    0  0.00000000000E+00  0.00000000000E+00  0.45593999997E+02  0.45594000000E+02  0.51100000000E-03 0.  1.
         11   -1    0    0    0    0 -0.00000000000E+00 -0.00000000000E+00 -0.45593999997E+02  0.45594000000E+02  0.51100000000E-03 0. -1.
         23    2    1    2    0    0  0.17763568394E-14  0.71054273576E-14  0.26645352591E-14  0.91188000000E+02  0.91188000000E+02 0.  0.
    9900012    2    3    3    0    0 -0.57658660684E+01 -0.35536377425E+02 -0.77266450506E+01  0.54367076930E+02  0.39999983476E+02 0.  0.
        -12    1    3    3    0    0  0.57658660684E+01  0.35536377425E+02  0.77266450506E+01  0.36820923070E+02  0.00000000000E+00 0.  1.
         11    1    4    4    0    0  0.55506553505E+00 -0.17810347336E+02  0.71331416533E+01  0.19193704178E+02  0.51100000000E-03 0. -1.
        -11    1    4    4    0    0 -0.10471323243E+02 -0.97916761388E+01  0.34904665482E+01  0.14754961506E+02  0.51100000000E-03 0.  1.
         12    1    4    4    0    0  0.41503916393E+01 -0.79343539509E+01 -0.18350253252E+02  0.20418411246E+02  0.00000000000E+00 0. -1.
</event>
<event>
 8    1  0.1212194E-006  0.9118800E+02  0.7816164E-02  0.1184000E+00
        -11   -1    0    0    0    0  0.00000000000E+00  0.00000000000E+00  0.45593999997E+02  0.45594000000E+02  0.51100000000E-03 0. -1.
         11   -1    0    0    0    0 -0.00000000000E+00 -0.00000000000E+00 -0.45593999997E+02  0.45594000000E+02  0.51100000000E-03 0.  1.
         23    2    1    2    0    0 -0.35527136788E-14  0.17763568394E-14  0.10658141036E-13  0.91188000000E+02  0.91188000000E+02 0.  0.
    9900012    2    3    3    0    0 -0.16189851802E+02  0.10135040996E+02  0.31479342743E+02  0.54367090493E+02  0.40000014397E+02 0.  0.
        -12    1    3    3    0    0  0.16189851802E+02 -0.10135040996E+02 -0.31479342743E+02  0.36820909507E+02  0.00000000000E+00 0.  1.
         11    1    4    4    0    0 -0.25421543764E+02  0.53208965894E+01  0.23656040771E+02  0.35130828244E+02  0.51100000000E-03 0. -1.
        -11    1    4    4    0    0  0.28869304759E+00  0.79671565671E+01  0.46892757541E+01  0.92492288759E+01  0.51100000000E-03 0.  1.
        -12    1    4    4    0    0  0.89429989142E+01 -0.31530121604E+01  0.31340262177E+01  0.99870333732E+01  0.00000000000E+00 0.  1.
</event>
<event>
 8    1  0.1212194E-006  0.9118800E+02  0.7816164E-02  0.1184000E+00
        -11   -1    0    0    0    0  0.00000000000E+00  0.00000000000E+00  0.45593999997E+02  0.45594000000E+02  0.51100000000E-03 0. -1.
         11   -1    0    0    0    0 -0.00000000000E+00 -0.00000000000E+00 -0.45593999997E+02  0.45594000000E+02  0.51100000000E-03 0.  1.
         23    2    1    2    0    0  0.71054273576E-14 -0.17763568394E-14  0.00000000000E+00  0.91188000000E+02  0.91188000000E+02 0.  0.
    9900012    2    3    3    0    0 -0.27761583118E+02  0.15099600297E+02  0.18896465766E+02  0.54367084139E+02  0.39999999913E+02 0.  0.
        -12    1    3    3    0    0  0.27761583118E+02 -0.15099600297E+02 -0.18896465766E+02  0.36820915861E+02  0.00000000000E+00 0.  1.
         11    1    4    4    0    0 -0.20201026252E+01 -0.61245416706E+01  0.91729821333E+01  0.11213136348E+02  0.51100000000E-03 0. -1.
        -11    1    4    4    0    0  0.13756704326E+01  0.13587323832E+02  0.11444429685E+01  0.13704655707E+02  0.51100000000E-03 0.  1.
         12    1    4    4    0    0 -0.27117150926E+02  0.76368181350E+01  0.85790406644E+01  0.29449292084E+02  0.00000000000E+00 0. -1.
</event>
<event>
 8    1  0.1212194E-006  0.9118800E+02  0.7816164E-02  0.1184000E+00
        -11   -1    0    0    0    0  0.00000000000E+00  0.00000000000E+00  0.45593999997E+02  0.45594000000E+02  0.51100000000E-03 0.  1.
         11   -1    0    0    0    0 -0.00000000000E+00 -0.00000000000E+00 -0.45593999997E+02  0.45594000000E+02  0.51100000000E-03 0. -1.
         23    2    1    2    0    0  0.00000000000E+00  0.00000000000E+00  0.35527136788E-14  0.91188000000E+02  0.91188000000E+02 0.  0.
    9900012    2    3    3    0    0  0.26701535365E+02  0.10229863842E+02  0.23198219405E+02  0.54367088976E+02  0.40000010939E+02 0.  0.
         12    1    3    3    0    0 -0.26701535365E+02 -0.10229863842E+02 -0.23198219405E+02  0.36820911024E+02  0.00000000000E+00 0. -1.
         11    1    4    4    0    0  0.28504270596E+01  0.95952230321E+01  0.51509171270E+01  0.11257228210E+02  0.51100000000E-03 0. -1.
        -11    1    4    4    0    0  0.21008471643E+02  0.89784001203E+01  0.23475619925E+02  0.32757781985E+02  0.51100000000E-03 0.  1.
        -12    1    4    4    0    0  0.28426366623E+01 -0.83437593102E+01 -0.54283176464E+01  0.10352078781E+02  0.00000000000E+00 0.  1.
</event>
<event>
 8    1  0.1212194E-006  0.9118800E+02  0.7816164E-02  0.1184000E+00
        -11   -1    0    0    0    0  0.00000000000E+00  0.00000000000E+00  0.45593999997E+02  0.45594000000E+02  0.51100000000E-03 0. -1.
         11   -1    0    0    0    0 -0.00000000000E+00 -0.00000000000E+00 -0.45593999997E+02  0.45594000000E+02  0.51100000000E-03 0.  1.
         23    2    1    2    0    0  0.88817841970E-15  0.00000000000E+00  0.00000000000E+00  0.91188000000E+02  0.91188000000E+02 0.  0.
    9900012    2    3    3    0    0  0.21872550617E+01 -0.15088757315E+02 -0.33516018520E+02  0.54367106754E+02  0.40000051467E+02 0.  0.
         12    1    3    3    0    0 -0.21872550617E+01  0.15088757315E+02  0.33516018520E+02  0.36820893246E+02  0.00000000000E+00 0. -1.
         11    1    4    4    0    0 -0.29678701409E+01 -0.14264265023E+02 -0.44525482882E+01  0.15234917011E+02  0.51100000000E-03 0. -1.
        -11    1    4    4    0    0 -0.91678389399E+01 -0.54230537677E+01 -0.15927574001E+02  0.19161064606E+02  0.51100000000E-03 0.  1.
        -12    1    4    4    0    0  0.14322964142E+02  0.45985614757E+01 -0.13135896230E+02  0.19971125137E+02  0.00000000000E+00 0.  1.
</event>
<event>
 8    1  0.1212194E-006  0.9118800E+02  0.7816164E-02  0.1184000E+00
        -11   -1    0    0    0    0  0.00000000000E+00  0.00000000000E+00  0.45593999997E+02  0.45594000000E+02  0.51100000000E-03 0.  1.
         11   -1    0    0    0    0 -0.00000000000E+00 -0.00000000000E+00 -0.45593999997E+02  0.45594000000E+02  0.51100000000E-03 0. -1.
         23    2    1    2    0    0 -0.17763568394E-14  0.35527136788E-14  0.35527136788E-14  0.91188000000E+02  0.91188000000E+02 0.  0.
    9900012    2    3    3    0    0 -0.14177621034E+02  0.23279938616E+02  0.24755200718E+02  0.54367076020E+02  0.39999981402E+02 0.  0.
         12    1    3    3    0    0  0.14177621034E+02 -0.23279938616E+02 -0.24755200718E+02  0.36820923980E+02  0.00000000000E+00 0. -1.
         11    1    4    4    0    0 -0.43826564108E+01  0.11759349695E+02 -0.33185485719E+01  0.12980860809E+02  0.51100000000E-03 0.  1.
        -11    1    4    4    0    0 -0.45649002216E+01  0.79923185914E+01 -0.29983019360E+01  0.96801490309E+01  0.51100000000E-03 0. -1.
        -12    1    4    4    0    0 -0.52300644021E+01  0.35282703296E+01  0.31072051226E+02  0.31706066179E+02  0.00000000000E+00 0.  1.
</event>
<event>
 8    1  0.1212194E-006  0.9118800E+02  0.7816164E-02  0.1184000E+00
        -11   -1    0    0    0    0  0.00000000000E+00  0.00000000000E+00  0.45593999997E+02  0.45594000000E+02  0.51100000000E-03 0. -1.
         11   -1    0    0    0    0 -0.00000000000E+00 -0.00000000000E+00 -0.45593999997E+02  0.45594000000E+02  0.51100000000E-03 0.  1.
         23    2    1    2    0    0  0.35527136788E-14 -0.35527136788E-14  0.00000000000E+00  0.91188000000E+02  0.91188000000E+02 0.  0.
    9900012    2    3    3    0    0  0.21704618719E+02 -0.28365527604E+02  0.89486686070E+01  0.54367186594E+02  0.40000233478E+02 0.  0.
        -12    1    3    3    0    0 -0.21704618719E+02  0.28365527604E+02 -0.89486686070E+01  0.36820813406E+02  0.00000000000E+00 0.  1.
         11    1    4    4    0    0  0.61814427818E+01  0.58555029864E+01  0.36979423130E+01  0.92828835875E+01  0.51100000000E-03 0.  1.
        -11    1    4    4    0    0  0.22094347966E+02 -0.24681748765E+02  0.49728806817E+01  0.33497439853E+02  0.51100000000E-03 0. -1.
        -12    1    4    4    0    0 -0.65711720283E+01 -0.95392818254E+01  0.27784561231E+00  0.11586863154E+02  0.00000000000E+00 0.  1.
</event>
<event>
 8    1  0.1212194E-006  0.9118800E+02  0.7816164E-02  0.1184000E+00
        -11   -1    0    0    0    0  0.00000000000E+00  0.00000000000E+00  0.45593999997E+02  0.45594000000E+02  0.51100000000E-03 0.  1.
         11   -1    0    0    0    0 -0.00000000000E+00 -0.00000000000E+00 -0.45593999997E+02  0.45594000000E+02  0.51100000000E-03 0. -1.
         23    2    1    2    0    0  0.00000000000E+00  0.00000000000E+00  0.00000000000E+00  0.91188000000E+02  0.91188000000E+02 0.  0.
    9900012    2    3    3    0    0  0.34065954737E+01 -0.35931578120E+02  0.72867534161E+01  0.54367082381E+02  0.39999995904E+02 0.  0.
         12    1    3    3    0    0 -0.34065954737E+01  0.35931578120E+02 -0.72867534161E+01  0.36820917619E+02  0.00000000000E+00 0. -1.
         11    1    4    4    0    0  0.27891389584E+01 -0.13524251986E+02  0.11540156536E+02  0.17996107942E+02  0.51100000000E-03 0. -1.
        -11    1    4    4    0    0  0.11893670324E+01 -0.16910892522E+02  0.10958665000E+02  0.20186263118E+02  0.51100000000E-03 0.  1.
         12    1    4    4    0    0 -0.57191051714E+00 -0.54964336122E+01 -0.15212068119E+02  0.16184711322E+02  0.00000000000E+00 0. -1.
</event>
<event>
 8    1  0.1212194E-006  0.9118800E+02  0.7816164E-02  0.1184000E+00
        -11   -1    0    0    0    0  0.00000000000E+00  0.00000000000E+00  0.45593999997E+02  0.45594000000E+02  0.51100000000E-03 0. -1.
         11   -1    0    0    0    0 -0.00000000000E+00 -0.00000000000E+00 -0.45593999997E+02  0.45594000000E+02  0.51100000000E-03 0.  1.
         23    2    1    2    0    0 -0.17763568394E-14  0.00000000000E+00  0.35527136788E-14  0.91188000000E+02  0.91188000000E+02 0.  0.
    9900012    2    3    3    0    0 -0.13762767078E+02  0.25397270221E+02 -0.22832982152E+02  0.54367079774E+02  0.39999989962E+02 0.  0.
         12    1    3    3    0    0  0.13762767078E+02 -0.25397270221E+02  0.22832982152E+02  0.36820920226E+02  0.00000000000E+00 0. -1.
         11    1    4    4    0    0  0.75219032376E+01  0.33244375389E+01  0.93977259992E-01  0.82243385906E+01  0.51100000000E-03 0. -1.
        -11    1    4    4    0    0 -0.42503325493E+01  0.12359446236E+02 -0.23090567502E+02  0.26532914387E+02  0.51100000000E-03 0.  1.
         12    1    4    4    0    0 -0.17034337766E+02  0.97133864466E+01  0.16360809044E+00  0.19609826797E+02  0.00000000000E+00 0. -1.
</event>
<event>
 8    1  0.1212194E-006  0.9118800E+02  0.7816164E-02  0.1184000E+00
        -11   -1    0    0    0    0  0.00000000000E+00  0.00000000000E+00  0.45593999997E+02  0.45594000000E+02  0.51100000000E-03 0. -1.
         11   -1    0    0    0    0 -0.00000000000E+00 -0.00000000000E+00 -0.45593999997E+02  0.45594000000E+02  0.51100000000E-03 0.  1.
         23    2    1    2    0    0 -0.35527136788E-14  0.35527136788E-14  0.00000000000E+00  0.91188000000E+02  0.91188000000E+02 0.  0.
    9900012    2    3    3    0    0  0.19316397677E+02 -0.30947089401E+02 -0.49934321154E+01  0.54367083039E+02  0.39999997403E+02 0.  0.
         12    1    3    3    0    0 -0.19316397677E+02  0.30947089401E+02  0.49934321154E+01  0.36820916961E+02  0.00000000000E+00 0. -1.
         11    1    4    4    0    0  0.17440135924E+02 -0.11712880558E+02 -0.68518210968E+01  0.22097451541E+02  0.51100000000E-03 0.  1.
        -11    1    4    4    0    0 -0.70138015203E+01 -0.20612645479E+02 -0.31073077638E+01  0.21993861126E+02  0.51100000000E-03 0. -1.
        -12    1    4    4    0    0  0.88900632734E+01  0.13784366368E+01  0.49656967452E+01  0.10275770372E+02  0.00000000000E+00 0.  1.
</event>
<event>
 8    1  0.1212194E-006  0.9118800E+02  0.7816164E-02  0.1184000E+00
        -11   -1    0    0    0    0  0.00000000000E+00  0.00000000000E+00  0.45593999997E+02  0.45594000000E+02  0.51100000000E-03 0. -1.
         11   -1    0    0    0    0 -0.00000000000E+00 -0.00000000000E+00 -0.45593999997E+02  0.45594000000E+02  0.51100000000E-03 0.  1.
         23    2    1    2    0    0  0.00000000000E+00 -0.17763568394E-14  0.00000000000E+00  0.91188000000E+02  0.91188000000E+02 0.  0.
    9900012    2    3    3    0    0 -0.18029702206E+02  0.90711609731E+01 -0.30796535205E+02  0.54367045318E+02  0.39999911412E+02 0.  0.
         12    1    3    3    0    0  0.18029702206E+02 -0.90711609731E+01  0.30796535205E+02  0.36820954682E+02  0.00000000000E+00 0. -1.
         11    1    4    4    0    0  0.90768473848E+00 -0.96555223490E+00 -0.21278376484E+01  0.25067660485E+01  0.51100000000E-03 0. -1.
        -11    1    4    4    0    0 -0.30349105520E+02  0.88032122800E+01 -0.19158919323E+02  0.36954417086E+02  0.51100000000E-03 0.  1.
        -12    1    4    4    0    0  0.11411718575E+02  0.12335009280E+01 -0.95097782337E+01  0.14905862183E+02  0.00000000000E+00 0.  1.
</event>
<event>
 8    1  0.1212194E-006  0.9118800E+02  0.7816164E-02  0.1184000E+00
        -11   -1    0    0    0    0  0.00000000000E+00  0.00000000000E+00  0.45593999997E+02  0.45594000000E+02  0.51100000000E-03 0.  1.
         11   -1    0    0    0    0 -0.00000000000E+00 -0.00000000000E+00 -0.45593999997E+02  0.45594000000E+02  0.51100000000E-03 0. -1.
         23    2    1    2    0    0  0.35527136788E-14  0.00000000000E+00  0.00000000000E+00  0.91188000000E+02  0.91188000000E+02 0.  0.
    9900012    2    3    3    0    0  0.30097743694E+02  0.68764450043E+01  0.20065363826E+02  0.54367102444E+02  0.40000041642E+02 0.  0.
         12    1    3    3    0    0 -0.30097743694E+02 -0.68764450043E+01 -0.20065363826E+02  0.36820897556E+02  0.00000000000E+00 0. -1.
         11    1    4    4    0    0  0.25766176132E+02 -0.32539098644E+01  0.15380810948E+02  0.30183656299E+02  0.51100000000E-03 0. -1.
        -11    1    4    4    0    0  0.69977454332E+01  0.16207454731E+00  0.10286545536E+02  0.12442175398E+02  0.51100000000E-03 0.  1.
         12    1    4    4    0    0 -0.26661778720E+01  0.99682803214E+01 -0.56019926583E+01  0.11741270747E+02  0.00000000000E+00 0. -1.
</event>
<event>
 8    1  0.1212194E-006  0.9118800E+02  0.7816164E-02  0.1184000E+00
        -11   -1    0    0    0    0  0.00000000000E+00  0.00000000000E+00  0.45593999997E+02  0.45594000000E+02  0.51100000000E-03 0. -1.
         11   -1    0    0    0    0 -0.00000000000E+00 -0.00000000000E+00 -0.45593999997E+02  0.45594000000E+02  0.51100000000E-03 0.  1.
         23    2    1    2    0    0  0.00000000000E+00  0.35527136788E-14  0.88817841970E-15  0.91188000000E+02  0.91188000000E+02 0.  0.
    9900012    2    3    3    0    0 -0.28961671743E+02 -0.22500504807E+02  0.32753814933E+01  0.54367091936E+02  0.40000017687E+02 0.  0.
        -12    1    3    3    0    0  0.28961671743E+02  0.22500504807E+02 -0.32753814933E+01  0.36820908064E+02  0.00000000000E+00 0.  1.
         11    1    4    4    0    0 -0.18105528846E+02 -0.70738557934E+01  0.14534056651E+02  0.24271143639E+02  0.51100000000E-03 0. -1.
        -11    1    4    4    0    0  0.17526409075E+01  0.24779848485E+01 -0.72143642016E+01  0.78268263144E+01  0.51100000000E-03 0.  1.
         12    1    4    4    0    0 -0.12608783804E+02 -0.17904633862E+02 -0.40443109556E+01  0.22269121982E+02  0.00000000000E+00 0. -1.
</event>
<event>
 8    1  0.1212194E-006  0.9118800E+02  0.7816164E-02  0.1184000E+00
        -11   -1    0    0    0    0  0.00000000000E+00  0.00000000000E+00  0.45593999997E+02  0.45594000000E+02  0.51100000000E-03 0. -1.
         11   -1    0    0    0    0 -0.00000000000E+00 -0.00000000000E+00 -0.45593999997E+02  0.45594000000E+02  0.51100000000E-03 0.  1.
         23    2    1    2    0    0  0.17763568394E-14  0.00000000000E+00  0.00000000000E+00  0.91188000000E+02  0.91188000000E+02 0.  0.
    9900012    2    3    3    0    0 -0.14818346766E+02 -0.33653737631E+02 -0.19032780317E+01  0.54367083054E+02  0.39999997439E+02 0.  0.
         12    1    3    3    0    0  0.14818346766E+02  0.33653737631E+02  0.19032780317E+01  0.36820916946E+02  0.00000000000E+00 0. -1.
         11    1    4    4    0    0 -0.14142181020E+02 -0.26431303699E+02 -0.67117680545E+01  0.30719097153E+02  0.51100000000E-03 0.  1.
        -11    1    4    4    0    0  0.92873675136E+01 -0.66843136726E+01 -0.19346405296E+01  0.11605088489E+02  0.51100000000E-03 0. -1.
        -12    1    4    4    0    0 -0.99635332592E+01 -0.53812025989E+00  0.67431305524E+01  0.12042897412E+02  0.00000000000E+00 0.  1.
</event>
<event>
 8    1  0.1212194E-006  0.9118800E+02  0.7816164E-02  0.1184000E+00
        -11   -1    0    0    0    0  0.00000000000E+00  0.00000000000E+00  0.45593999997E+02  0.45594000000E+02  0.51100000000E-03 0. -1.
         11   -1    0    0    0    0 -0.00000000000E+00 -0.00000000000E+00 -0.45593999997E+02  0.45594000000E+02  0.51100000000E-03 0.  1.
         23    2    1    2    0    0 -0.44408920985E-15  0.00000000000E+00  0.00000000000E+00  0.91188000000E+02  0.91188000000E+02 0.  0.
    9900012    2    3    3    0    0 -0.37496495796E+01  0.28543482031E+02  0.22956213747E+02  0.54367109353E+02  0.40000057392E+02 0.  0.
        -12    1    3    3    0    0  0.37496495796E+01 -0.28543482031E+02 -0.22956213747E+02  0.36820890647E+02  0.00000000000E+00 0.  1.
         11    1    4    4    0    0 -0.42324515319E+01  0.20045101834E+02  0.29212016565E+02  0.35679989707E+02  0.51100000000E-03 0. -1.
        -11    1    4    4    0    0  0.69954190847E+01  0.59879447960E+01  0.15575275174E+00  0.92095401748E+01  0.51100000000E-03 0.  1.
         12    1    4    4    0    0 -0.65126171324E+01  0.25104354012E+01 -0.64115555689E+01  0.94775794710E+01  0.00000000000E+00 0. -1.
</event>
<event>
 8    1  0.1212194E-006  0.9118800E+02  0.7816164E-02  0.1184000E+00
        -11   -1    0    0    0    0  0.00000000000E+00  0.00000000000E+00  0.45593999997E+02  0.45594000000E+02  0.51100000000E-03 0.  1.
         11   -1    0    0    0    0 -0.00000000000E+00 -0.00000000000E+00 -0.45593999997E+02  0.45594000000E+02  0.51100000000E-03 0. -1.
         23    2    1    2    0    0 -0.71054273576E-14 -0.35527136788E-14 -0.44408920985E-15  0.91188000000E+02  0.91188000000E+02 0.  0.
    9900012    2    3    3    0    0 -0.35848517626E+02 -0.79363115392E+01  0.27700023993E+01  0.54367161197E+02  0.40000175581E+02 0.  0.
        -12    1    3    3    0    0  0.35848517626E+02  0.79363115392E+01 -0.27700023993E+01  0.36820838803E+02  0.00000000000E+00 0.  1.
         11    1    4    4    0    0 -0.23142369914E+02  0.15015419611E+01  0.80311448330E+00  0.23204932809E+02  0.51100000000E-03 0. -1.
        -11    1    4    4    0    0 -0.24774557453E+01  0.67676372634E+01  0.82878738541E+01  0.10983057606E+02  0.51100000000E-03 0.  1.
        -12    1    4    4    0    0 -0.10228691967E+02 -0.16205490764E+02 -0.63209859381E+01  0.20179170782E+02  0.00000000000E+00 0.  1.
</event>
<event>
 8    1  0.1212194E-006  0.9118800E+02  0.7816164E-02  0.1184000E+00
        -11   -1    0    0    0    0  0.00000000000E+00  0.00000000000E+00  0.45593999997E+02  0.45594000000E+02  0.51100000000E-03 0. -1.
         11   -1    0    0    0    0 -0.00000000000E+00 -0.00000000000E+00 -0.45593999997E+02  0.45594000000E+02  0.51100000000E-03 0.  1.
         23    2    1    2    0    0  0.00000000000E+00  0.35527136788E-14  0.00000000000E+00  0.91188000000E+02  0.91188000000E+02 0.  0.
    9900012    2    3    3    0    0 -0.68332620492E+01 -0.18848248693E+02  0.30884176774E+02  0.54367050473E+02  0.39999923164E+02 0.  0.
        -12    1    3    3    0    0  0.68332620492E+01  0.18848248693E+02 -0.30884176774E+02  0.36820949527E+02  0.00000000000E+00 0.  1.
         11    1    4    4    0    0 -0.95315270843E+01 -0.80177850634E+01  0.32806812892E+02  0.35091620912E+02  0.51100000000E-03 0. -1.
        -11    1    4    4    0    0  0.47907882541E+01  0.18075603847E+01  0.25328308532E+01  0.57126315330E+01  0.51100000000E-03 0.  1.
        -12    1    4    4    0    0 -0.20925232191E+01 -0.12638024015E+02 -0.44554669710E+01  0.13562798028E+02  0.00000000000E+00 0.  1.
</event>
<event>
 8    1  0.1212194E-006  0.9118800E+02  0.7816164E-02  0.1184000E+00
        -11   -1    0    0    0    0  0.00000000000E+00  0.00000000000E+00  0.45593999997E+02  0.45594000000E+02  0.51100000000E-03 0.  1.
         11   -1    0    0    0    0 -0.00000000000E+00 -0.00000000000E+00 -0.45593999997E+02  0.45594000000E+02  0.51100000000E-03 0. -1.
         23    2    1    2    0    0  0.00000000000E+00  0.00000000000E+00  0.00000000000E+00  0.91188000000E+02  0.91188000000E+02 0.  0.
    9900012    2    3    3    0    0  0.29085063403E+02 -0.17156886993E+02  0.14679345601E+02  0.54367043036E+02  0.39999906209E+02 0.  0.
        -12    1    3    3    0    0 -0.29085063403E+02  0.17156886993E+02 -0.14679345601E+02  0.36820956964E+02  0.00000000000E+00 0.  1.
         11    1    4    4    0    0  0.49263589166E+01 -0.84748465700E+01 -0.92574246877E+01  0.13483024463E+02  0.51100000000E-03 0. -1.
        -11    1    4    4    0    0  0.26614290282E+02 -0.10803780112E+02  0.17391431897E+02  0.33578326575E+02  0.51100000000E-03 0.  1.
        -12    1    4    4    0    0 -0.24555857950E+01  0.21217396892E+01  0.65453383916E+01  0.73056919977E+01  0.00000000000E+00 0.  1.
</event>
<event>
 8    1  0.1212194E-006  0.9118800E+02  0.7816164E-02  0.1184000E+00
        -11   -1    0    0    0    0  0.00000000000E+00  0.00000000000E+00  0.45593999997E+02  0.45594000000E+02  0.51100000000E-03 0. -1.
         11   -1    0    0    0    0 -0.00000000000E+00 -0.00000000000E+00 -0.45593999997E+02  0.45594000000E+02  0.51100000000E-03 0.  1.
         23    2    1    2    0    0  0.00000000000E+00  0.35527136788E-14  0.00000000000E+00  0.91188000000E+02  0.91188000000E+02 0.  0.
    9900012    2    3    3    0    0  0.18717226671E+02 -0.26626622662E+02 -0.17218210011E+02  0.54367104239E+02  0.40000045735E+02 0.  0.
         12    1    3    3    0    0 -0.18717226671E+02  0.26626622662E+02  0.17218210011E+02  0.36820895761E+02  0.00000000000E+00 0. -1.
         11    1    4    4    0    0  0.12484436422E+02  0.19549946744E+00 -0.19900739025E+01  0.12643566238E+02  0.51100000000E-03 0. -1.
        -11    1    4    4    0    0  0.12562257189E+02 -0.17569482314E+02 -0.20096205293E+02  0.29501770827E+02  0.51100000000E-03 0.  1.
         12    1    4    4    0    0 -0.63294669401E+01 -0.92526398151E+01  0.48680691845E+01  0.12221767175E+02  0.00000000000E+00 0. -1.
</event>
<event>
 8    1  0.1212194E-006  0.9118800E+02  0.7816164E-02  0.1184000E+00
        -11   -1    0    0    0    0  0.00000000000E+00  0.00000000000E+00  0.45593999997E+02  0.45594000000E+02  0.51100000000E-03 0. -1.
         11   -1    0    0    0    0 -0.00000000000E+00 -0.00000000000E+00 -0.45593999997E+02  0.45594000000E+02  0.51100000000E-03 0.  1.
         23    2    1    2    0    0  0.00000000000E+00  0.00000000000E+00 -0.17763568394E-14  0.91188000000E+02  0.91188000000E+02 0.  0.
    9900012    2    3    3    0    0  0.28417847931E+02 -0.19899667913E+02  0.12337296093E+02  0.54367085577E+02  0.40000003189E+02 0.  0.
        -12    1    3    3    0    0 -0.28417847931E+02  0.19899667913E+02 -0.12337296093E+02  0.36820914423E+02  0.00000000000E+00 0.  1.
         11    1    4    4    0    0  0.66391175446E+01 -0.14683331830E+02  0.31333786078E+01  0.16416338726E+02  0.51100000000E-03 0. -1.
        -11    1    4    4    0    0  0.14365464127E+02  0.78566255297E+01  0.14645041819E+02  0.21967484481E+02  0.51100000000E-03 0.  1.
         12    1    4    4    0    0  0.74132662596E+01 -0.13072961613E+02 -0.54411243338E+01  0.15983262370E+02  0.00000000000E+00 0. -1.
</event>
<event>
 8    1  0.1212194E-006  0.9118800E+02  0.7816164E-02  0.1184000E+00
        -11   -1    0    0    0    0  0.00000000000E+00  0.00000000000E+00  0.45593999997E+02  0.45594000000E+02  0.51100000000E-03 0. -1.
         11   -1    0    0    0    0 -0.00000000000E+00 -0.00000000000E+00 -0.45593999997E+02  0.45594000000E+02  0.51100000000E-03 0.  1.
         23    2    1    2    0    0 -0.71054273576E-14  0.17763568394E-14  0.00000000000E+00  0.91188000000E+02  0.91188000000E+02 0.  0.
    9900012    2    3    3    0    0  0.34420259929E+02  0.11793562790E+02 -0.56513163771E+01  0.54367084834E+02  0.40000001497E+02 0.  0.
        -12    1    3    3    0    0 -0.34420259929E+02 -0.11793562790E+02  0.56513163771E+01  0.36820915166E+02  0.00000000000E+00 0.  1.
         11    1    4    4    0    0  0.26437725775E+02 -0.55301538810E+01  0.99612861197E+01  0.28788247038E+02  0.51100000000E-03 0. -1.
        -11    1    4    4    0    0  0.83810751830E+01  0.11777072490E+02 -0.94075292144E+01  0.17246549332E+02  0.51100000000E-03 0.  1.
         12    1    4    4    0    0 -0.39854102971E+00  0.55466441805E+01 -0.62050732824E+01  0.83322884646E+01  0.00000000000E+00 0. -1.
</event>
<event>
 8    1  0.1212194E-006  0.9118800E+02  0.7816164E-02  0.1184000E+00
        -11   -1    0    0    0    0  0.00000000000E+00  0.00000000000E+00  0.45593999997E+02  0.45594000000E+02  0.51100000000E-03 0. -1.
         11   -1    0    0    0    0 -0.00000000000E+00 -0.00000000000E+00 -0.45593999997E+02  0.45594000000E+02  0.51100000000E-03 0.  1.
         23    2    1    2    0    0  0.00000000000E+00 -0.17763568394E-14 -0.35527136788E-14  0.91188000000E+02  0.91188000000E+02 0.  0.
    9900012    2    3    3    0    0  0.13626464086E+02  0.15108560842E+02  0.30689274514E+02  0.54367072467E+02  0.39999973303E+02 0.  0.
        -12    1    3    3    0    0 -0.13626464086E+02 -0.15108560842E+02 -0.30689274514E+02  0.36820927533E+02  0.00000000000E+00 0.  1.
         11    1    4    4    0    0 -0.40771541400E+01 -0.14887430266E+01 -0.16988724729E+01  0.46610845971E+01  0.51100000000E-03 0. -1.
        -11    1    4    4    0    0  0.17513568467E+02  0.30111621931E+01  0.39728992083E+01  0.18209231356E+02  0.51100000000E-03 0.  1.
         12    1    4    4    0    0  0.19004975870E+00  0.13586141675E+02  0.28415247779E+02  0.31496756513E+02  0.00000000000E+00 0. -1.
</event>
<event>
 8    1  0.1212194E-006  0.9118800E+02  0.7816164E-02  0.1184000E+00
        -11   -1    0    0    0    0  0.00000000000E+00  0.00000000000E+00  0.45593999997E+02  0.45594000000E+02  0.51100000000E-03 0.  1.
         11   -1    0    0    0    0 -0.00000000000E+00 -0.00000000000E+00 -0.45593999997E+02  0.45594000000E+02  0.51100000000E-03 0. -1.
         23    2    1    2    0    0  0.00000000000E+00  0.00000000000E+00  0.88817841970E-15  0.91188000000E+02  0.91188000000E+02 0.  0.
    9900012    2    3    3    0    0  0.15114389034E+02  0.32828837872E+02 -0.70429128228E+01  0.54367082400E+02  0.39999995946E+02 0.  0.
        -12    1    3    3    0    0 -0.15114389034E+02 -0.32828837872E+02  0.70429128228E+01  0.36820917600E+02  0.00000000000E+00 0.  1.
         11    1    4    4    0    0  0.84107261659E+01  0.15432566546E+02 -0.14349848702E+02  0.22689702133E+02  0.51100000000E-03 0. -1.
        -11    1    4    4    0    0 -0.65379857986E+01  0.36375269640E+01  0.98971228942E+01  0.12406849018E+02  0.51100000000E-03 0.  1.
         12    1    4    4    0    0  0.13241648667E+02  0.13758744362E+02 -0.25901870149E+01  0.19270531248E+02  0.00000000000E+00 0. -1.
</event>
<event>
 8    1  0.1212194E-006  0.9118800E+02  0.7816164E-02  0.1184000E+00
        -11   -1    0    0    0    0  0.00000000000E+00  0.00000000000E+00  0.45593999997E+02  0.45594000000E+02  0.51100000000E-03 0. -1.
         11   -1    0    0    0    0 -0.00000000000E+00 -0.00000000000E+00 -0.45593999997E+02  0.45594000000E+02  0.51100000000E-03 0.  1.
         23    2    1    2    0    0  0.17763568394E-14  0.00000000000E+00  0.00000000000E+00  0.91188000000E+02  0.91188000000E+02 0.  0.
    9900012    2    3    3    0    0 -0.14187431161E+02 -0.93657289416E+00  0.33964956082E+02  0.54367100862E+02  0.40000038034E+02 0.  0.
        -12    1    3    3    0    0  0.14187431161E+02  0.93657289416E+00 -0.33964956082E+02  0.36820899138E+02  0.00000000000E+00 0.  1.
         11    1    4    4    0    0 -0.13700509885E+02  0.48507771882E+01  0.11491745743E+02  0.18528200963E+02  0.51100000000E-03 0. -1.
        -11    1    4    4    0    0 -0.22357318505E+01 -0.57475221560E+01 -0.52265909305E+01  0.80839198943E+01  0.51100000000E-03 0.  1.
        -12    1    4    4    0    0  0.17488105746E+01 -0.39827926313E-01  0.27699801270E+02  0.27754980005E+02  0.00000000000E+00 0.  1.
</event>
<event>
 8    1  0.1212194E-006  0.9118800E+02  0.7816164E-02  0.1184000E+00
        -11   -1    0    0    0    0  0.00000000000E+00  0.00000000000E+00  0.45593999997E+02  0.45594000000E+02  0.51100000000E-03 0. -1.
         11   -1    0    0    0    0 -0.00000000000E+00 -0.00000000000E+00 -0.45593999997E+02  0.45594000000E+02  0.51100000000E-03 0.  1.
         23    2    1    2    0    0 -0.71054273576E-14  0.00000000000E+00  0.00000000000E+00  0.91188000000E+02  0.91188000000E+02 0.  0.
    9900012    2    3    3    0    0  0.32519149264E+02  0.17148526131E+02 -0.20521634255E+01  0.54367103867E+02  0.40000044886E+02 0.  0.
         12    1    3    3    0    0 -0.32519149264E+02 -0.17148526131E+02  0.20521634255E+01  0.36820896133E+02  0.00000000000E+00 0. -1.
         11    1    4    4    0    0  0.10885665596E+01 -0.10474527403E+02 -0.29257675755E+01  0.10929813248E+02  0.51100000000E-03 0. -1.
        -11    1    4    4    0    0  0.16673809589E+02  0.17218951046E+02  0.59209748019E+01  0.24689393354E+02  0.51100000000E-03 0.  1.
        -12    1    4    4    0    0  0.14756773115E+02  0.10404102488E+02 -0.50473706519E+01  0.18747897265E+02  0.00000000000E+00 0.  1.
</event>
<event>
 8    1  0.1212194E-006  0.9118800E+02  0.7816164E-02  0.1184000E+00
        -11   -1    0    0    0    0  0.00000000000E+00  0.00000000000E+00  0.45593999997E+02  0.45594000000E+02  0.51100000000E-03 0. -1.
         11   -1    0    0    0    0 -0.00000000000E+00 -0.00000000000E+00 -0.45593999997E+02  0.45594000000E+02  0.51100000000E-03 0.  1.
         23    2    1    2    0    0 -0.88817841970E-15  0.00000000000E+00 -0.35527136788E-14  0.91188000000E+02  0.91188000000E+02 0.  0.
    9900012    2    3    3    0    0 -0.56148970601E+01 -0.32775405404E+02 -0.15812019008E+02  0.54367160609E+02  0.40000174239E+02 0.  0.
         12    1    3    3    0    0  0.56148970601E+01  0.32775405404E+02  0.15812019008E+02  0.36820839391E+02  0.00000000000E+00 0. -1.
         11    1    4    4    0    0  0.67700167417E+01 -0.11805991366E+02 -0.43861939010E+01  0.14298715188E+02  0.51100000000E-03 0. -1.
        -11    1    4    4    0    0 -0.15961693192E+01 -0.24346821843E+02 -0.58587507935E+00  0.24406120958E+02  0.51100000000E-03 0.  1.
        -12    1    4    4    0    0 -0.10788744483E+02  0.33774078051E+01 -0.10839950028E+02  0.15662324463E+02  0.00000000000E+00 0.  1.
</event>
<event>
 8    1  0.1212194E-006  0.9118800E+02  0.7816164E-02  0.1184000E+00
        -11   -1    0    0    0    0  0.00000000000E+00  0.00000000000E+00  0.45593999997E+02  0.45594000000E+02  0.51100000000E-03 0. -1.
         11   -1    0    0    0    0 -0.00000000000E+00 -0.00000000000E+00 -0.45593999997E+02  0.45594000000E+02  0.51100000000E-03 0.  1.
         23    2    1    2    0    0  0.00000000000E+00 -0.35527136788E-14  0.00000000000E+00  0.91188000000E+02  0.91188000000E+02 0.  0.
    9900012    2    3    3    0    0 -0.23321155255E+02  0.24078227110E+02 -0.15236220268E+02  0.54367085953E+02  0.40000004048E+02 0.  0.
         12    1    3    3    0    0  0.23321155255E+02 -0.24078227110E+02  0.15236220268E+02  0.36820914047E+02  0.00000000000E+00 0. -1.
         11    1    4    4    0    0 -0.70399849305E+01  0.15438815563E+02 -0.52638766141E+01  0.17765888976E+02  0.51100000000E-03 0. -1.
        -11    1    4    4    0    0 -0.12286151040E+02 -0.36956939622E+01 -0.17430532490E+02  0.21643269725E+02  0.51100000000E-03 0.  1.
        -12    1    4    4    0    0 -0.39950192845E+01  0.12335105509E+02  0.74581888358E+01  0.14957927253E+02  0.00000000000E+00 0.  1.
</event>
<event>
 8    1  0.1212194E-006  0.9118800E+02  0.7816164E-02  0.1184000E+00
        -11   -1    0    0    0    0  0.00000000000E+00  0.00000000000E+00  0.45593999997E+02  0.45594000000E+02  0.51100000000E-03 0.  1.
         11   -1    0    0    0    0 -0.00000000000E+00 -0.00000000000E+00 -0.45593999997E+02  0.45594000000E+02  0.51100000000E-03 0. -1.
         23    2    1    2    0    0  0.00000000000E+00 -0.35527136788E-14  0.00000000000E+00  0.91188000000E+02  0.91188000000E+02 0.  0.
    9900012    2    3    3    0    0 -0.18598832217E+02 -0.26196075718E+02  0.17989679758E+02  0.54367088541E+02  0.40000009947E+02 0.  0.
         12    1    3    3    0    0  0.18598832217E+02  0.26196075718E+02 -0.17989679758E+02  0.36820911459E+02  0.00000000000E+00 0. -1.
         11    1    4    4    0    0  0.10458179393E+01 -0.25025894163E+02  0.58996567390E+01  0.25733151065E+02  0.51100000000E-03 0. -1.
        -11    1    4    4    0    0 -0.18135145878E+02 -0.72880864650E+01  0.10249574851E+02  0.22069288734E+02  0.51100000000E-03 0.  1.
        -12    1    4    4    0    0 -0.15095042791E+01  0.61179049098E+01  0.18404481679E+01  0.65646487425E+01  0.00000000000E+00 0.  1.
</event>
<event>
 8    1  0.1212194E-006  0.9118800E+02  0.7816164E-02  0.1184000E+00
        -11   -1    0    0    0    0  0.00000000000E+00  0.00000000000E+00  0.45593999997E+02  0.45594000000E+02  0.51100000000E-03 0.  1.
         11   -1    0    0    0    0 -0.00000000000E+00 -0.00000000000E+00 -0.45593999997E+02  0.45594000000E+02  0.51100000000E-03 0. -1.
         23    2    1    2    0    0  0.00000000000E+00 -0.66613381478E-15  0.35527136788E-14  0.91188000000E+02  0.91188000000E+02 0.  0.
    9900012    2    3    3    0    0 -0.28703809612E+02  0.10791549316E+01 -0.23037063657E+02  0.54367087959E+02  0.40000008620E+02 0.  0.
        -12    1    3    3    0    0  0.28703809612E+02 -0.10791549316E+01  0.23037063657E+02  0.36820912041E+02  0.00000000000E+00 0.  1.
         11    1    4    4    0    0 -0.16877362918E+02  0.48142057258E+01 -0.18969750976E+02  0.25843246858E+02  0.51100000000E-03 0. -1.
        -11    1    4    4    0    0 -0.18495508933E+02 -0.45188215947E+01  0.24130897393E+01  0.19191836850E+02  0.51100000000E-03 0.  1.
        -12    1    4    4    0    0  0.66690622393E+01  0.78377080052E+00 -0.64804024199E+01  0.93320042511E+01  0.00000000000E+00 0.  1.
</event>
<event>
 8    1  0.1212194E-006  0.9118800E+02  0.7816164E-02  0.1184000E+00
        -11   -1    0    0    0    0  0.00000000000E+00  0.00000000000E+00  0.45593999997E+02  0.45594000000E+02  0.51100000000E-03 0.  1.
         11   -1    0    0    0    0 -0.00000000000E+00 -0.00000000000E+00 -0.45593999997E+02  0.45594000000E+02  0.51100000000E-03 0. -1.
         23    2    1    2    0    0  0.00000000000E+00  0.00000000000E+00  0.11102230246E-14  0.91188000000E+02  0.91188000000E+02 0.  0.
    9900012    2    3    3    0    0  0.24546048541E+02 -0.27406249689E+02 -0.14728299618E+01  0.54367078650E+02  0.39999987398E+02 0.  0.
        -12    1    3    3    0    0 -0.24546048541E+02  0.27406249689E+02  0.14728299618E+01  0.36820921350E+02  0.00000000000E+00 0.  1.
         11    1    4    4    0    0  0.52123034211E+01 -0.19240913300E+02 -0.81296318854E+01  0.21528394423E+02  0.51100000000E-03 0.  1.
        -11    1    4    4    0    0 -0.37781412766E+01  0.21895206854E+01 -0.34558477446E+01  0.55687733149E+01  0.51100000000E-03 0. -1.
         12    1    4    4    0    0  0.23111886397E+02 -0.10354857074E+02  0.10112649668E+02  0.27269910912E+02  0.00000000000E+00 0. -1.
</event>
<event>
 8    1  0.1212194E-006  0.9118800E+02  0.7816164E-02  0.1184000E+00
        -11   -1    0    0    0    0  0.00000000000E+00  0.00000000000E+00  0.45593999997E+02  0.45594000000E+02  0.51100000000E-03 0.  1.
         11   -1    0    0    0    0 -0.00000000000E+00 -0.00000000000E+00 -0.45593999997E+02  0.45594000000E+02  0.51100000000E-03 0. -1.
         23    2    1    2    0    0  0.00000000000E+00  0.00000000000E+00 -0.11102230246E-14  0.91188000000E+02  0.91188000000E+02 0.  0.
    9900012    2    3    3    0    0 -0.32238973685E+02  0.17704292084E+02  0.17282277288E+01  0.54367079947E+02  0.39999990356E+02 0.  0.
        -12    1    3    3    0    0  0.32238973685E+02 -0.17704292084E+02 -0.17282277288E+01  0.36820920053E+02  0.00000000000E+00 0.  1.
         11    1    4    4    0    0 -0.12340047929E+00 -0.22698784484E+01  0.70727601645E+01  0.74290990338E+01  0.51100000000E-03 0. -1.
        -11    1    4    4    0    0 -0.48052445935E+01  0.22462611469E+01  0.97115533346E+01  0.11065727865E+02  0.51100000000E-03 0.  1.
         12    1    4    4    0    0 -0.27310328612E+02  0.17727909386E+02 -0.15056085770E+02  0.35872253049E+02  0.00000000000E+00 0. -1.
</event>
<event>
 8    1  0.1212194E-006  0.9118800E+02  0.7816164E-02  0.1184000E+00
        -11   -1    0    0    0    0  0.00000000000E+00  0.00000000000E+00  0.45593999997E+02  0.45594000000E+02  0.51100000000E-03 0.  1.
         11   -1    0    0    0    0 -0.00000000000E+00 -0.00000000000E+00 -0.45593999997E+02  0.45594000000E+02  0.51100000000E-03 0. -1.
         23    2    1    2    0    0  0.00000000000E+00  0.35527136788E-14 -0.35527136788E-14  0.91188000000E+02  0.91188000000E+02 0.  0.
    9900012    2    3    3    0    0 -0.19226677100E+02 -0.25699680783E+02  0.18045539926E+02  0.54367079101E+02  0.39999988426E+02 0.  0.
         12    1    3    3    0    0  0.19226677100E+02  0.25699680783E+02 -0.18045539926E+02  0.36820920899E+02  0.00000000000E+00 0. -1.
         11    1    4    4    0    0  0.20118033304E+01 -0.25797282988E+01  0.32565248885E+01  0.46159836813E+01  0.51100000000E-03 0. -1.
        -11    1    4    4    0    0  0.26997794821E+01 -0.17630554144E+02 -0.46467285792E+01  0.18431422501E+02  0.51100000000E-03 0.  1.
         12    1    4    4    0    0 -0.23938259913E+02 -0.54893983400E+01  0.19435743617E+02  0.31319672918E+02  0.00000000000E+00 0. -1.
</event>
<event>
 8    1  0.1212194E-006  0.9118800E+02  0.7816164E-02  0.1184000E+00
        -11   -1    0    0    0    0  0.00000000000E+00  0.00000000000E+00  0.45593999997E+02  0.45594000000E+02  0.51100000000E-03 0. -1.
         11   -1    0    0    0    0 -0.00000000000E+00 -0.00000000000E+00 -0.45593999997E+02  0.45594000000E+02  0.51100000000E-03 0.  1.
         23    2    1    2    0    0  0.00000000000E+00 -0.88817841970E-15  0.71054273576E-14  0.91188000000E+02  0.91188000000E+02 0.  0.
    9900012    2    3    3    0    0 -0.24850377982E+01 -0.55215371771E+01  0.36319664828E+02  0.54367070641E+02  0.39999969140E+02 0.  0.
        -12    1    3    3    0    0  0.24850377982E+01  0.55215371771E+01 -0.36319664828E+02  0.36820929359E+02  0.00000000000E+00 0.  1.
         11    1    4    4    0    0 -0.74654124844E+01  0.11177870109E+02  0.31100303760E+02  0.33880762358E+02  0.51100000000E-03 0. -1.
        -11    1    4    4    0    0  0.44255491608E+01 -0.14378313871E+02  0.33226699999E+00  0.15047650872E+02  0.51100000000E-03 0.  1.
         12    1    4    4    0    0  0.55482552533E+00 -0.23210934149E+01  0.48870940684E+01  0.54386574113E+01  0.00000000000E+00 0. -1.
</event>
<event>
 8    1  0.1212194E-006  0.9118800E+02  0.7816164E-02  0.1184000E+00
        -11   -1    0    0    0    0  0.00000000000E+00  0.00000000000E+00  0.45593999997E+02  0.45594000000E+02  0.51100000000E-03 0. -1.
         11   -1    0    0    0    0 -0.00000000000E+00 -0.00000000000E+00 -0.45593999997E+02  0.45594000000E+02  0.51100000000E-03 0.  1.
         23    2    1    2    0    0  0.00000000000E+00 -0.17763568394E-14  0.71054273576E-14  0.91188000000E+02  0.91188000000E+02 0.  0.
    9900012    2    3    3    0    0  0.25414153930E+02 -0.82791528598E+01  0.25325008765E+02  0.54367086636E+02  0.40000005604E+02 0.  0.
        -12    1    3    3    0    0 -0.25414153930E+02  0.82791528598E+01 -0.25325008765E+02  0.36820913364E+02  0.00000000000E+00 0.  1.
         11    1    4    4    0    0  0.12388444770E+02  0.94437307509E+01  0.54152168167E+01  0.16491882481E+02  0.51100000000E-03 0. -1.
        -11    1    4    4    0    0 -0.97601763891E+00 -0.10854539811E+02 -0.19003803380E+01  0.11062779516E+02  0.51100000000E-03 0.  1.
        -12    1    4    4    0    0  0.14001726798E+02 -0.68683437997E+01  0.21810172286E+02  0.26812424639E+02  0.00000000000E+00 0.  1.
</event>
<event>
 8    1  0.1212194E-006  0.9118800E+02  0.7816164E-02  0.1184000E+00
        -11   -1    0    0    0    0  0.00000000000E+00  0.00000000000E+00  0.45593999997E+02  0.45594000000E+02  0.51100000000E-03 0.  1.
         11   -1    0    0    0    0 -0.00000000000E+00 -0.00000000000E+00 -0.45593999997E+02  0.45594000000E+02  0.51100000000E-03 0. -1.
         23    2    1    2    0    0  0.13322676296E-14  0.00000000000E+00 -0.35527136788E-14  0.91188000000E+02  0.91188000000E+02 0.  0.
    9900012    2    3    3    0    0  0.10876165395E+01 -0.32590352148E+02 -0.17101623152E+02  0.54367089129E+02  0.40000011288E+02 0.  0.
        -12    1    3    3    0    0 -0.10876165395E+01  0.32590352148E+02  0.17101623152E+02  0.36820910871E+02  0.00000000000E+00 0.  1.
         11    1    4    4    0    0 -0.11937192196E+02 -0.11414520240E+02 -0.16496268670E+01  0.16598466764E+02  0.51100000000E-03 0. -1.
        -11    1    4    4    0    0 -0.47601513573E+01  0.20698073480E+01 -0.25234152728E+01  0.57715481721E+01  0.51100000000E-03 0.  1.
         12    1    4    4    0    0  0.17784960093E+02 -0.23245639256E+02 -0.12928581013E+02  0.31997074194E+02  0.00000000000E+00 0. -1.
</event>
<event>
 8    1  0.1212194E-006  0.9118800E+02  0.7816164E-02  0.1184000E+00
        -11   -1    0    0    0    0  0.00000000000E+00  0.00000000000E+00  0.45593999997E+02  0.45594000000E+02  0.51100000000E-03 0.  1.
         11   -1    0    0    0    0 -0.00000000000E+00 -0.00000000000E+00 -0.45593999997E+02  0.45594000000E+02  0.51100000000E-03 0. -1.
         23    2    1    2    0    0  0.00000000000E+00  0.88817841970E-15  0.00000000000E+00  0.91188000000E+02  0.91188000000E+02 0.  0.
    9900012    2    3    3    0    0 -0.32450732829E+02  0.28651244560E+01  0.17161602260E+02  0.54367087581E+02  0.40000007757E+02 0.  0.
        -12    1    3    3    0    0  0.32450732829E+02 -0.28651244560E+01 -0.17161602260E+02  0.36820912419E+02  0.00000000000E+00 0.  1.
         11    1    4    4    0    0 -0.16159749062E+02  0.50841428060E+01  0.12744988011E+02  0.21199545219E+02  0.51100000000E-03 0.  1.
        -11    1    4    4    0    0 -0.61177021758E+01 -0.15178373589E+02  0.29305517002E+01  0.16625204908E+02  0.51100000000E-03 0. -1.
         12    1    4    4    0    0 -0.10173281591E+02  0.12959355239E+02  0.14860625487E+01  0.16542337454E+02  0.00000000000E+00 0. -1.
</event>
<event>
 8    1  0.1212194E-006  0.9118800E+02  0.7816164E-02  0.1184000E+00
        -11   -1    0    0    0    0  0.00000000000E+00  0.00000000000E+00  0.45593999997E+02  0.45594000000E+02  0.51100000000E-03 0. -1.
         11   -1    0    0    0    0 -0.00000000000E+00 -0.00000000000E+00 -0.45593999997E+02  0.45594000000E+02  0.51100000000E-03 0.  1.
         23    2    1    2    0    0  0.00000000000E+00  0.17763568394E-14  0.00000000000E+00  0.91188000000E+02  0.91188000000E+02 0.  0.
    9900012    2    3    3    0    0 -0.21462238763E+02  0.11958291029E+02  0.27425344243E+02  0.54367110224E+02  0.40000059377E+02 0.  0.
        -12    1    3    3    0    0  0.21462238763E+02 -0.11958291029E+02 -0.27425344243E+02  0.36820889776E+02  0.00000000000E+00 0.  1.
         11    1    4    4    0    0 -0.90361917626E+00  0.19408841495E+01  0.16641323239E+02  0.16778474255E+02  0.51100000000E-03 0. -1.
        -11    1    4    4    0    0 -0.20861383241E+02  0.42678040138E-01 -0.24597982064E+01  0.21005945340E+02  0.51100000000E-03 0.  1.
        -12    1    4    4    0    0  0.30276365369E+00  0.99747288396E+01  0.13243819210E+02  0.16582690630E+02  0.00000000000E+00 0.  1.
</event>
<event>
 8    1  0.1212194E-006  0.9118800E+02  0.7816164E-02  0.1184000E+00
        -11   -1    0    0    0    0  0.00000000000E+00  0.00000000000E+00  0.45593999997E+02  0.45594000000E+02  0.51100000000E-03 0.  1.
         11   -1    0    0    0    0 -0.00000000000E+00 -0.00000000000E+00 -0.45593999997E+02  0.45594000000E+02  0.51100000000E-03 0. -1.
         23    2    1    2    0    0  0.13322676296E-14  0.35527136788E-14  0.00000000000E+00  0.91188000000E+02  0.91188000000E+02 0.  0.
    9900012    2    3    3    0    0  0.31512207550E+01  0.95819867534E+01 -0.35412376025E+02  0.54367067935E+02  0.39999962971E+02 0.  0.
        -12    1    3    3    0    0 -0.31512207550E+01 -0.95819867534E+01  0.35412376025E+02  0.36820932065E+02  0.00000000000E+00 0.  1.
         11    1    4    4    0    0  0.82113826279E+01 -0.82845122475E+01 -0.20458911704E+02  0.23550520508E+02  0.51100000000E-03 0.  1.
        -11    1    4    4    0    0 -0.11399843668E+02  0.17111156217E+02 -0.11394407661E+02  0.23507033606E+02  0.51100000000E-03 0. -1.
         12    1    4    4    0    0  0.63396817955E+01  0.75534278409E+00 -0.35590566606E+01  0.73095138212E+01  0.00000000000E+00 0. -1.
</event>
<event>
 8    1  0.1212194E-006  0.9118800E+02  0.7816164E-02  0.1184000E+00
        -11   -1    0    0    0    0  0.00000000000E+00  0.00000000000E+00  0.45593999997E+02  0.45594000000E+02  0.51100000000E-03 0. -1.
         11   -1    0    0    0    0 -0.00000000000E+00 -0.00000000000E+00 -0.45593999997E+02  0.45594000000E+02  0.51100000000E-03 0.  1.
         23    2    1    2    0    0  0.00000000000E+00  0.00000000000E+00  0.00000000000E+00  0.91188000000E+02  0.91188000000E+02 0.  0.
    9900012    2    3    3    0    0 -0.28371351068E+02 -0.16455191928E+02 -0.16735386644E+02  0.54367081095E+02  0.39999992973E+02 0.  0.
         12    1    3    3    0    0  0.28371351068E+02  0.16455191928E+02  0.16735386644E+02  0.36820918905E+02  0.00000000000E+00 0. -1.
         11    1    4    4    0    0 -0.95486751444E+01 -0.14795854703E+02 -0.23778553800E+01  0.17769319342E+02  0.51100000000E-03 0. -1.
        -11    1    4    4    0    0 -0.29498038654E+01  0.11885294229E+02 -0.85597288623E+01  0.14940900917E+02  0.51100000000E-03 0.  1.
        -12    1    4    4    0    0 -0.15872872059E+02 -0.13544631454E+02 -0.57978024020E+01  0.21656860837E+02  0.00000000000E+00 0.  1.
</event>
<event>
 8    1  0.1212194E-006  0.9118800E+02  0.7816164E-02  0.1184000E+00
        -11   -1    0    0    0    0  0.00000000000E+00  0.00000000000E+00  0.45593999997E+02  0.45594000000E+02  0.51100000000E-03 0.  1.
         11   -1    0    0    0    0 -0.00000000000E+00 -0.00000000000E+00 -0.45593999997E+02  0.45594000000E+02  0.51100000000E-03 0. -1.
         23    2    1    2    0    0  0.00000000000E+00  0.00000000000E+00  0.71054273576E-14  0.91188000000E+02  0.91188000000E+02 0.  0.
    9900012    2    3    3    0    0 -0.30884511350E+02  0.91715420621E+01  0.17827214889E+02  0.54367084533E+02  0.40000000811E+02 0.  0.
         12    1    3    3    0    0  0.30884511350E+02 -0.91715420621E+01 -0.17827214889E+02  0.36820915467E+02  0.00000000000E+00 0. -1.
         11    1    4    4    0    0 -0.23439818700E+02  0.12245634789E+02 -0.28489756189E+01  0.26598822050E+02  0.51100000000E-03 0. -1.
        -11    1    4    4    0    0  0.37461646528E+01 -0.55908082414E+01  0.51998596597E+01  0.85046709014E+01  0.51100000000E-03 0.  1.
         12    1    4    4    0    0 -0.11190857302E+02  0.25167155149E+01  0.15476330848E+02  0.19263591582E+02  0.00000000000E+00 0. -1.
</event>
<event>
 8    1  0.1212194E-006  0.9118800E+02  0.7816164E-02  0.1184000E+00
        -11   -1    0    0    0    0  0.00000000000E+00  0.00000000000E+00  0.45593999997E+02  0.45594000000E+02  0.51100000000E-03 0.  1.
         11   -1    0    0    0    0 -0.00000000000E+00 -0.00000000000E+00 -0.45593999997E+02  0.45594000000E+02  0.51100000000E-03 0. -1.
         23    2    1    2    0    0  0.00000000000E+00  0.00000000000E+00  0.00000000000E+00  0.91188000000E+02  0.91188000000E+02 0.  0.
    9900012    2    3    3    0    0  0.58457449045E+01 -0.32753258608E+02 -0.15774372736E+02  0.54367088575E+02  0.40000010024E+02 0.  0.
        -12    1    3    3    0    0 -0.58457449045E+01  0.32753258608E+02  0.15774372736E+02  0.36820911425E+02  0.00000000000E+00 0.  1.
         11    1    4    4    0    0  0.15638245358E+01 -0.10013224350E+02 -0.13460245532E+02  0.16848988667E+02  0.51100000000E-03 0. -1.
        -11    1    4    4    0    0  0.43990667306E+01 -0.29930669418E+02 -0.20520786191E+01  0.30321737860E+02  0.51100000000E-03 0.  1.
        -12    1    4    4    0    0 -0.11714636193E+00  0.71906351595E+01 -0.26204858512E+00  0.71963620482E+01  0.00000000000E+00 0.  1.
</event>
<event>
 8    1  0.1212194E-006  0.9118800E+02  0.7816164E-02  0.1184000E+00
        -11   -1    0    0    0    0  0.00000000000E+00  0.00000000000E+00  0.45593999997E+02  0.45594000000E+02  0.51100000000E-03 0. -1.
         11   -1    0    0    0    0 -0.00000000000E+00 -0.00000000000E+00 -0.45593999997E+02  0.45594000000E+02  0.51100000000E-03 0.  1.
         23    2    1    2    0    0  0.00000000000E+00  0.00000000000E+00  0.00000000000E+00  0.91188000000E+02  0.91188000000E+02 0.  0.
    9900012    2    3    3    0    0 -0.23658676141E+02  0.39625429103E+01  0.27934671279E+02  0.54367074393E+02  0.39999977693E+02 0.  0.
        -12    1    3    3    0    0  0.23658676141E+02 -0.39625429103E+01 -0.27934671279E+02  0.36820925607E+02  0.00000000000E+00 0.  1.
         11    1    4    4    0    0 -0.90032348163E+01  0.51532582418E+01  0.20461115422E+02  0.22940609239E+02  0.51100000000E-03 0. -1.
        -11    1    4    4    0    0  0.67480000500E+01  0.31074037044E+01 -0.19003260776E+01  0.76682919819E+01  0.51100000000E-03 0.  1.
        -12    1    4    4    0    0 -0.21403441375E+02 -0.42981190360E+01  0.93738819347E+01  0.23758173172E+02  0.00000000000E+00 0.  1.
</event>
<event>
 8    1  0.1212194E-006  0.9118800E+02  0.7816164E-02  0.1184000E+00
        -11   -1    0    0    0    0  0.00000000000E+00  0.00000000000E+00  0.45593999997E+02  0.45594000000E+02  0.51100000000E-03 0. -1.
         11   -1    0    0    0    0 -0.00000000000E+00 -0.00000000000E+00 -0.45593999997E+02  0.45594000000E+02  0.51100000000E-03 0.  1.
         23    2    1    2    0    0  0.00000000000E+00  0.00000000000E+00  0.00000000000E+00  0.91188000000E+02  0.91188000000E+02 0.  0.
    9900012    2    3    3    0    0  0.28310575137E+02  0.18714002008E+02  0.14285646776E+02  0.54367051620E+02  0.39999925779E+02 0.  0.
        -12    1    3    3    0    0 -0.28310575137E+02 -0.18714002008E+02 -0.14285646776E+02  0.36820948380E+02  0.00000000000E+00 0.  1.
         11    1    4    4    0    0  0.79039912843E+01  0.70612920194E+01  0.15180583318E+02  0.18514454713E+02  0.51100000000E-03 0. -1.
        -11    1    4    4    0    0  0.15087569393E+01 -0.51117881769E+01  0.75275609898E+01  0.92233887798E+01  0.51100000000E-03 0.  1.
         12    1    4    4    0    0  0.18897826914E+02  0.16764498166E+02 -0.84224975316E+01  0.26629208127E+02  0.00000000000E+00 0. -1.
</event>
<event>
 8    1  0.1212194E-006  0.9118800E+02  0.7816164E-02  0.1184000E+00
        -11   -1    0    0    0    0  0.00000000000E+00  0.00000000000E+00  0.45593999997E+02  0.45594000000E+02  0.51100000000E-03 0.  1.
         11   -1    0    0    0    0 -0.00000000000E+00 -0.00000000000E+00 -0.45593999997E+02  0.45594000000E+02  0.51100000000E-03 0. -1.
         23    2    1    2    0    0 -0.35527136788E-14 -0.88817841970E-15 -0.35527136788E-14  0.91188000000E+02  0.91188000000E+02 0.  0.
    9900012    2    3    3    0    0 -0.24869622310E+02 -0.44527654036E+01 -0.26785342307E+02  0.54367084802E+02  0.40000001422E+02 0.  0.
        -12    1    3    3    0    0  0.24869622310E+02  0.44527654036E+01  0.26785342307E+02  0.36820915198E+02  0.00000000000E+00 0.  1.
         11    1    4    4    0    0 -0.98779764222E+01 -0.11678473395E+02 -0.84408019461E+00  0.15319061024E+02  0.51100000000E-03 0. -1.
        -11    1    4    4    0    0 -0.86918386301E+01  0.11867552035E+02 -0.32767232890E+01  0.15070625927E+02  0.51100000000E-03 0.  1.
         12    1    4    4    0    0 -0.62998072574E+01 -0.46418440434E+01 -0.22664538823E+02  0.23977397850E+02  0.00000000000E+00 0. -1.
</event>
<event>
 8    1  0.1212194E-006  0.9118800E+02  0.7816164E-02  0.1184000E+00
        -11   -1    0    0    0    0  0.00000000000E+00  0.00000000000E+00  0.45593999997E+02  0.45594000000E+02  0.51100000000E-03 0.  1.
         11   -1    0    0    0    0 -0.00000000000E+00 -0.00000000000E+00 -0.45593999997E+02  0.45594000000E+02  0.51100000000E-03 0. -1.
         23    2    1    2    0    0 -0.35527136788E-14  0.00000000000E+00  0.00000000000E+00  0.91188000000E+02  0.91188000000E+02 0.  0.
    9900012    2    3    3    0    0  0.19883848614E+02 -0.25070837028E+02  0.18217147671E+02  0.54367098677E+02  0.40000033054E+02 0.  0.
         12    1    3    3    0    0 -0.19883848614E+02  0.25070837028E+02 -0.18217147671E+02  0.36820901323E+02  0.00000000000E+00 0. -1.
         11    1    4    4    0    0 -0.26859118317E+01 -0.11757820929E+02 -0.49937436019E+01  0.13053656606E+02  0.51100000000E-03 0. -1.
        -11    1    4    4    0    0 -0.25525822276E+00  0.48381706867E+01  0.48326485958E+01  0.68430654729E+01  0.51100000000E-03 0.  1.
         12    1    4    4    0    0  0.22825018668E+02 -0.18151186786E+02  0.18378242677E+02  0.34470376598E+02  0.00000000000E+00 0. -1.
</event>
<event>
 8    1  0.1212194E-006  0.9118800E+02  0.7816164E-02  0.1184000E+00
        -11   -1    0    0    0    0  0.00000000000E+00  0.00000000000E+00  0.45593999997E+02  0.45594000000E+02  0.51100000000E-03 0.  1.
         11   -1    0    0    0    0 -0.00000000000E+00 -0.00000000000E+00 -0.45593999997E+02  0.45594000000E+02  0.51100000000E-03 0. -1.
         23    2    1    2    0    0  0.35527136788E-14  0.17763568394E-14  0.00000000000E+00  0.91188000000E+02  0.91188000000E+02 0.  0.
    9900012    2    3    3    0    0 -0.27209288354E+02  0.83463863651E+00  0.24793893524E+02  0.54367093568E+02  0.40000021407E+02 0.  0.
         12    1    3    3    0    0  0.27209288354E+02 -0.83463863651E+00 -0.24793893524E+02  0.36820906432E+02  0.00000000000E+00 0. -1.
         11    1    4    4    0    0 -0.13892274491E+02 -0.19348223059E+01 -0.12431285818E+01  0.14081342153E+02  0.51100000000E-03 0. -1.
        -11    1    4    4    0    0  0.37321153879E+01  0.82939254576E+01  0.52780771013E+00  0.91102396239E+01  0.51100000000E-03 0.  1.
        -12    1    4    4    0    0 -0.17049129251E+02 -0.55244645153E+01  0.25509214395E+02  0.31175511792E+02  0.00000000000E+00 0.  1.
</event>
<event>
 8    1  0.1212194E-006  0.9118800E+02  0.7816164E-02  0.1184000E+00
        -11   -1    0    0    0    0  0.00000000000E+00  0.00000000000E+00  0.45593999997E+02  0.45594000000E+02  0.51100000000E-03 0.  1.
         11   -1    0    0    0    0 -0.00000000000E+00 -0.00000000000E+00 -0.45593999997E+02  0.45594000000E+02  0.51100000000E-03 0. -1.
         23    2    1    2    0    0 -0.17763568394E-14  0.88817841970E-15  0.00000000000E+00  0.91188000000E+02  0.91188000000E+02 0.  0.
    9900012    2    3    3    0    0 -0.55057361489E+01 -0.45961787073E+01  0.36115670551E+02  0.54367086803E+02  0.40000005986E+02 0.  0.
         12    1    3    3    0    0  0.55057361489E+01  0.45961787073E+01 -0.36115670551E+02  0.36820913197E+02  0.00000000000E+00 0. -1.
         11    1    4    4    0    0  0.67424819617E+01  0.53798074783E+01  0.99038586818E+00  0.86824107215E+01  0.51100000000E-03 0. -1.
        -11    1    4    4    0    0 -0.42314945243E+01 -0.17275041102E+02  0.26067961415E+02  0.31557427075E+02  0.51100000000E-03 0.  1.
         12    1    4    4    0    0 -0.80167235863E+01  0.72990549162E+01  0.90573232685E+01  0.14127249007E+02  0.00000000000E+00 0. -1.
</event>
<event>
 8    1  0.1212194E-006  0.9118800E+02  0.7816164E-02  0.1184000E+00
        -11   -1    0    0    0    0  0.00000000000E+00  0.00000000000E+00  0.45593999997E+02  0.45594000000E+02  0.51100000000E-03 0.  1.
         11   -1    0    0    0    0 -0.00000000000E+00 -0.00000000000E+00 -0.45593999997E+02  0.45594000000E+02  0.51100000000E-03 0. -1.
         23    2    1    2    0    0  0.00000000000E+00  0.00000000000E+00  0.00000000000E+00  0.91188000000E+02  0.91188000000E+02 0.  0.
    9900012    2    3    3    0    0 -0.24638872448E+02 -0.18106063492E+02  0.20515252945E+02  0.54367093247E+02  0.40000020676E+02 0.  0.
         12    1    3    3    0    0  0.24638872448E+02  0.18106063492E+02 -0.20515252945E+02  0.36820906753E+02  0.00000000000E+00 0. -1.
         11    1    4    4    0    0 -0.20830990178E+02  0.24962942817E+01 -0.15383006018E+01  0.21036349634E+02  0.51100000000E-03 0. -1.
        -11    1    4    4    0    0 -0.87117184381E+01 -0.15936526471E+02  0.17072850487E+02  0.24926875820E+02  0.51100000000E-03 0.  1.
         12    1    4    4    0    0  0.49038361685E+01 -0.46658313027E+01  0.49807030602E+01  0.84038677933E+01  0.00000000000E+00 0. -1.
</event>
<event>
 8    1  0.1212194E-006  0.9118800E+02  0.7816164E-02  0.1184000E+00
        -11   -1    0    0    0    0  0.00000000000E+00  0.00000000000E+00  0.45593999997E+02  0.45594000000E+02  0.51100000000E-03 0. -1.
         11   -1    0    0    0    0 -0.00000000000E+00 -0.00000000000E+00 -0.45593999997E+02  0.45594000000E+02  0.51100000000E-03 0.  1.
         23    2    1    2    0    0 -0.44408920985E-15  0.00000000000E+00  0.00000000000E+00  0.91188000000E+02  0.91188000000E+02 0.  0.
    9900012    2    3    3    0    0  0.22458257358E+01 -0.22512598087E+02 -0.29050309293E+02  0.54367064707E+02  0.39999955612E+02 0.  0.
         12    1    3    3    0    0 -0.22458257358E+01  0.22512598087E+02  0.29050309293E+02  0.36820935293E+02  0.00000000000E+00 0. -1.
         11    1    4    4    0    0 -0.10123404772E+02  0.32153358943E+00 -0.12251746170E+02  0.15896288639E+02  0.51100000000E-03 0. -1.
        -11    1    4    4    0    0  0.38593379037E+01 -0.17102174883E+02  0.13906222829E+01  0.17587288176E+02  0.51100000000E-03 0.  1.
        -12    1    4    4    0    0  0.85098926036E+01 -0.57319567935E+01 -0.18189185405E+02  0.20883487892E+02  0.00000000000E+00 0.  1.
</event>
<event>
 8    1  0.1212194E-006  0.9118800E+02  0.7816164E-02  0.1184000E+00
        -11   -1    0    0    0    0  0.00000000000E+00  0.00000000000E+00  0.45593999997E+02  0.45594000000E+02  0.51100000000E-03 0. -1.
         11   -1    0    0    0    0 -0.00000000000E+00 -0.00000000000E+00 -0.45593999997E+02  0.45594000000E+02  0.51100000000E-03 0.  1.
         23    2    1    2    0    0 -0.17763568394E-14  0.35527136788E-14  0.00000000000E+00  0.91188000000E+02  0.91188000000E+02 0.  0.
    9900012    2    3    3    0    0  0.13436527649E+02 -0.26661129653E+02 -0.21550473355E+02  0.54367095456E+02  0.40000025710E+02 0.  0.
        -12    1    3    3    0    0 -0.13436527649E+02  0.26661129653E+02  0.21550473355E+02  0.36820904544E+02  0.00000000000E+00 0.  1.
         11    1    4    4    0    0  0.91129264542E+01 -0.27299835692E+02 -0.18946067009E+02  0.34456928371E+02  0.51100000000E-03 0. -1.
        -11    1    4    4    0    0  0.81970690997E+01 -0.19102823371E+01  0.58621529087E+01  0.10256995536E+02  0.51100000000E-03 0.  1.
        -12    1    4    4    0    0 -0.38734679046E+01  0.25489883762E+01 -0.84665592547E+01  0.96531715495E+01  0.00000000000E+00 0.  1.
</event>
<event>
 8    1  0.1212194E-006  0.9118800E+02  0.7816164E-02  0.1184000E+00
        -11   -1    0    0    0    0  0.00000000000E+00  0.00000000000E+00  0.45593999997E+02  0.45594000000E+02  0.51100000000E-03 0.  1.
         11   -1    0    0    0    0 -0.00000000000E+00 -0.00000000000E+00 -0.45593999997E+02  0.45594000000E+02  0.51100000000E-03 0. -1.
         23    2    1    2    0    0  0.33306690739E-15  0.00000000000E+00  0.00000000000E+00  0.91188000000E+02  0.91188000000E+02 0.  0.
    9900012    2    3    3    0    0  0.26857107068E+00  0.11856311808E+02 -0.34858830425E+02  0.54367050546E+02  0.39999923329E+02 0.  0.
        -12    1    3    3    0    0 -0.26857107068E+00 -0.11856311808E+02  0.34858830425E+02  0.36820949454E+02  0.00000000000E+00 0.  1.
         11    1    4    4    0    0 -0.22898746630E+01 -0.31903681396E+01 -0.36570923431E+02  0.36781169309E+02  0.51100000000E-03 0. -1.
        -11    1    4    4    0    0 -0.32698992154E+00 -0.63223494246E+00  0.14796756333E+01  0.16419755395E+01  0.51100000000E-03 0.  1.
         12    1    4    4    0    0  0.28854356552E+01  0.15678914890E+02  0.23241737271E+00  0.15943905698E+02  0.00000000000E+00 0. -1.
</event>
<event>
 8    1  0.1212194E-006  0.9118800E+02  0.7816164E-02  0.1184000E+00
        -11   -1    0    0    0    0  0.00000000000E+00  0.00000000000E+00  0.45593999997E+02  0.45594000000E+02  0.51100000000E-03 0. -1.
         11   -1    0    0    0    0 -0.00000000000E+00 -0.00000000000E+00 -0.45593999997E+02  0.45594000000E+02  0.51100000000E-03 0.  1.
         23    2    1    2    0    0 -0.17763568394E-14  0.00000000000E+00  0.35527136788E-14  0.91188000000E+02  0.91188000000E+02 0.  0.
    9900012    2    3    3    0    0  0.73842026133E+01  0.24749090574E+02 -0.26243664234E+02  0.54367165614E+02  0.40000185650E+02 0.  0.
         12    1    3    3    0    0 -0.73842026133E+01 -0.24749090574E+02  0.26243664234E+02  0.36820834386E+02  0.00000000000E+00 0. -1.
         11    1    4    4    0    0  0.42982019549E+01  0.86115208208E+01 -0.19865581471E+01  0.98274739596E+01  0.51100000000E-03 0. -1.
        -11    1    4    4    0    0  0.18268412499E+02  0.10624395245E+02 -0.12400807419E+02  0.24502911959E+02  0.51100000000E-03 0.  1.
         12    1    4    4    0    0 -0.15182411841E+02  0.55131745078E+01 -0.11856298668E+02  0.20036779695E+02  0.00000000000E+00 0. -1.
</event>
<event>
 8    1  0.1212194E-006  0.9118800E+02  0.7816164E-02  0.1184000E+00
        -11   -1    0    0    0    0  0.00000000000E+00  0.00000000000E+00  0.45593999997E+02  0.45594000000E+02  0.51100000000E-03 0. -1.
         11   -1    0    0    0    0 -0.00000000000E+00 -0.00000000000E+00 -0.45593999997E+02  0.45594000000E+02  0.51100000000E-03 0.  1.
         23    2    1    2    0    0 -0.17763568394E-14  0.00000000000E+00 -0.35527136788E-14  0.91188000000E+02  0.91188000000E+02 0.  0.
    9900012    2    3    3    0    0 -0.53555613868E+01  0.23073147237E+02 -0.28190912152E+02  0.54367086253E+02  0.40000004732E+02 0.  0.
         12    1    3    3    0    0  0.53555613868E+01 -0.23073147237E+02  0.28190912152E+02  0.36820913747E+02  0.00000000000E+00 0. -1.
         11    1    4    4    0    0  0.13158670405E-01  0.20499377356E+02 -0.70803081305E+01  0.21687678728E+02  0.51100000000E-03 0. -1.
        -11    1    4    4    0    0  0.81405556882E+01  0.41571702524E+01 -0.15440282897E+02  0.17943050121E+02  0.51100000000E-03 0.  1.
        -12    1    4    4    0    0 -0.13509275745E+02 -0.15834003718E+01 -0.56703211244E+01  0.14736357405E+02  0.00000000000E+00 0.  1.
</event>
<event>
 8    1  0.1212194E-006  0.9118800E+02  0.7816164E-02  0.1184000E+00
        -11   -1    0    0    0    0  0.00000000000E+00  0.00000000000E+00  0.45593999997E+02  0.45594000000E+02  0.51100000000E-03 0. -1.
         11   -1    0    0    0    0 -0.00000000000E+00 -0.00000000000E+00 -0.45593999997E+02  0.45594000000E+02  0.51100000000E-03 0.  1.
         23    2    1    2    0    0  0.00000000000E+00  0.00000000000E+00  0.44408920985E-15  0.91188000000E+02  0.91188000000E+02 0.  0.
    9900012    2    3    3    0    0  0.23240216694E+02  0.28523278765E+02  0.14468699611E+01  0.54367101910E+02  0.40000040425E+02 0.  0.
        -12    1    3    3    0    0 -0.23240216694E+02 -0.28523278765E+02 -0.14468699611E+01  0.36820898090E+02  0.00000000000E+00 0.  1.
         11    1    4    4    0    0  0.26923682242E+02  0.16140365666E+02  0.16250781195E+01  0.31433055029E+02  0.51100000000E-03 0. -1.
        -11    1    4    4    0    0  0.41693958880E+01 -0.15107588582E+01 -0.45836634656E+01  0.63777915790E+01  0.51100000000E-03 0.  1.
         12    1    4    4    0    0 -0.78528614362E+01  0.13893671956E+02  0.44054553073E+01  0.16556255302E+02  0.00000000000E+00 0. -1.
</event>
<event>
 8    1  0.1212194E-006  0.9118800E+02  0.7816164E-02  0.1184000E+00
        -11   -1    0    0    0    0  0.00000000000E+00  0.00000000000E+00  0.45593999997E+02  0.45594000000E+02  0.51100000000E-03 0.  1.
         11   -1    0    0    0    0 -0.00000000000E+00 -0.00000000000E+00 -0.45593999997E+02  0.45594000000E+02  0.51100000000E-03 0. -1.
         23    2    1    2    0    0  0.35527136788E-14  0.35527136788E-14  0.88817841970E-15  0.91188000000E+02  0.91188000000E+02 0.  0.
    9900012    2    3    3    0    0  0.27839729311E+02  0.23376785882E+02  0.58524507195E+01  0.54367138716E+02  0.40000124330E+02 0.  0.
         12    1    3    3    0    0 -0.27839729311E+02 -0.23376785882E+02 -0.58524507195E+01  0.36820861284E+02  0.00000000000E+00 0. -1.
         11    1    4    4    0    0 -0.48993633501E+00  0.62146107452E+01 -0.22361641678E+01  0.66228283062E+01  0.51100000000E-03 0. -1.
        -11    1    4    4    0    0 -0.37941337498E+00 -0.57412102075E+01 -0.60886501182E+01  0.83771779066E+01  0.51100000000E-03 0.  1.
         12    1    4    4    0    0  0.28709079021E+02  0.22903385344E+02  0.14177265005E+02  0.39367132503E+02  0.00000000000E+00 0. -1.
</event>
<event>
 8    1  0.1212194E-006  0.9118800E+02  0.7816164E-02  0.1184000E+00
        -11   -1    0    0    0    0  0.00000000000E+00  0.00000000000E+00  0.45593999997E+02  0.45594000000E+02  0.51100000000E-03 0.  1.
         11   -1    0    0    0    0 -0.00000000000E+00 -0.00000000000E+00 -0.45593999997E+02  0.45594000000E+02  0.51100000000E-03 0. -1.
         23    2    1    2    0    0  0.00000000000E+00  0.35527136788E-14  0.00000000000E+00  0.91188000000E+02  0.91188000000E+02 0.  0.
    9900012    2    3    3    0    0  0.98691489757E+01  0.30639576794E+02  0.17877258748E+02  0.54367080023E+02  0.39999990528E+02 0.  0.
         12    1    3    3    0    0 -0.98691489757E+01 -0.30639576794E+02 -0.17877258748E+02  0.36820919977E+02  0.00000000000E+00 0. -1.
         11    1    4    4    0    0  0.11255038670E+02 -0.35332853513E+01  0.52290054344E+01  0.12903584732E+02  0.51100000000E-03 0. -1.
        -11    1    4    4    0    0 -0.10564023100E+02  0.19202459846E+02  0.65392715181E+01  0.22871272821E+02  0.51100000000E-03 0.  1.
        -12    1    4    4    0    0  0.91781334052E+01  0.14970402299E+02  0.61089817954E+01  0.18592222470E+02  0.00000000000E+00 0.  1.
</event>
<event>
 8    1  0.1212194E-006  0.9118800E+02  0.7816164E-02  0.1184000E+00
        -11   -1    0    0    0    0  0.00000000000E+00  0.00000000000E+00  0.45593999997E+02  0.45594000000E+02  0.51100000000E-03 0. -1.
         11   -1    0    0    0    0 -0.00000000000E+00 -0.00000000000E+00 -0.45593999997E+02  0.45594000000E+02  0.51100000000E-03 0.  1.
         23    2    1    2    0    0  0.00000000000E+00 -0.17763568394E-14  0.17763568394E-14  0.91188000000E+02  0.91188000000E+02 0.  0.
    9900012    2    3    3    0    0  0.34540596319E+02 -0.93272314150E+01  0.87023086030E+01  0.54367079113E+02  0.39999988453E+02 0.  0.
        -12    1    3    3    0    0 -0.34540596319E+02  0.93272314150E+01 -0.87023086030E+01  0.36820920887E+02  0.00000000000E+00 0.  1.
         11    1    4    4    0    0  0.40709044066E+02 -0.11897181913E+02  0.90136292635E+00  0.42421476420E+02  0.51100000000E-03 0. -1.
        -11    1    4    4    0    0  0.84391481939E+00  0.33755237251E+00  0.30585997165E+01  0.31907939942E+01  0.51100000000E-03 0.  1.
         12    1    4    4    0    0 -0.70123625660E+01  0.22323981256E+01  0.47423459601E+01  0.87548086988E+01  0.00000000000E+00 0. -1.
</event>
<event>
 8    1  0.1212194E-006  0.9118800E+02  0.7816164E-02  0.1184000E+00
        -11   -1    0    0    0    0  0.00000000000E+00  0.00000000000E+00  0.45593999997E+02  0.45594000000E+02  0.51100000000E-03 0.  1.
         11   -1    0    0    0    0 -0.00000000000E+00 -0.00000000000E+00 -0.45593999997E+02  0.45594000000E+02  0.51100000000E-03 0. -1.
         23    2    1    2    0    0  0.00000000000E+00  0.00000000000E+00  0.00000000000E+00  0.91188000000E+02  0.91188000000E+02 0.  0.
    9900012    2    3    3    0    0 -0.22484531857E+02 -0.29154212880E+02  0.50748735931E+00  0.54367084139E+02  0.39999999911E+02 0.  0.
         12    1    3    3    0    0  0.22484531857E+02  0.29154212880E+02 -0.50748735931E+00  0.36820915861E+02  0.00000000000E+00 0. -1.
         11    1    4    4    0    0 -0.16074528328E+02 -0.17217476878E+01  0.22698321427E+01  0.16325042551E+02  0.51100000000E-03 0. -1.
        -11    1    4    4    0    0 -0.13602621124E+02 -0.27525015855E+02 -0.31331856720E+00  0.30704331422E+02  0.51100000000E-03 0.  1.
        -12    1    4    4    0    0  0.71926175955E+01  0.92550663091E-01 -0.14490262162E+01  0.73377101657E+01  0.00000000000E+00 0.  1.
</event>
<event>
 8    1  0.1212194E-006  0.9118800E+02  0.7816164E-02  0.1184000E+00
        -11   -1    0    0    0    0  0.00000000000E+00  0.00000000000E+00  0.45593999997E+02  0.45594000000E+02  0.51100000000E-03 0. -1.
         11   -1    0    0    0    0 -0.00000000000E+00 -0.00000000000E+00 -0.45593999997E+02  0.45594000000E+02  0.51100000000E-03 0.  1.
         23    2    1    2    0    0  0.00000000000E+00  0.35527136788E-14  0.00000000000E+00  0.91188000000E+02  0.91188000000E+02 0.  0.
    9900012    2    3    3    0    0  0.22591386211E+02  0.23401556784E+02  0.17256131569E+02  0.54367113704E+02  0.40000067312E+02 0.  0.
         12    1    3    3    0    0 -0.22591386211E+02 -0.23401556784E+02 -0.17256131569E+02  0.36820886296E+02  0.00000000000E+00 0. -1.
         11    1    4    4    0    0  0.12618299472E+02  0.37069631788E+01 -0.12579575072E+01  0.13211567467E+02  0.51100000000E-03 0. -1.
        -11    1    4    4    0    0 -0.31142498375E+01  0.72823946222E+01 -0.65486827586E+01  0.10277016572E+02  0.51100000000E-03 0.  1.
        -12    1    4    4    0    0  0.13087336577E+02  0.12412198983E+02  0.25062771835E+02  0.30878529666E+02  0.00000000000E+00 0.  1.
</event>
<event>
 8    1  0.1212194E-006  0.9118800E+02  0.7816164E-02  0.1184000E+00
        -11   -1    0    0    0    0  0.00000000000E+00  0.00000000000E+00  0.45593999997E+02  0.45594000000E+02  0.51100000000E-03 0.  1.
         11   -1    0    0    0    0 -0.00000000000E+00 -0.00000000000E+00 -0.45593999997E+02  0.45594000000E+02  0.51100000000E-03 0. -1.
         23    2    1    2    0    0 -0.35527136788E-14  0.00000000000E+00  0.00000000000E+00  0.91188000000E+02  0.91188000000E+02 0.  0.
    9900012    2    3    3    0    0  0.12418639636E+02 -0.25908983525E+02 -0.23027838159E+02  0.54367090614E+02  0.40000014673E+02 0.  0.
        -12    1    3    3    0    0 -0.12418639636E+02  0.25908983525E+02  0.23027838159E+02  0.36820909386E+02  0.00000000000E+00 0.  1.
         11    1    4    4    0    0  0.18060037715E+02 -0.48561143361E+01 -0.24751455651E+01  0.18864600567E+02  0.51100000000E-03 0. -1.
        -11    1    4    4    0    0 -0.14976383189E+01 -0.68843966589E+01  0.30390273273E+01  0.76729085260E+01  0.51100000000E-03 0.  1.
        -12    1    4    4    0    0 -0.41437597605E+01 -0.14168472530E+02 -0.23591719922E+02  0.27829581521E+02  0.00000000000E+00 0.  1.
</event>
<event>
 8    1  0.1212194E-006  0.9118800E+02  0.7816164E-02  0.1184000E+00
        -11   -1    0    0    0    0  0.00000000000E+00  0.00000000000E+00  0.45593999997E+02  0.45594000000E+02  0.51100000000E-03 0. -1.
         11   -1    0    0    0    0 -0.00000000000E+00 -0.00000000000E+00 -0.45593999997E+02  0.45594000000E+02  0.51100000000E-03 0.  1.
         23    2    1    2    0    0  0.00000000000E+00 -0.35527136788E-14  0.00000000000E+00  0.91188000000E+02  0.91188000000E+02 0.  0.
    9900012    2    3    3    0    0 -0.20345365315E+02 -0.14694611537E+02 -0.26942761118E+02  0.54367110893E+02  0.40000060902E+02 0.  0.
         12    1    3    3    0    0  0.20345365315E+02  0.14694611537E+02  0.26942761118E+02  0.36820889107E+02  0.00000000000E+00 0. -1.
         11    1    4    4    0    0 -0.20310871139E+02  0.36598593121E+01 -0.30121483635E+01  0.20856631910E+02  0.51100000000E-03 0. -1.
        -11    1    4    4    0    0 -0.12174795269E+01 -0.20682819400E+02 -0.20040735198E+02  0.28825203248E+02  0.51100000000E-03 0.  1.
         12    1    4    4    0    0  0.11829853510E+01  0.23283485507E+01 -0.38898775559E+01  0.46852757351E+01  0.00000000000E+00 0. -1.
</event>
<event>
 8    1  0.1212194E-006  0.9118800E+02  0.7816164E-02  0.1184000E+00
        -11   -1    0    0    0    0  0.00000000000E+00  0.00000000000E+00  0.45593999997E+02  0.45594000000E+02  0.51100000000E-03 0.  1.
         11   -1    0    0    0    0 -0.00000000000E+00 -0.00000000000E+00 -0.45593999997E+02  0.45594000000E+02  0.51100000000E-03 0. -1.
         23    2    1    2    0    0 -0.35527136788E-14  0.35527136788E-14 -0.35527136788E-14  0.91188000000E+02  0.91188000000E+02 0.  0.
    9900012    2    3    3    0    0  0.28616134572E+02 -0.15297196538E+02  0.17403811902E+02  0.54367081373E+02  0.39999993607E+02 0.  0.
         12    1    3    3    0    0 -0.28616134572E+02  0.15297196538E+02 -0.17403811902E+02  0.36820918627E+02  0.00000000000E+00 0. -1.
         11    1    4    4    0    0  0.22543950364E+02 -0.15986353632E+02  0.56373322116E+01  0.28205898589E+02  0.51100000000E-03 0. -1.
        -11    1    4    4    0    0  0.52247566824E+01 -0.18318125787E+01  0.18293569171E+02  0.19113039868E+02  0.51100000000E-03 0.  1.
         12    1    4    4    0    0  0.84742752542E+00  0.25209696720E+01 -0.65270894802E+01  0.70481429172E+01  0.00000000000E+00 0. -1.
</event>
<event>
 8    1  0.1212194E-006  0.9118800E+02  0.7816164E-02  0.1184000E+00
        -11   -1    0    0    0    0  0.00000000000E+00  0.00000000000E+00  0.45593999997E+02  0.45594000000E+02  0.51100000000E-03 0. -1.
         11   -1    0    0    0    0 -0.00000000000E+00 -0.00000000000E+00 -0.45593999997E+02  0.45594000000E+02  0.51100000000E-03 0.  1.
         23    2    1    2    0    0  0.00000000000E+00  0.00000000000E+00  0.00000000000E+00  0.91188000000E+02  0.91188000000E+02 0.  0.
    9900012    2    3    3    0    0 -0.21537958822E+02  0.25199497855E+02  0.16026971312E+02  0.54367324126E+02  0.40000547007E+02 0.  0.
        -12    1    3    3    0    0  0.21537958822E+02 -0.25199497855E+02 -0.16026971312E+02  0.36820675874E+02  0.00000000000E+00 0.  1.
         11    1    4    4    0    0 -0.66161865949E+01  0.23117662069E+02  0.12262018392E+02  0.26991800975E+02  0.51100000000E-03 0. -1.
        -11    1    4    4    0    0 -0.11289691426E+02  0.86595706208E+01 -0.56679803898E+01  0.15315720609E+02  0.51100000000E-03 0.  1.
        -12    1    4    4    0    0 -0.36320808019E+01 -0.65777348348E+01  0.94329333105E+01  0.12059802542E+02  0.00000000000E+00 0.  1.
</event>
<event>
 8    1  0.1212194E-006  0.9118800E+02  0.7816164E-02  0.1184000E+00
        -11   -1    0    0    0    0  0.00000000000E+00  0.00000000000E+00  0.45593999997E+02  0.45594000000E+02  0.51100000000E-03 0. -1.
         11   -1    0    0    0    0 -0.00000000000E+00 -0.00000000000E+00 -0.45593999997E+02  0.45594000000E+02  0.51100000000E-03 0.  1.
         23    2    1    2    0    0  0.11934897515E-14 -0.35527136788E-14  0.00000000000E+00  0.91188000000E+02  0.91188000000E+02 0.  0.
    9900012    2    3    3    0    0  0.23625772688E+00 -0.29170152650E+02  0.22468348298E+02  0.54367077978E+02  0.39999985866E+02 0.  0.
        -12    1    3    3    0    0 -0.23625772688E+00  0.29170152650E+02 -0.22468348298E+02  0.36820922022E+02  0.00000000000E+00 0.  1.
         11    1    4    4    0    0 -0.10074035400E+02 -0.12003502867E+01  0.78548743551E+01  0.12830669564E+02  0.51100000000E-03 0. -1.
        -11    1    4    4    0    0  0.77991261891E+01 -0.65282599401E+01  0.17006807305E+02  0.19816055161E+02  0.51100000000E-03 0.  1.
        -12    1    4    4    0    0  0.25111669379E+01 -0.21441542423E+02 -0.23933333622E+01  0.21720353254E+02  0.00000000000E+00 0.  1.
</event>
<event>
 8    1  0.1212194E-006  0.9118800E+02  0.7816164E-02  0.1184000E+00
        -11   -1    0    0    0    0  0.00000000000E+00  0.00000000000E+00  0.45593999997E+02  0.45594000000E+02  0.51100000000E-03 0.  1.
         11   -1    0    0    0    0 -0.00000000000E+00 -0.00000000000E+00 -0.45593999997E+02  0.45594000000E+02  0.51100000000E-03 0. -1.
         23    2    1    2    0    0  0.00000000000E+00 -0.35527136788E-14  0.00000000000E+00  0.91188000000E+02  0.91188000000E+02 0.  0.
    9900012    2    3    3    0    0  0.87808669145E+01 -0.76042951697E+01  0.34940745940E+02  0.54367018812E+02  0.39999850985E+02 0.  0.
         12    1    3    3    0    0 -0.87808669145E+01  0.76042951697E+01 -0.34940745940E+02  0.36820981188E+02  0.00000000000E+00 0. -1.
         11    1    4    4    0    0  0.96437078733E+01 -0.17805809648E+02  0.32094878249E+02  0.37949033832E+02  0.51100000000E-03 0. -1.
        -11    1    4    4    0    0  0.34694971792E+01  0.85758972858E+00  0.47496639660E+01  0.59440877240E+01  0.51100000000E-03 0.  1.
         12    1    4    4    0    0 -0.43323381380E+01  0.93439247493E+01 -0.19037962743E+01  0.10473897255E+02  0.00000000000E+00 0. -1.
</event>
<event>
 8    1  0.1212194E-006  0.9118800E+02  0.7816164E-02  0.1184000E+00
        -11   -1    0    0    0    0  0.00000000000E+00  0.00000000000E+00  0.45593999997E+02  0.45594000000E+02  0.51100000000E-03 0.  1.
         11   -1    0    0    0    0 -0.00000000000E+00 -0.00000000000E+00 -0.45593999997E+02  0.45594000000E+02  0.51100000000E-03 0. -1.
         23    2    1    2    0    0  0.17763568394E-14  0.00000000000E+00  0.00000000000E+00  0.91188000000E+02  0.91188000000E+02 0.  0.
    9900012    2    3    3    0    0  0.11515457846E+02 -0.13212596911E+02  0.32382203374E+02  0.54367006235E+02  0.39999822312E+02 0.  0.
         12    1    3    3    0    0 -0.11515457846E+02  0.13212596911E+02 -0.32382203374E+02  0.36820993765E+02  0.00000000000E+00 0. -1.
         11    1    4    4    0    0  0.96378291391E+01  0.88935025227E+01  0.15885135218E+01  0.13210053486E+02  0.51100000000E-03 0. -1.
        -11    1    4    4    0    0 -0.36978987372E+01 -0.61873271070E+01  0.19677991971E+02  0.20956641908E+02  0.51100000000E-03 0.  1.
         12    1    4    4    0    0  0.55755274437E+01 -0.15918772326E+02  0.11115697881E+02  0.20200310840E+02  0.00000000000E+00 0. -1.
</event>
<event>
 8    1  0.1212194E-006  0.9118800E+02  0.7816164E-02  0.1184000E+00
        -11   -1    0    0    0    0  0.00000000000E+00  0.00000000000E+00  0.45593999997E+02  0.45594000000E+02  0.51100000000E-03 0. -1.
         11   -1    0    0    0    0 -0.00000000000E+00 -0.00000000000E+00 -0.45593999997E+02  0.45594000000E+02  0.51100000000E-03 0.  1.
         23    2    1    2    0    0  0.00000000000E+00  0.00000000000E+00  0.00000000000E+00  0.91188000000E+02  0.91188000000E+02 0.  0.
    9900012    2    3    3    0    0 -0.23304795843E+02 -0.99137287517E+01 -0.26727947705E+02  0.54367099474E+02  0.40000034871E+02 0.  0.
         12    1    3    3    0    0  0.23304795843E+02  0.99137287517E+01  0.26727947705E+02  0.36820900526E+02  0.00000000000E+00 0. -1.
         11    1    4    4    0    0  0.30630699312E+01 -0.22724046992E+01 -0.74365320167E+01  0.83575253046E+01  0.51100000000E-03 0. -1.
        -11    1    4    4    0    0 -0.23239834214E+02 -0.78363109044E+01 -0.27722992517E+02  0.37014348262E+02  0.51100000000E-03 0.  1.
         12    1    4    4    0    0 -0.31280315598E+01  0.19498685185E+00  0.84315768289E+01  0.89952259078E+01  0.00000000000E+00 0. -1.
</event>
<event>
 8    1  0.1212194E-006  0.9118800E+02  0.7816164E-02  0.1184000E+00
        -11   -1    0    0    0    0  0.00000000000E+00  0.00000000000E+00  0.45593999997E+02  0.45594000000E+02  0.51100000000E-03 0.  1.
         11   -1    0    0    0    0 -0.00000000000E+00 -0.00000000000E+00 -0.45593999997E+02  0.45594000000E+02  0.51100000000E-03 0. -1.
         23    2    1    2    0    0 -0.71054273576E-14  0.00000000000E+00  0.35527136788E-14  0.91188000000E+02  0.91188000000E+02 0.  0.
    9900012    2    3    3    0    0  0.29045794280E+02 -0.15806064434E+02 -0.16195401309E+02  0.54367070329E+02  0.39999968430E+02 0.  0.
        -12    1    3    3    0    0 -0.29045794280E+02  0.15806064434E+02  0.16195401309E+02  0.36820929671E+02  0.00000000000E+00 0.  1.
         11    1    4    4    0    0  0.42587212682E+01  0.22194300884E+01  0.36815804048E+01  0.60511661104E+01  0.51100000000E-03 0. -1.
        -11    1    4    4    0    0  0.15994510716E+02  0.23111207413E+01 -0.20557946246E+02  0.26149470477E+02  0.51100000000E-03 0.  1.
         12    1    4    4    0    0  0.87925622960E+01 -0.20336615264E+02  0.68096453239E+00  0.22166433742E+02  0.00000000000E+00 0. -1.
</event>
<event>
 8    1  0.1212194E-006  0.9118800E+02  0.7816164E-02  0.1184000E+00
        -11   -1    0    0    0    0  0.00000000000E+00  0.00000000000E+00  0.45593999997E+02  0.45594000000E+02  0.51100000000E-03 0. -1.
         11   -1    0    0    0    0 -0.00000000000E+00 -0.00000000000E+00 -0.45593999997E+02  0.45594000000E+02  0.51100000000E-03 0.  1.
         23    2    1    2    0    0  0.00000000000E+00  0.17763568394E-14 -0.35527136788E-14  0.91188000000E+02  0.91188000000E+02 0.  0.
    9900012    2    3    3    0    0 -0.28364379026E+02 -0.10733078978E+02  0.20881683987E+02  0.54367058839E+02  0.39999942235E+02 0.  0.
        -12    1    3    3    0    0  0.28364379026E+02  0.10733078978E+02 -0.20881683987E+02  0.36820941161E+02  0.00000000000E+00 0.  1.
         11    1    4    4    0    0 -0.27487168152E+02 -0.10726337124E+02  0.80889003220E+01  0.30594591512E+02  0.51100000000E-03 0. -1.
        -11    1    4    4    0    0 -0.58599316478E+01  0.60130013181E+01 -0.43665852478E+00  0.84074761193E+01  0.51100000000E-03 0.  1.
         12    1    4    4    0    0  0.49827207737E+01 -0.60197431714E+01  0.13229442190E+02  0.15364991208E+02  0.00000000000E+00 0. -1.
</event>
<event>
 8    1  0.1212194E-006  0.9118800E+02  0.7816164E-02  0.1184000E+00
        -11   -1    0    0    0    0  0.00000000000E+00  0.00000000000E+00  0.45593999997E+02  0.45594000000E+02  0.51100000000E-03 0. -1.
         11   -1    0    0    0    0 -0.00000000000E+00 -0.00000000000E+00 -0.45593999997E+02  0.45594000000E+02  0.51100000000E-03 0.  1.
         23    2    1    2    0    0  0.35527136788E-14  0.00000000000E+00  0.00000000000E+00  0.91188000000E+02  0.91188000000E+02 0.  0.
    9900012    2    3    3    0    0  0.27162970770E+02  0.11359488322E+02  0.22111423285E+02  0.54367082091E+02  0.39999995243E+02 0.  0.
        -12    1    3    3    0    0 -0.27162970770E+02 -0.11359488322E+02 -0.22111423285E+02  0.36820917909E+02  0.00000000000E+00 0.  1.
         11    1    4    4    0    0  0.18608458142E+02  0.10041797502E+01  0.11076171319E+02  0.21678668381E+02  0.51100000000E-03 0. -1.
        -11    1    4    4    0    0  0.50757161165E+01  0.76919873776E+01 -0.85789849437E+01  0.12590812001E+02  0.51100000000E-03 0.  1.
        -12    1    4    4    0    0  0.34787965108E+01  0.26633211941E+01  0.19614236909E+02  0.20097601710E+02  0.00000000000E+00 0.  1.
</event>
<event>
 8    1  0.1212194E-006  0.9118800E+02  0.7816164E-02  0.1184000E+00
        -11   -1    0    0    0    0  0.00000000000E+00  0.00000000000E+00  0.45593999997E+02  0.45594000000E+02  0.51100000000E-03 0.  1.
         11   -1    0    0    0    0 -0.00000000000E+00 -0.00000000000E+00 -0.45593999997E+02  0.45594000000E+02  0.51100000000E-03 0. -1.
         23    2    1    2    0    0  0.00000000000E+00  0.00000000000E+00  0.35527136788E-14  0.91188000000E+02  0.91188000000E+02 0.  0.
    9900012    2    3    3    0    0 -0.11085807490E+02  0.18895212933E+02  0.29594783690E+02  0.54367144209E+02  0.40000136854E+02 0.  0.
         12    1    3    3    0    0  0.11085807490E+02 -0.18895212933E+02 -0.29594783690E+02  0.36820855791E+02  0.00000000000E+00 0. -1.
         11    1    4    4    0    0  0.29554908648E+01  0.14049157675E+02 -0.48264147466E+01  0.15146221878E+02  0.51100000000E-03 0. -1.
        -11    1    4    4    0    0 -0.69748842970E+01  0.47085118809E+01  0.71312133050E+01  0.11030562023E+02  0.51100000000E-03 0.  1.
         12    1    4    4    0    0 -0.70664140577E+01  0.13754337804E+00  0.27289985131E+02  0.28190360308E+02  0.00000000000E+00 0. -1.
</event>
<event>
 8    1  0.1212194E-006  0.9118800E+02  0.7816164E-02  0.1184000E+00
        -11   -1    0    0    0    0  0.00000000000E+00  0.00000000000E+00  0.45593999997E+02  0.45594000000E+02  0.51100000000E-03 0.  1.
         11   -1    0    0    0    0 -0.00000000000E+00 -0.00000000000E+00 -0.45593999997E+02  0.45594000000E+02  0.51100000000E-03 0. -1.
         23    2    1    2    0    0  0.00000000000E+00  0.44408920985E-15  0.88817841970E-15  0.91188000000E+02  0.91188000000E+02 0.  0.
    9900012    2    3    3    0    0 -0.35859916521E+02  0.37055933950E+01  0.74910463810E+01  0.54367071017E+02  0.39999969997E+02 0.  0.
         12    1    3    3    0    0  0.35859916521E+02 -0.37055933950E+01 -0.74910463810E+01  0.36820928983E+02  0.00000000000E+00 0. -1.
         11    1    4    4    0    0 -0.21347237736E+02  0.74957082436E+00  0.13983116233E+02  0.25530255682E+02  0.51100000000E-03 0. -1.
        -11    1    4    4    0    0  0.56838838579E+01 -0.33329491186E+01  0.36769548104E+00  0.65992640321E+01  0.51100000000E-03 0.  1.
         12    1    4    4    0    0 -0.20196562643E+02  0.62889716892E+01 -0.68597653326E+01  0.22237551302E+02  0.00000000000E+00 0. -1.
</event>
<event>
 8    1  0.1212194E-006  0.9118800E+02  0.7816164E-02  0.1184000E+00
        -11   -1    0    0    0    0  0.00000000000E+00  0.00000000000E+00  0.45593999997E+02  0.45594000000E+02  0.51100000000E-03 0. -1.
         11   -1    0    0    0    0 -0.00000000000E+00 -0.00000000000E+00 -0.45593999997E+02  0.45594000000E+02  0.51100000000E-03 0.  1.
         23    2    1    2    0    0 -0.35527136788E-14 -0.35527136788E-14  0.17763568394E-14  0.91188000000E+02  0.91188000000E+02 0.  0.
    9900012    2    3    3    0    0  0.26728630438E+02 -0.20512750328E+02  0.14852113043E+02  0.54367110916E+02  0.40000060956E+02 0.  0.
        -12    1    3    3    0    0 -0.26728630438E+02  0.20512750328E+02 -0.14852113043E+02  0.36820889084E+02  0.00000000000E+00 0.  1.
         11    1    4    4    0    0  0.72909535388E+01 -0.34940611301E+01  0.19915536398E+02  0.21494070274E+02  0.51100000000E-03 0. -1.
        -11    1    4    4    0    0  0.30288114277E+01 -0.61973267739E+01 -0.10423731701E+02  0.12499389611E+02  0.51100000000E-03 0.  1.
         12    1    4    4    0    0  0.16408865471E+02 -0.10821362424E+02  0.53603083465E+01  0.20373651031E+02  0.00000000000E+00 0. -1.
</event>
<event>
 8    1  0.1212194E-006  0.9118800E+02  0.7816164E-02  0.1184000E+00
        -11   -1    0    0    0    0  0.00000000000E+00  0.00000000000E+00  0.45593999997E+02  0.45594000000E+02  0.51100000000E-03 0.  1.
         11   -1    0    0    0    0 -0.00000000000E+00 -0.00000000000E+00 -0.45593999997E+02  0.45594000000E+02  0.51100000000E-03 0. -1.
         23    2    1    2    0    0  0.00000000000E+00  0.35527136788E-14  0.35527136788E-14  0.91188000000E+02  0.91188000000E+02 0.  0.
    9900012    2    3    3    0    0 -0.18409582905E+02  0.16553098920E+02 -0.27255497185E+02  0.54367082665E+02  0.39999996551E+02 0.  0.
        -12    1    3    3    0    0  0.18409582905E+02 -0.16553098920E+02  0.27255497185E+02  0.36820917335E+02  0.00000000000E+00 0.  1.
         11    1    4    4    0    0 -0.23466287133E+01  0.22287269222E+02 -0.13428398908E+02  0.26125675746E+02  0.51100000000E-03 0. -1.
        -11    1    4    4    0    0 -0.12398382542E+02 -0.25094260715E+01 -0.17876205834E+02  0.21899220172E+02  0.51100000000E-03 0.  1.
        -12    1    4    4    0    0 -0.36645716494E+01 -0.32247442302E+01  0.40491075567E+01  0.63421867467E+01  0.00000000000E+00 0.  1.
</event>
<event>
 8    1  0.1212194E-006  0.9118800E+02  0.7816164E-02  0.1184000E+00
        -11   -1    0    0    0    0  0.00000000000E+00  0.00000000000E+00  0.45593999997E+02  0.45594000000E+02  0.51100000000E-03 0.  1.
         11   -1    0    0    0    0 -0.00000000000E+00 -0.00000000000E+00 -0.45593999997E+02  0.45594000000E+02  0.51100000000E-03 0. -1.
         23    2    1    2    0    0  0.00000000000E+00  0.00000000000E+00 -0.44408920985E-15  0.91188000000E+02  0.91188000000E+02 0.  0.
    9900012    2    3    3    0    0 -0.35586175195E+02  0.92112916473E+01 -0.21390206275E+01  0.54366821746E+02  0.39999401729E+02 0.  0.
        -12    1    3    3    0    0  0.35586175195E+02 -0.92112916473E+01  0.21390206275E+01  0.36821178254E+02  0.00000000000E+00 0.  1.
         11    1    4    4    0    0 -0.11747677364E+02  0.13530441835E+02  0.85791814396E+00  0.17939253148E+02  0.51100000000E-03 0. -1.
        -11    1    4    4    0    0 -0.22687887615E+02  0.77551767281E+01 -0.37819875928E+01  0.24273162977E+02  0.51100000000E-03 0.  1.
        -12    1    4    4    0    0 -0.11506102159E+01 -0.12074326916E+02  0.78504882134E+00  0.12154405621E+02  0.00000000000E+00 0.  1.
</event>
<event>
 8    1  0.1212194E-006  0.9118800E+02  0.7816164E-02  0.1184000E+00
        -11   -1    0    0    0    0  0.00000000000E+00  0.00000000000E+00  0.45593999997E+02  0.45594000000E+02  0.51100000000E-03 0. -1.
         11   -1    0    0    0    0 -0.00000000000E+00 -0.00000000000E+00 -0.45593999997E+02  0.45594000000E+02  0.51100000000E-03 0.  1.
         23    2    1    2    0    0  0.00000000000E+00  0.00000000000E+00  0.00000000000E+00  0.91188000000E+02  0.91188000000E+02 0.  0.
    9900012    2    3    3    0    0  0.11502753249E+02 -0.82234948817E+01 -0.33997643814E+02  0.54367095811E+02  0.40000026520E+02 0.  0.
         12    1    3    3    0    0 -0.11502753249E+02  0.82234948817E+01  0.33997643814E+02  0.36820904189E+02  0.00000000000E+00 0. -1.
         11    1    4    4    0    0  0.15624546405E+02 -0.12030520072E+02 -0.16039872095E+02  0.25419232102E+02  0.51100000000E-03 0. -1.
        -11    1    4    4    0    0 -0.93062816513E+01 -0.33706541815E+01 -0.17471353092E+02  0.20080248179E+02  0.51100000000E-03 0.  1.
         12    1    4    4    0    0  0.51844884952E+01  0.71776793715E+01 -0.48641862732E+00  0.88676155306E+01  0.00000000000E+00 0. -1.
</event>
<event>
 8    1  0.1212194E-006  0.9118800E+02  0.7816164E-02  0.1184000E+00
        -11   -1    0    0    0    0  0.00000000000E+00  0.00000000000E+00  0.45593999997E+02  0.45594000000E+02  0.51100000000E-03 0. -1.
         11   -1    0    0    0    0 -0.00000000000E+00 -0.00000000000E+00 -0.45593999997E+02  0.45594000000E+02  0.51100000000E-03 0.  1.
         23    2    1    2    0    0 -0.17763568394E-14 -0.35527136788E-14  0.35527136788E-14  0.91188000000E+02  0.91188000000E+02 0.  0.
    9900012    2    3    3    0    0  0.88991766372E+01  0.27027754025E+02  0.23368450944E+02  0.54367091103E+02  0.40000015788E+02 0.  0.
        -12    1    3    3    0    0 -0.88991766372E+01 -0.27027754025E+02 -0.23368450944E+02  0.36820908897E+02  0.00000000000E+00 0.  1.
         11    1    4    4    0    0 -0.44101932051E+00 -0.88736872009E+00  0.10951896934E+02  0.10996634394E+02  0.51100000000E-03 0. -1.
        -11    1    4    4    0    0  0.81700324231E+01  0.98709848450E+01 -0.87619820141E+01  0.15522825151E+02  0.51100000000E-03 0.  1.
        -12    1    4    4    0    0  0.11701635346E+01  0.18044137900E+02  0.21178536025E+02  0.27847631558E+02  0.00000000000E+00 0.  1.
</event>
<event>
 8    1  0.1212194E-006  0.9118800E+02  0.7816164E-02  0.1184000E+00
        -11   -1    0    0    0    0  0.00000000000E+00  0.00000000000E+00  0.45593999997E+02  0.45594000000E+02  0.51100000000E-03 0.  1.
         11   -1    0    0    0    0 -0.00000000000E+00 -0.00000000000E+00 -0.45593999997E+02  0.45594000000E+02  0.51100000000E-03 0. -1.
         23    2    1    2    0    0  0.00000000000E+00 -0.35527136788E-14  0.00000000000E+00  0.91188000000E+02  0.91188000000E+02 0.  0.
    9900012    2    3    3    0    0  0.29850376872E+02 -0.21467424125E+02  0.19710489288E+01  0.54367077526E+02  0.39999984836E+02 0.  0.
         12    1    3    3    0    0 -0.29850376872E+02  0.21467424125E+02 -0.19710489288E+01  0.36820922474E+02  0.00000000000E+00 0. -1.
         11    1    4    4    0    0  0.16899221491E+01  0.33438262897E+00 -0.11954662339E+02  0.12078145574E+02  0.51100000000E-03 0. -1.
        -11    1    4    4    0    0  0.44215316372E+01 -0.19205834085E+01 -0.42135552156E+01  0.64025487474E+01  0.51100000000E-03 0.  1.
        -12    1    4    4    0    0  0.23738923085E+02 -0.19881223346E+02  0.18139266483E+02  0.35886383205E+02  0.00000000000E+00 0.  1.
</event>
<event>
 8    1  0.1212194E-006  0.9118800E+02  0.7816164E-02  0.1184000E+00
        -11   -1    0    0    0    0  0.00000000000E+00  0.00000000000E+00  0.45593999997E+02  0.45594000000E+02  0.51100000000E-03 0.  1.
         11   -1    0    0    0    0 -0.00000000000E+00 -0.00000000000E+00 -0.45593999997E+02  0.45594000000E+02  0.51100000000E-03 0. -1.
         23    2    1    2    0    0  0.35527136788E-14  0.44408920985E-15  0.00000000000E+00  0.91188000000E+02  0.91188000000E+02 0.  0.
    9900012    2    3    3    0    0 -0.29985202732E+02  0.39070194155E+01  0.21009475938E+02  0.54367146360E+02  0.40000141757E+02 0.  0.
         12    1    3    3    0    0  0.29985202732E+02 -0.39070194155E+01 -0.21009475938E+02  0.36820853640E+02  0.00000000000E+00 0. -1.
         11    1    4    4    0    0 -0.69282686946E+01 -0.67919212085E+01 -0.15130082988E+01  0.98193836456E+01  0.51100000000E-03 0. -1.
        -11    1    4    4    0    0  0.62383528629E+01  0.36749173201E+01  0.55132345760E+00  0.72612685922E+01  0.51100000000E-03 0.  1.
        -12    1    4    4    0    0 -0.29295286900E+02  0.70240233038E+01  0.21971160779E+02  0.37286494122E+02  0.00000000000E+00 0.  1.
</event>
<event>
 8    1  0.1212194E-006  0.9118800E+02  0.7816164E-02  0.1184000E+00
        -11   -1    0    0    0    0  0.00000000000E+00  0.00000000000E+00  0.45593999997E+02  0.45594000000E+02  0.51100000000E-03 0. -1.
         11   -1    0    0    0    0 -0.00000000000E+00 -0.00000000000E+00 -0.45593999997E+02  0.45594000000E+02  0.51100000000E-03 0.  1.
         23    2    1    2    0    0  0.00000000000E+00 -0.66613381478E-15  0.00000000000E+00  0.91188000000E+02  0.91188000000E+02 0.  0.
    9900012    2    3    3    0    0 -0.17028868223E+02 -0.88908102100E+00  0.32634442831E+02  0.54367086419E+02  0.40000005110E+02 0.  0.
        -12    1    3    3    0    0  0.17028868223E+02  0.88908102100E+00 -0.32634442831E+02  0.36820913581E+02  0.00000000000E+00 0.  1.
         11    1    4    4    0    0 -0.56204533748E+01  0.74803339151E+01  0.29372309827E+02  0.30826570948E+02  0.51100000000E-03 0. -1.
        -11    1    4    4    0    0  0.21413370487E+01 -0.71633528530E+01  0.60940627500E+01  0.96455455789E+01  0.51100000000E-03 0.  1.
         12    1    4    4    0    0 -0.13549751897E+02 -0.12060620830E+01 -0.28319297456E+01  0.13894969892E+02  0.00000000000E+00 0. -1.
</event>
<event>
 8    1  0.1212194E-006  0.9118800E+02  0.7816164E-02  0.1184000E+00
        -11   -1    0    0    0    0  0.00000000000E+00  0.00000000000E+00  0.45593999997E+02  0.45594000000E+02  0.51100000000E-03 0. -1.
         11   -1    0    0    0    0 -0.00000000000E+00 -0.00000000000E+00 -0.45593999997E+02  0.45594000000E+02  0.51100000000E-03 0.  1.
         23    2    1    2    0    0 -0.17763568394E-14  0.00000000000E+00  0.00000000000E+00  0.91188000000E+02  0.91188000000E+02 0.  0.
    9900012    2    3    3    0    0 -0.11739064992E+02 -0.15348436262E+02 -0.31343238621E+02  0.54367099009E+02  0.40000033810E+02 0.  0.
         12    1    3    3    0    0  0.11739064992E+02  0.15348436262E+02  0.31343238621E+02  0.36820900991E+02  0.00000000000E+00 0. -1.
         11    1    4    4    0    0 -0.11982124660E+02 -0.21280365528E+02 -0.14229739456E+02  0.28265009351E+02  0.51100000000E-03 0. -1.
        -11    1    4    4    0    0 -0.55538600384E+01 -0.10724160265E+00 -0.16833415625E+02  0.17726272703E+02  0.51100000000E-03 0.  1.
         12    1    4    4    0    0  0.57969197066E+01  0.60391708683E+01 -0.28008353936E+00  0.83758169542E+01  0.00000000000E+00 0. -1.
</event>
<event>
 8    1  0.1212194E-006  0.9118800E+02  0.7816164E-02  0.1184000E+00
        -11   -1    0    0    0    0  0.00000000000E+00  0.00000000000E+00  0.45593999997E+02  0.45594000000E+02  0.51100000000E-03 0.  1.
         11   -1    0    0    0    0 -0.00000000000E+00 -0.00000000000E+00 -0.45593999997E+02  0.45594000000E+02  0.51100000000E-03 0. -1.
         23    2    1    2    0    0  0.00000000000E+00 -0.13322676296E-14  0.00000000000E+00  0.91188000000E+02  0.91188000000E+02 0.  0.
    9900012    2    3    3    0    0 -0.27884921780E+02  0.32514198063E+01  0.23825164029E+02  0.54367095143E+02  0.40000024998E+02 0.  0.
         12    1    3    3    0    0  0.27884921780E+02 -0.32514198063E+01 -0.23825164029E+02  0.36820904857E+02  0.00000000000E+00 0. -1.
         11    1    4    4    0    0 -0.20090292453E+01 -0.13025525149E+02 -0.30653807419E+01  0.13531336345E+02  0.51100000000E-03 0. -1.
        -11    1    4    4    0    0 -0.11482340950E+02  0.89192310552E+01  0.13596212497E+02  0.19906125460E+02  0.51100000000E-03 0.  1.
         12    1    4    4    0    0 -0.14393551585E+02  0.73577139005E+01  0.13294332274E+02  0.20929633339E+02  0.00000000000E+00 0. -1.
</event>
<event>
 8    1  0.1212194E-006  0.9118800E+02  0.7816164E-02  0.1184000E+00
        -11   -1    0    0    0    0  0.00000000000E+00  0.00000000000E+00  0.45593999997E+02  0.45594000000E+02  0.51100000000E-03 0.  1.
         11   -1    0    0    0    0 -0.00000000000E+00 -0.00000000000E+00 -0.45593999997E+02  0.45594000000E+02  0.51100000000E-03 0. -1.
         23    2    1    2    0    0 -0.88817841970E-15 -0.71054273576E-14  0.22204460493E-15  0.91188000000E+02  0.91188000000E+02 0.  0.
    9900012    2    3    3    0    0 -0.20935590104E+01  0.36745600438E+02  0.10761514217E+01  0.54367078736E+02  0.39999987593E+02 0.  0.
        -12    1    3    3    0    0  0.20935590104E+01 -0.36745600438E+02 -0.10761514217E+01  0.36820921264E+02  0.00000000000E+00 0.  1.
         11    1    4    4    0    0  0.21299145141E+01  0.38694902178E+02  0.19618518211E+01  0.38803103654E+02  0.51100000000E-03 0. -1.
        -11    1    4    4    0    0 -0.83584093583E+01 -0.54135520138E+01  0.57626779386E+00  0.99750507386E+01  0.51100000000E-03 0.  1.
        -12    1    4    4    0    0  0.41349358337E+01  0.34642502741E+01 -0.14619681932E+01  0.55889243427E+01  0.00000000000E+00 0.  1.
</event>
<event>
 8    1  0.1212194E-006  0.9118800E+02  0.7816164E-02  0.1184000E+00
        -11   -1    0    0    0    0  0.00000000000E+00  0.00000000000E+00  0.45593999997E+02  0.45594000000E+02  0.51100000000E-03 0.  1.
         11   -1    0    0    0    0 -0.00000000000E+00 -0.00000000000E+00 -0.45593999997E+02  0.45594000000E+02  0.51100000000E-03 0. -1.
         23    2    1    2    0    0  0.00000000000E+00  0.00000000000E+00  0.71054273576E-14  0.91188000000E+02  0.91188000000E+02 0.  0.
    9900012    2    3    3    0    0 -0.14585347871E+02 -0.10713328940E+02  0.32066554454E+02  0.54367194685E+02  0.40000251922E+02 0.  0.
         12    1    3    3    0    0  0.14585347871E+02  0.10713328940E+02 -0.32066554454E+02  0.36820805315E+02  0.00000000000E+00 0. -1.
         11    1    4    4    0    0 -0.18515529098E+02  0.79683268279E+01  0.11743887220E+02  0.23328907765E+02  0.51100000000E-03 0. -1.
        -11    1    4    4    0    0  0.47354612411E+01 -0.80459758077E+01  0.15738039781E+01  0.94677969500E+01  0.51100000000E-03 0.  1.
        -12    1    4    4    0    0 -0.80528001384E+00 -0.10635679961E+02  0.18748863256E+02  0.21570489969E+02  0.00000000000E+00 0.  1.
</event>
<event>
 8    1  0.1212194E-006  0.9118800E+02  0.7816164E-02  0.1184000E+00
        -11   -1    0    0    0    0  0.00000000000E+00  0.00000000000E+00  0.45593999997E+02  0.45594000000E+02  0.51100000000E-03 0. -1.
         11   -1    0    0    0    0 -0.00000000000E+00 -0.00000000000E+00 -0.45593999997E+02  0.45594000000E+02  0.51100000000E-03 0.  1.
         23    2    1    2    0    0  0.00000000000E+00 -0.88817841970E-15 -0.35527136788E-14  0.91188000000E+02  0.91188000000E+02 0.  0.
    9900012    2    3    3    0    0 -0.23278610173E+02  0.62861150161E+01 -0.27827530856E+02  0.54367076504E+02  0.39999982505E+02 0.  0.
         12    1    3    3    0    0  0.23278610173E+02 -0.62861150161E+01  0.27827530856E+02  0.36820923496E+02  0.00000000000E+00 0. -1.
         11    1    4    4    0    0 -0.68952470921E+01 -0.13632566310E+02 -0.17707361810E+01  0.15379427933E+02  0.51100000000E-03 0. -1.
        -11    1    4    4    0    0 -0.69097416168E+01  0.17960927834E+02 -0.15920977735E+02  0.24976328596E+02  0.51100000000E-03 0.  1.
         12    1    4    4    0    0 -0.94736214639E+01  0.19577534926E+01 -0.10135816940E+02  0.14011319974E+02  0.00000000000E+00 0. -1.
</event>
<event>
 8    1  0.1212194E-006  0.9118800E+02  0.7816164E-02  0.1184000E+00
        -11   -1    0    0    0    0  0.00000000000E+00  0.00000000000E+00  0.45593999997E+02  0.45594000000E+02  0.51100000000E-03 0.  1.
         11   -1    0    0    0    0 -0.00000000000E+00 -0.00000000000E+00 -0.45593999997E+02  0.45594000000E+02  0.51100000000E-03 0. -1.
         23    2    1    2    0    0  0.00000000000E+00  0.00000000000E+00  0.00000000000E+00  0.91188000000E+02  0.91188000000E+02 0.  0.
    9900012    2    3    3    0    0  0.86267714950E+01  0.21704149164E+02 -0.28465585132E+02  0.54367070975E+02  0.39999969901E+02 0.  0.
        -12    1    3    3    0    0 -0.86267714950E+01 -0.21704149164E+02  0.28465585132E+02  0.36820929025E+02  0.00000000000E+00 0.  1.
         11    1    4    4    0    0 -0.85621957868E+01  0.11968510642E+02 -0.17442485668E+02  0.22820971719E+02  0.51100000000E-03 0. -1.
        -11    1    4    4    0    0  0.18730046146E+02  0.79898593368E+01 -0.85336919142E-01  0.20363196299E+02  0.51100000000E-03 0.  1.
         12    1    4    4    0    0 -0.15410788644E+01  0.17457791853E+01 -0.10937762545E+02  0.11182902956E+02  0.00000000000E+00 0. -1.
</event>
<event>
 8    1  0.1212194E-006  0.9118800E+02  0.7816164E-02  0.1184000E+00
        -11   -1    0    0    0    0  0.00000000000E+00  0.00000000000E+00  0.45593999997E+02  0.45594000000E+02  0.51100000000E-03 0. -1.
         11   -1    0    0    0    0 -0.00000000000E+00 -0.00000000000E+00 -0.45593999997E+02  0.45594000000E+02  0.51100000000E-03 0.  1.
         23    2    1    2    0    0  0.00000000000E+00  0.00000000000E+00  0.00000000000E+00  0.91188000000E+02  0.91188000000E+02 0.  0.
    9900012    2    3    3    0    0 -0.32007275725E+02 -0.13405137038E+02  0.12313216326E+02  0.54367099758E+02  0.40000035518E+02 0.  0.
        -12    1    3    3    0    0  0.32007275725E+02  0.13405137038E+02 -0.12313216326E+02  0.36820900242E+02  0.00000000000E+00 0.  1.
         11    1    4    4    0    0 -0.21868640838E+02  0.65016020719E+01  0.14660522034E+01  0.22861705775E+02  0.51100000000E-03 0. -1.
        -11    1    4    4    0    0  0.52270116845E+01 -0.49317854805E+01 -0.55545419402E+00  0.72078213629E+01  0.51100000000E-03 0.  1.
         12    1    4    4    0    0 -0.15365646571E+02 -0.14974953629E+02  0.11402618317E+02  0.24297572620E+02  0.00000000000E+00 0. -1.
</event>
<event>
 8    1  0.1212194E-006  0.9118800E+02  0.7816164E-02  0.1184000E+00
        -11   -1    0    0    0    0  0.00000000000E+00  0.00000000000E+00  0.45593999997E+02  0.45594000000E+02  0.51100000000E-03 0.  1.
         11   -1    0    0    0    0 -0.00000000000E+00 -0.00000000000E+00 -0.45593999997E+02  0.45594000000E+02  0.51100000000E-03 0. -1.
         23    2    1    2    0    0  0.00000000000E+00 -0.17763568394E-14  0.00000000000E+00  0.91188000000E+02  0.91188000000E+02 0.  0.
    9900012    2    3    3    0    0  0.65412993302E+01  0.12805870641E+02 -0.33896900633E+02  0.54367098431E+02  0.40000032494E+02 0.  0.
        -12    1    3    3    0    0 -0.65412993302E+01 -0.12805870641E+02  0.33896900633E+02  0.36820901569E+02  0.00000000000E+00 0.  1.
         11    1    4    4    0    0  0.74282487580E+01  0.63205262340E+01 -0.14231567877E+02  0.17252983973E+02  0.51100000000E-03 0. -1.
        -11    1    4    4    0    0  0.61941541508E+01  0.94721367118E-01  0.66709411069E+01  0.91037340303E+01  0.51100000000E-03 0.  1.
        -12    1    4    4    0    0 -0.70811035785E+01  0.63906230402E+01 -0.26336273863E+02  0.28010380428E+02  0.00000000000E+00 0.  1.
</event>
<event>
 8    1  0.1212194E-006  0.9118800E+02  0.7816164E-02  0.1184000E+00
        -11   -1    0    0    0    0  0.00000000000E+00  0.00000000000E+00  0.45593999997E+02  0.45594000000E+02  0.51100000000E-03 0. -1.
         11   -1    0    0    0    0 -0.00000000000E+00 -0.00000000000E+00 -0.45593999997E+02  0.45594000000E+02  0.51100000000E-03 0.  1.
         23    2    1    2    0    0  0.00000000000E+00 -0.35527136788E-14  0.00000000000E+00  0.91188000000E+02  0.91188000000E+02 0.  0.
    9900012    2    3    3    0    0  0.24810711718E+02  0.23789738288E+02 -0.13200550959E+02  0.54367114495E+02  0.40000069114E+02 0.  0.
         12    1    3    3    0    0 -0.24810711718E+02 -0.23789738288E+02  0.13200550959E+02  0.36820885505E+02  0.00000000000E+00 0. -1.
         11    1    4    4    0    0  0.21017529034E+02  0.10970569327E+02 -0.46045051233E+01  0.24151426164E+02  0.51100000000E-03 0. -1.
        -11    1    4    4    0    0 -0.40689140037E+01  0.73977267043E+01  0.76352391808E+01  0.11383290349E+02  0.51100000000E-03 0.  1.
        -12    1    4    4    0    0  0.78620966880E+01  0.54214422559E+01 -0.16231285017E+02  0.18832397982E+02  0.00000000000E+00 0.  1.
</event>
<event>
 8    1  0.1212194E-006  0.9118800E+02  0.7816164E-02  0.1184000E+00
        -11   -1    0    0    0    0  0.00000000000E+00  0.00000000000E+00  0.45593999997E+02  0.45594000000E+02  0.51100000000E-03 0. -1.
         11   -1    0    0    0    0 -0.00000000000E+00 -0.00000000000E+00 -0.45593999997E+02  0.45594000000E+02  0.51100000000E-03 0.  1.
         23    2    1    2    0    0  0.00000000000E+00  0.00000000000E+00 -0.17763568394E-14  0.91188000000E+02  0.91188000000E+02 0.  0.
    9900012    2    3    3    0    0  0.23307599505E+02 -0.27495981586E+02  0.75173056933E+01  0.54367040168E+02  0.39999899671E+02 0.  0.
        -12    1    3    3    0    0 -0.23307599505E+02  0.27495981586E+02 -0.75173056933E+01  0.36820959832E+02  0.00000000000E+00 0.  1.
         11    1    4    4    0    0  0.15696149053E+02 -0.19619295460E+02 -0.78057707795E+01  0.26309996335E+02  0.51100000000E-03 0. -1.
        -11    1    4    4    0    0  0.60953615668E+01 -0.74523773323E+01  0.20498828305E+02  0.22647148224E+02  0.51100000000E-03 0.  1.
         12    1    4    4    0    0  0.15160888848E+01 -0.42430879387E+00 -0.51757518327E+01  0.54098956083E+01  0.00000000000E+00 0. -1.
</event>
<event>
 8    1  0.1212194E-006  0.9118800E+02  0.7816164E-02  0.1184000E+00
        -11   -1    0    0    0    0  0.00000000000E+00  0.00000000000E+00  0.45593999997E+02  0.45594000000E+02  0.51100000000E-03 0.  1.
         11   -1    0    0    0    0 -0.00000000000E+00 -0.00000000000E+00 -0.45593999997E+02  0.45594000000E+02  0.51100000000E-03 0. -1.
         23    2    1    2    0    0  0.00000000000E+00  0.00000000000E+00  0.00000000000E+00  0.91188000000E+02  0.91188000000E+02 0.  0.
    9900012    2    3    3    0    0 -0.46763514279E+01 -0.35348176289E+02  0.91878241784E+01  0.54367109967E+02  0.40000058793E+02 0.  0.
         12    1    3    3    0    0  0.46763514279E+01  0.35348176289E+02 -0.91878241784E+01  0.36820890033E+02  0.00000000000E+00 0. -1.
         11    1    4    4    0    0 -0.11441114244E+02 -0.54452708527E+01 -0.78440361356E+01  0.14902314349E+02  0.51100000000E-03 0. -1.
        -11    1    4    4    0    0  0.66108639658E+00 -0.57696355473E+00  0.81841267302E+01  0.82310298726E+01  0.51100000000E-03 0.  1.
        -12    1    4    4    0    0  0.61036764194E+01 -0.29325941882E+02  0.88477335838E+01  0.31233765746E+02  0.00000000000E+00 0.  1.
</event>
<event>
 8    1  0.1212194E-006  0.9118800E+02  0.7816164E-02  0.1184000E+00
        -11   -1    0    0    0    0  0.00000000000E+00  0.00000000000E+00  0.45593999997E+02  0.45594000000E+02  0.51100000000E-03 0. -1.
         11   -1    0    0    0    0 -0.00000000000E+00 -0.00000000000E+00 -0.45593999997E+02  0.45594000000E+02  0.51100000000E-03 0.  1.
         23    2    1    2    0    0 -0.35527136788E-14  0.00000000000E+00  0.35527136788E-14  0.91188000000E+02  0.91188000000E+02 0.  0.
    9900012    2    3    3    0    0  0.18623337556E+02 -0.16403968278E+02 -0.27200379188E+02  0.54367088755E+02  0.40000010434E+02 0.  0.
         12    1    3    3    0    0 -0.18623337556E+02  0.16403968278E+02  0.27200379188E+02  0.36820911245E+02  0.00000000000E+00 0. -1.
         11    1    4    4    0    0  0.74684088856E+01 -0.60575766168E-01  0.38737030391E+01  0.84134639835E+01  0.51100000000E-03 0. -1.
        -11    1    4    4    0    0  0.11974579526E+02 -0.31651152513E+01 -0.30292454194E+02  0.32726767191E+02  0.51100000000E-03 0.  1.
        -12    1    4    4    0    0 -0.81965085602E+00 -0.13178277260E+02 -0.78162803258E+00  0.13226857580E+02  0.00000000000E+00 0.  1.
</event>
<event>
 8    1  0.1212194E-006  0.9118800E+02  0.7816164E-02  0.1184000E+00
        -11   -1    0    0    0    0  0.00000000000E+00  0.00000000000E+00  0.45593999997E+02  0.45594000000E+02  0.51100000000E-03 0. -1.
         11   -1    0    0    0    0 -0.00000000000E+00 -0.00000000000E+00 -0.45593999997E+02  0.45594000000E+02  0.51100000000E-03 0.  1.
         23    2    1    2    0    0  0.00000000000E+00  0.00000000000E+00  0.17763568394E-14  0.91188000000E+02  0.91188000000E+02 0.  0.
    9900012    2    3    3    0    0  0.11696433242E+02 -0.33107570622E+02  0.11084399174E+02  0.54367059108E+02  0.39999942849E+02 0.  0.
         12    1    3    3    0    0 -0.11696433242E+02  0.33107570622E+02 -0.11084399174E+02  0.36820940892E+02  0.00000000000E+00 0. -1.
         11    1    4    4    0    0 -0.50069518831E+01 -0.34575275708E+01 -0.64982070041E+01  0.89022895140E+01  0.51100000000E-03 0. -1.
        -11    1    4    4    0    0  0.19470787013E+02 -0.15225531966E+02  0.32268896054E+01  0.24926716337E+02  0.51100000000E-03 0.  1.
         12    1    4    4    0    0 -0.27674018882E+01 -0.14424511085E+02  0.14355716573E+02  0.20538053257E+02  0.00000000000E+00 0. -1.
</event>
<event>
 8    1  0.1212194E-006  0.9118800E+02  0.7816164E-02  0.1184000E+00
        -11   -1    0    0    0    0  0.00000000000E+00  0.00000000000E+00  0.45593999997E+02  0.45594000000E+02  0.51100000000E-03 0.  1.
         11   -1    0    0    0    0 -0.00000000000E+00 -0.00000000000E+00 -0.45593999997E+02  0.45594000000E+02  0.51100000000E-03 0. -1.
         23    2    1    2    0    0  0.17763568394E-14 -0.35527136788E-14  0.00000000000E+00  0.91188000000E+02  0.91188000000E+02 0.  0.
    9900012    2    3    3    0    0 -0.11853782266E+02 -0.30658290043E+02  0.16593447762E+02  0.54367008555E+02  0.39999827603E+02 0.  0.
         12    1    3    3    0    0  0.11853782266E+02  0.30658290043E+02 -0.16593447762E+02  0.36820991445E+02  0.00000000000E+00 0. -1.
         11    1    4    4    0    0 -0.17134820022E+02 -0.70978541082E+01  0.14891066420E+02  0.23784983698E+02  0.51100000000E-03 0. -1.
        -11    1    4    4    0    0 -0.69507478487E+00 -0.24179893817E+02  0.31714540721E+01  0.24396895605E+02  0.51100000000E-03 0.  1.
         12    1    4    4    0    0  0.59761125410E+01  0.61945788260E+00 -0.14690727309E+01  0.61851292516E+01  0.00000000000E+00 0. -1.
</event>
<event>
 8    1  0.1212194E-006  0.9118800E+02  0.7816164E-02  0.1184000E+00
        -11   -1    0    0    0    0  0.00000000000E+00  0.00000000000E+00  0.45593999997E+02  0.45594000000E+02  0.51100000000E-03 0.  1.
         11   -1    0    0    0    0 -0.00000000000E+00 -0.00000000000E+00 -0.45593999997E+02  0.45594000000E+02  0.51100000000E-03 0. -1.
         23    2    1    2    0    0 -0.35527136788E-14 -0.35527136788E-14  0.17763568394E-14  0.91188000000E+02  0.91188000000E+02 0.  0.
    9900012    2    3    3    0    0  0.30942471705E+02  0.18838683182E+02 -0.65914861883E+01  0.54367078917E+02  0.39999988007E+02 0.  0.
        -12    1    3    3    0    0 -0.30942471705E+02 -0.18838683182E+02  0.65914861883E+01  0.36820921083E+02  0.00000000000E+00 0.  1.
         11    1    4    4    0    0  0.26867555386E+02 -0.22795488098E+01 -0.67676344590E+01  0.27800409199E+02  0.51100000000E-03 0. -1.
        -11    1    4    4    0    0  0.62069181148E+01  0.16367929130E+01  0.23784166738E+01  0.68455671540E+01  0.51100000000E-03 0.  1.
        -12    1    4    4    0    0 -0.21320017961E+01  0.19481439079E+02 -0.22022684032E+01  0.19721102564E+02  0.00000000000E+00 0.  1.
</event>
<event>
 8    1  0.1212194E-006  0.9118800E+02  0.7816164E-02  0.1184000E+00
        -11   -1    0    0    0    0  0.00000000000E+00  0.00000000000E+00  0.45593999997E+02  0.45594000000E+02  0.51100000000E-03 0.  1.
         11   -1    0    0    0    0 -0.00000000000E+00 -0.00000000000E+00 -0.45593999997E+02  0.45594000000E+02  0.51100000000E-03 0. -1.
         23    2    1    2    0    0  0.00000000000E+00  0.00000000000E+00 -0.17763568394E-14  0.91188000000E+02  0.91188000000E+02 0.  0.
    9900012    2    3    3    0    0 -0.16411739955E+02  0.29923240640E+02 -0.13821899427E+02  0.54366940231E+02  0.39999671843E+02 0.  0.
         12    1    3    3    0    0  0.16411739955E+02 -0.29923240640E+02  0.13821899427E+02  0.36821059769E+02  0.00000000000E+00 0. -1.
         11    1    4    4    0    0 -0.11327003788E+02  0.67295260454E+01 -0.80947756047E+01  0.15463276754E+02  0.51100000000E-03 0. -1.
        -11    1    4    4    0    0 -0.17385789133E+02  0.14365909334E+02 -0.72415650179E+01  0.23687238736E+02  0.51100000000E-03 0.  1.
         12    1    4    4    0    0  0.12301052966E+02  0.88278052603E+01  0.15144411956E+01  0.15216424741E+02  0.00000000000E+00 0. -1.
</event>
<event>
 8    1  0.1212194E-006  0.9118800E+02  0.7816164E-02  0.1184000E+00
        -11   -1    0    0    0    0  0.00000000000E+00  0.00000000000E+00  0.45593999997E+02  0.45594000000E+02  0.51100000000E-03 0. -1.
         11   -1    0    0    0    0 -0.00000000000E+00 -0.00000000000E+00 -0.45593999997E+02  0.45594000000E+02  0.51100000000E-03 0.  1.
         23    2    1    2    0    0  0.00000000000E+00 -0.17763568394E-14  0.00000000000E+00  0.91188000000E+02  0.91188000000E+02 0.  0.
    9900012    2    3    3    0    0 -0.30017687889E+02  0.82728769885E+01  0.19653945604E+02  0.54367086681E+02  0.40000005706E+02 0.  0.
        -12    1    3    3    0    0  0.30017687889E+02 -0.82728769885E+01 -0.19653945604E+02  0.36820913319E+02  0.00000000000E+00 0.  1.
         11    1    4    4    0    0 -0.27789167853E+02 -0.66519784006E+01  0.15095576790E+02  0.32316607270E+02  0.51100000000E-03 0. -1.
        -11    1    4    4    0    0 -0.50873546765E+01  0.14531444152E+02 -0.13699854983E+01  0.15457066580E+02  0.51100000000E-03 0.  1.
         12    1    4    4    0    0  0.28588346403E+01  0.39341123730E+00  0.59283543119E+01  0.65934128302E+01  0.00000000000E+00 0. -1.
</event>
<event>
 8    1  0.1212194E-006  0.9118800E+02  0.7816164E-02  0.1184000E+00
        -11   -1    0    0    0    0  0.00000000000E+00  0.00000000000E+00  0.45593999997E+02  0.45594000000E+02  0.51100000000E-03 0.  1.
         11   -1    0    0    0    0 -0.00000000000E+00 -0.00000000000E+00 -0.45593999997E+02  0.45594000000E+02  0.51100000000E-03 0. -1.
         23    2    1    2    0    0  0.35527136788E-14 -0.35527136788E-14  0.35527136788E-14  0.91188000000E+02  0.91188000000E+02 0.  0.
    9900012    2    3    3    0    0 -0.16309086624E+02 -0.15394187166E+02  0.29202967801E+02  0.54367073431E+02  0.39999975500E+02 0.  0.
        -12    1    3    3    0    0  0.16309086624E+02  0.15394187166E+02 -0.29202967801E+02  0.36820926569E+02  0.00000000000E+00 0.  1.
         11    1    4    4    0    0 -0.61141265922E+01 -0.17488406737E+02  0.12225363355E+02  0.22196540803E+02  0.51100000000E-03 0. -1.
        -11    1    4    4    0    0  0.37202214025E+01 -0.87955134642E+01  0.73292993957E+01  0.12038261265E+02  0.51100000000E-03 0.  1.
         12    1    4    4    0    0 -0.13915181434E+02  0.10889733034E+02  0.96483050501E+01  0.20132271363E+02  0.00000000000E+00 0. -1.
</event>
<event>
 8    1  0.1212194E-006  0.9118800E+02  0.7816164E-02  0.1184000E+00
        -11   -1    0    0    0    0  0.00000000000E+00  0.00000000000E+00  0.45593999997E+02  0.45594000000E+02  0.51100000000E-03 0. -1.
         11   -1    0    0    0    0 -0.00000000000E+00 -0.00000000000E+00 -0.45593999997E+02  0.45594000000E+02  0.51100000000E-03 0.  1.
         23    2    1    2    0    0  0.00000000000E+00  0.00000000000E+00  0.00000000000E+00  0.91188000000E+02  0.91188000000E+02 0.  0.
    9900012    2    3    3    0    0 -0.32842351134E+02  0.16258720784E+02 -0.35796532523E+01  0.54367082752E+02  0.39999996751E+02 0.  0.
        -12    1    3    3    0    0  0.32842351134E+02 -0.16258720784E+02  0.35796532523E+01  0.36820917248E+02  0.00000000000E+00 0.  1.
         11    1    4    4    0    0 -0.88230426928E+01  0.10395947244E+02  0.24050179563E+01  0.13845790446E+02  0.51100000000E-03 0. -1.
        -11    1    4    4    0    0 -0.19588570536E+02  0.18340941416E+02 -0.38916908414E+01  0.27115447360E+02  0.51100000000E-03 0.  1.
        -12    1    4    4    0    0 -0.44307379053E+01 -0.12478167875E+02 -0.20929803672E+01  0.13405844946E+02  0.00000000000E+00 0.  1.
</event>
<event>
 8    1  0.1212194E-006  0.9118800E+02  0.7816164E-02  0.1184000E+00
        -11   -1    0    0    0    0  0.00000000000E+00  0.00000000000E+00  0.45593999997E+02  0.45594000000E+02  0.51100000000E-03 0.  1.
         11   -1    0    0    0    0 -0.00000000000E+00 -0.00000000000E+00 -0.45593999997E+02  0.45594000000E+02  0.51100000000E-03 0. -1.
         23    2    1    2    0    0  0.00000000000E+00  0.88817841970E-15  0.00000000000E+00  0.91188000000E+02  0.91188000000E+02 0.  0.
    9900012    2    3    3    0    0  0.20367329590E+02  0.70694568486E+01 -0.29849180395E+02  0.54367096901E+02  0.40000029005E+02 0.  0.
        -12    1    3    3    0    0 -0.20367329590E+02 -0.70694568486E+01  0.29849180395E+02  0.36820903099E+02  0.00000000000E+00 0.  1.
         11    1    4    4    0    0  0.79747381351E+01 -0.13137242265E+02 -0.52977002884E+01  0.16255743947E+02  0.51100000000E-03 0. -1.
        -11    1    4    4    0    0  0.13981912701E+02  0.84073305896E+01 -0.18790287671E+02  0.24884774490E+02  0.51100000000E-03 0.  1.
        -12    1    4    4    0    0 -0.15893212463E+01  0.11799368524E+02 -0.57611924361E+01  0.13226578464E+02  0.00000000000E+00 0.  1.
</event>
<event>
 8    1  0.1212194E-006  0.9118800E+02  0.7816164E-02  0.1184000E+00
        -11   -1    0    0    0    0  0.00000000000E+00  0.00000000000E+00  0.45593999997E+02  0.45594000000E+02  0.51100000000E-03 0.  1.
         11   -1    0    0    0    0 -0.00000000000E+00 -0.00000000000E+00 -0.45593999997E+02  0.45594000000E+02  0.51100000000E-03 0. -1.
         23    2    1    2    0    0 -0.35527136788E-14  0.00000000000E+00  0.35527136788E-14  0.91188000000E+02  0.91188000000E+02 0.  0.
    9900012    2    3    3    0    0 -0.30196392887E+02  0.10377513987E+02  0.18337527286E+02  0.54367084111E+02  0.39999999847E+02 0.  0.
         12    1    3    3    0    0  0.30196392887E+02 -0.10377513987E+02 -0.18337527286E+02  0.36820915889E+02  0.00000000000E+00 0. -1.
         11    1    4    4    0    0  0.81090451977E+00 -0.63023013608E+01 -0.60826147820E+01  0.87962930505E+01  0.51100000000E-03 0. -1.
        -11    1    4    4    0    0 -0.23335207605E+02  0.18678325175E+02  0.15617277129E+02  0.33724043211E+02  0.51100000000E-03 0.  1.
         12    1    4    4    0    0 -0.76720898020E+01 -0.19985098270E+01  0.88028649399E+01  0.11846747849E+02  0.00000000000E+00 0. -1.
</event>
<event>
 8    1  0.1212194E-006  0.9118800E+02  0.7816164E-02  0.1184000E+00
        -11   -1    0    0    0    0  0.00000000000E+00  0.00000000000E+00  0.45593999997E+02  0.45594000000E+02  0.51100000000E-03 0. -1.
         11   -1    0    0    0    0 -0.00000000000E+00 -0.00000000000E+00 -0.45593999997E+02  0.45594000000E+02  0.51100000000E-03 0.  1.
         23    2    1    2    0    0  0.00000000000E+00  0.00000000000E+00  0.00000000000E+00  0.91188000000E+02  0.91188000000E+02 0.  0.
    9900012    2    3    3    0    0  0.34698384178E+02  0.99840288561E+01 -0.72194641293E+01  0.54367090735E+02  0.40000014949E+02 0.  0.
         12    1    3    3    0    0 -0.34698384178E+02 -0.99840288561E+01  0.72194641293E+01  0.36820909265E+02  0.00000000000E+00 0. -1.
         11    1    4    4    0    0  0.26711632729E+02 -0.80556063855E+00  0.43045540560E+01  0.27068236678E+02  0.51100000000E-03 0. -1.
        -11    1    4    4    0    0 -0.57637785115E+01  0.73625433325E+01 -0.88563635580E+01  0.12878795083E+02  0.51100000000E-03 0.  1.
        -12    1    4    4    0    0  0.13750529961E+02  0.34270461621E+01 -0.26676546273E+01  0.14420058974E+02  0.00000000000E+00 0.  1.
</event>
<event>
 8    1  0.1212194E-006  0.9118800E+02  0.7816164E-02  0.1184000E+00
        -11   -1    0    0    0    0  0.00000000000E+00  0.00000000000E+00  0.45593999997E+02  0.45594000000E+02  0.51100000000E-03 0. -1.
         11   -1    0    0    0    0 -0.00000000000E+00 -0.00000000000E+00 -0.45593999997E+02  0.45594000000E+02  0.51100000000E-03 0.  1.
         23    2    1    2    0    0  0.17763568394E-14  0.00000000000E+00  0.00000000000E+00  0.91188000000E+02  0.91188000000E+02 0.  0.
    9900012    2    3    3    0    0  0.12933956973E+02  0.95763251013E+01 -0.33117785052E+02  0.54367069374E+02  0.39999966251E+02 0.  0.
         12    1    3    3    0    0 -0.12933956973E+02 -0.95763251013E+01  0.33117785052E+02  0.36820930626E+02  0.00000000000E+00 0. -1.
         11    1    4    4    0    0 -0.12103417773E+02 -0.20007630184E+01 -0.14221537382E+02  0.18781584071E+02  0.51100000000E-03 0. -1.
        -11    1    4    4    0    0  0.61162455405E+01 -0.24257133100E+01 -0.48505174663E+01  0.81743540739E+01  0.51100000000E-03 0.  1.
         12    1    4    4    0    0  0.18921129205E+02  0.14002801430E+02 -0.14045730204E+02  0.27411131229E+02  0.00000000000E+00 0. -1.
</event>
<event>
 8    1  0.1212194E-006  0.9118800E+02  0.7816164E-02  0.1184000E+00
        -11   -1    0    0    0    0  0.00000000000E+00  0.00000000000E+00  0.45593999997E+02  0.45594000000E+02  0.51100000000E-03 0.  1.
         11   -1    0    0    0    0 -0.00000000000E+00 -0.00000000000E+00 -0.45593999997E+02  0.45594000000E+02  0.51100000000E-03 0. -1.
         23    2    1    2    0    0  0.00000000000E+00  0.00000000000E+00  0.00000000000E+00  0.91188000000E+02  0.91188000000E+02 0.  0.
    9900012    2    3    3    0    0 -0.20510004400E+02 -0.25847448754E+02  0.16340996879E+02  0.54367094707E+02  0.40000024004E+02 0.  0.
         12    1    3    3    0    0  0.20510004400E+02  0.25847448754E+02 -0.16340996879E+02  0.36820905293E+02  0.00000000000E+00 0. -1.
         11    1    4    4    0    0 -0.17700878191E+02 -0.12402892347E+02 -0.49496842470E+01  0.22173231648E+02  0.51100000000E-03 0. -1.
        -11    1    4    4    0    0 -0.11068836651E+02 -0.52179615338E+01  0.13225283791E+02  0.18018168580E+02  0.51100000000E-03 0.  1.
         12    1    4    4    0    0  0.82597104419E+01 -0.82265948732E+01  0.80653973347E+01  0.14175694479E+02  0.00000000000E+00 0. -1.
</event>
<event>
 8    1  0.1212194E-006  0.9118800E+02  0.7816164E-02  0.1184000E+00
        -11   -1    0    0    0    0  0.00000000000E+00  0.00000000000E+00  0.45593999997E+02  0.45594000000E+02  0.51100000000E-03 0.  1.
         11   -1    0    0    0    0 -0.00000000000E+00 -0.00000000000E+00 -0.45593999997E+02  0.45594000000E+02  0.51100000000E-03 0. -1.
         23    2    1    2    0    0  0.00000000000E+00  0.00000000000E+00  0.00000000000E+00  0.91188000000E+02  0.91188000000E+02 0.  0.
    9900012    2    3    3    0    0 -0.50899594864E+01 -0.13782797805E+02  0.33762507110E+02  0.54367080819E+02  0.39999992344E+02 0.  0.
        -12    1    3    3    0    0  0.50899594864E+01  0.13782797805E+02 -0.33762507110E+02  0.36820919181E+02  0.00000000000E+00 0.  1.
         11    1    4    4    0    0  0.40190596258E+01 -0.18364190153E+02  0.71657652330E+01  0.20118263143E+02  0.51100000000E-03 0.  1.
        -11    1    4    4    0    0  0.58441828479E+01 -0.19636452719E+00  0.64041499413E+01  0.86721490369E+01  0.51100000000E-03 0. -1.
        -12    1    4    4    0    0 -0.14953201960E+02  0.47777568744E+01  0.20192591936E+02  0.25576668640E+02  0.00000000000E+00 0.  1.
</event>
<event>
 8    1  0.1212194E-006  0.9118800E+02  0.7816164E-02  0.1184000E+00
        -11   -1    0    0    0    0  0.00000000000E+00  0.00000000000E+00  0.45593999997E+02  0.45594000000E+02  0.51100000000E-03 0.  1.
         11   -1    0    0    0    0 -0.00000000000E+00 -0.00000000000E+00 -0.45593999997E+02  0.45594000000E+02  0.51100000000E-03 0. -1.
         23    2    1    2    0    0  0.00000000000E+00  0.17763568394E-14  0.00000000000E+00  0.91188000000E+02  0.91188000000E+02 0.  0.
    9900012    2    3    3    0    0  0.34011509765E+02  0.10092033516E+02  0.98564343271E+01  0.54367065266E+02  0.39999956888E+02 0.  0.
         12    1    3    3    0    0 -0.34011509765E+02 -0.10092033516E+02 -0.98564343271E+01  0.36820934734E+02  0.00000000000E+00 0. -1.
         11    1    4    4    0    0 -0.14633957589E+01 -0.45509976508E+01  0.26462518476E+01  0.54640420813E+01  0.51100000000E-03 0. -1.
        -11    1    4    4    0    0 -0.12126618618E+01  0.58929821780E+01  0.93581512796E+01  0.11125321720E+02  0.51100000000E-03 0.  1.
         12    1    4    4    0    0  0.36687567386E+02  0.87500489892E+01 -0.21479688001E+01  0.37777701465E+02  0.00000000000E+00 0. -1.
</event>
<event>
 8    1  0.1212194E-006  0.9118800E+02  0.7816164E-02  0.1184000E+00
        -11   -1    0    0    0    0  0.00000000000E+00  0.00000000000E+00  0.45593999997E+02  0.45594000000E+02  0.51100000000E-03 0. -1.
         11   -1    0    0    0    0 -0.00000000000E+00 -0.00000000000E+00 -0.45593999997E+02  0.45594000000E+02  0.51100000000E-03 0.  1.
         23    2    1    2    0    0 -0.17763568394E-14  0.00000000000E+00  0.17763568394E-14  0.91188000000E+02  0.91188000000E+02 0.  0.
    9900012    2    3    3    0    0 -0.10922314999E+02 -0.33006385134E+02  0.12126875414E+02  0.54367088389E+02  0.40000009601E+02 0.  0.
        -12    1    3    3    0    0  0.10922314999E+02  0.33006385134E+02 -0.12126875414E+02  0.36820911611E+02  0.00000000000E+00 0.  1.
         11    1    4    4    0    0 -0.52754273125E+01  0.39822045089E+01 -0.35930379233E+01  0.75231647502E+01  0.51100000000E-03 0.  1.
        -11    1    4    4    0    0  0.60072769211E+01 -0.29442326532E+02  0.12770940879E+02  0.32650189875E+02  0.51100000000E-03 0. -1.
         12    1    4    4    0    0 -0.11654164607E+02 -0.75462631104E+01  0.29489724580E+01  0.14193733765E+02  0.00000000000E+00 0. -1.
</event>
<event>
 8    1  0.1212194E-006  0.9118800E+02  0.7816164E-02  0.1184000E+00
        -11   -1    0    0    0    0  0.00000000000E+00  0.00000000000E+00  0.45593999997E+02  0.45594000000E+02  0.51100000000E-03 0.  1.
         11   -1    0    0    0    0 -0.00000000000E+00 -0.00000000000E+00 -0.45593999997E+02  0.45594000000E+02  0.51100000000E-03 0. -1.
         23    2    1    2    0    0  0.00000000000E+00  0.00000000000E+00  0.00000000000E+00  0.91188000000E+02  0.91188000000E+02 0.  0.
    9900012    2    3    3    0    0 -0.11213051703E+02  0.28763949358E+02 -0.20066905592E+02  0.54367109039E+02  0.40000056677E+02 0.  0.
        -12    1    3    3    0    0  0.11213051703E+02 -0.28763949358E+02  0.20066905592E+02  0.36820890961E+02  0.00000000000E+00 0.  1.
         11    1    4    4    0    0 -0.78237972710E+01  0.95184851807E+01  0.52626033530E+01  0.13398072928E+02  0.51100000000E-03 0.  1.
        -11    1    4    4    0    0  0.87931186159E+01  0.15457773375E+02 -0.81285414718E+01  0.19553385370E+02  0.51100000000E-03 0. -1.
         12    1    4    4    0    0 -0.12182373048E+02  0.37876908022E+01 -0.17200967473E+02  0.21415650742E+02  0.00000000000E+00 0. -1.
</event>
<event>
 8    1  0.1212194E-006  0.9118800E+02  0.7816164E-02  0.1184000E+00
        -11   -1    0    0    0    0  0.00000000000E+00  0.00000000000E+00  0.45593999997E+02  0.45594000000E+02  0.51100000000E-03 0. -1.
         11   -1    0    0    0    0 -0.00000000000E+00 -0.00000000000E+00 -0.45593999997E+02  0.45594000000E+02  0.51100000000E-03 0.  1.
         23    2    1    2    0    0  0.00000000000E+00 -0.17763568394E-14  0.00000000000E+00  0.91188000000E+02  0.91188000000E+02 0.  0.
    9900012    2    3    3    0    0  0.34507447562E+02 -0.10093073049E+02 -0.79464593942E+01  0.54367078261E+02  0.39999986511E+02 0.  0.
         12    1    3    3    0    0 -0.34507447562E+02  0.10093073049E+02  0.79464593942E+01  0.36820921739E+02  0.00000000000E+00 0. -1.
         11    1    4    4    0    0  0.66083946873E+01  0.11889716363E+02 -0.60504215491E+00  0.13616251753E+02  0.51100000000E-03 0. -1.
        -11    1    4    4    0    0  0.68600675158E+01 -0.98294607705E+01 -0.10891610958E+02  0.16195864129E+02  0.51100000000E-03 0.  1.
        -12    1    4    4    0    0  0.21038985359E+02 -0.12153328641E+02  0.35501937185E+01  0.24554962379E+02  0.00000000000E+00 0.  1.
</event>
<event>
 8    1  0.1212194E-006  0.9118800E+02  0.7816164E-02  0.1184000E+00
        -11   -1    0    0    0    0  0.00000000000E+00  0.00000000000E+00  0.45593999997E+02  0.45594000000E+02  0.51100000000E-03 0.  1.
         11   -1    0    0    0    0 -0.00000000000E+00 -0.00000000000E+00 -0.45593999997E+02  0.45594000000E+02  0.51100000000E-03 0. -1.
         23    2    1    2    0    0  0.00000000000E+00  0.00000000000E+00  0.00000000000E+00  0.91188000000E+02  0.91188000000E+02 0.  0.
    9900012    2    3    3    0    0 -0.10443626353E+02  0.27695868896E+02  0.21900903613E+02  0.54367081158E+02  0.39999993117E+02 0.  0.
         12    1    3    3    0    0  0.10443626353E+02 -0.27695868896E+02 -0.21900903613E+02  0.36820918842E+02  0.00000000000E+00 0. -1.
         11    1    4    4    0    0 -0.38865724468E+01  0.33694445250E+02  0.18367449911E+02  0.38571807095E+02  0.51100000000E-03 0. -1.
        -11    1    4    4    0    0 -0.55927418497E+01  0.19085076898E+01  0.49450510845E+01  0.77054976146E+01  0.51100000000E-03 0.  1.
        -12    1    4    4    0    0 -0.96431205648E+00 -0.79070840439E+01 -0.14115973831E+01  0.80897764488E+01  0.00000000000E+00 0.  1.
</event>
<event>
 8    1  0.1212194E-006  0.9118800E+02  0.7816164E-02  0.1184000E+00
        -11   -1    0    0    0    0  0.00000000000E+00  0.00000000000E+00  0.45593999997E+02  0.45594000000E+02  0.51100000000E-03 0.  1.
         11   -1    0    0    0    0 -0.00000000000E+00 -0.00000000000E+00 -0.45593999997E+02  0.45594000000E+02  0.51100000000E-03 0. -1.
         23    2    1    2    0    0  0.00000000000E+00  0.00000000000E+00 -0.26645352591E-14  0.91188000000E+02  0.91188000000E+02 0.  0.
    9900012    2    3    3    0    0  0.20194185400E+02  0.30258736032E+02 -0.56907313656E+01  0.54367073155E+02  0.39999974872E+02 0.  0.
         12    1    3    3    0    0 -0.20194185400E+02 -0.30258736032E+02  0.56907313656E+01  0.36820926845E+02  0.00000000000E+00 0. -1.
         11    1    4    4    0    0 -0.57187824365E+01  0.15762302849E+02  0.86620168759E+01  0.18872869424E+02  0.51100000000E-03 0. -1.
        -11    1    4    4    0    0  0.17642105038E+01  0.18640378732E+01  0.23915634858E+01  0.35080838163E+01  0.51100000000E-03 0.  1.
         12    1    4    4    0    0  0.24148757333E+02  0.12632395310E+02 -0.16744311727E+02  0.31986119915E+02  0.00000000000E+00 0. -1.
</event>
<event>
 8    1  0.1212194E-006  0.9118800E+02  0.7816164E-02  0.1184000E+00
        -11   -1    0    0    0    0  0.00000000000E+00  0.00000000000E+00  0.45593999997E+02  0.45594000000E+02  0.51100000000E-03 0.  1.
         11   -1    0    0    0    0 -0.00000000000E+00 -0.00000000000E+00 -0.45593999997E+02  0.45594000000E+02  0.51100000000E-03 0. -1.
         23    2    1    2    0    0  0.35527136788E-14 -0.17763568394E-14  0.00000000000E+00  0.91188000000E+02  0.91188000000E+02 0.  0.
    9900012    2    3    3    0    0 -0.28928183829E+02  0.10067957805E+02 -0.20434680226E+02  0.54367085428E+02  0.40000002850E+02 0.  0.
        -12    1    3    3    0    0  0.28928183829E+02 -0.10067957805E+02  0.20434680226E+02  0.36820914572E+02  0.00000000000E+00 0.  1.
         11    1    4    4    0    0 -0.79983458197E+01  0.50376280720E+00 -0.14744904964E+02  0.16782119517E+02  0.51100000000E-03 0. -1.
        -11    1    4    4    0    0 -0.61525061650E+01  0.17536398119E+02 -0.87110961303E+01  0.20524662900E+02  0.51100000000E-03 0.  1.
         12    1    4    4    0    0 -0.14777331844E+02 -0.79722031207E+01  0.30213208688E+01  0.17060303011E+02  0.00000000000E+00 0. -1.
</event>
<event>
 8    1  0.1212194E-006  0.9118800E+02  0.7816164E-02  0.1184000E+00
        -11   -1    0    0    0    0  0.00000000000E+00  0.00000000000E+00  0.45593999997E+02  0.45594000000E+02  0.51100000000E-03 0.  1.
         11   -1    0    0    0    0 -0.00000000000E+00 -0.00000000000E+00 -0.45593999997E+02  0.45594000000E+02  0.51100000000E-03 0. -1.
         23    2    1    2    0    0  0.71054273576E-14 -0.35527136788E-14 -0.35527136788E-14  0.91188000000E+02  0.91188000000E+02 0.  0.
    9900012    2    3    3    0    0 -0.22391772432E+02  0.24301196755E+02  0.16243071982E+02  0.54367122447E+02  0.40000087242E+02 0.  0.
         12    1    3    3    0    0  0.22391772432E+02 -0.24301196755E+02 -0.16243071982E+02  0.36820877553E+02  0.00000000000E+00 0. -1.
         11    1    4    4    0    0  0.36827423386E+01 -0.11580932466E+01  0.87550518605E+01  0.95684222545E+01  0.51100000000E-03 0. -1.
        -11    1    4    4    0    0 -0.41780200514E+01 -0.25745343100E+01 -0.50882081576E+01  0.70692249207E+01  0.51100000000E-03 0.  1.
        -12    1    4    4    0    0 -0.21896494719E+02  0.28033824312E+02  0.12576228279E+02  0.37729475271E+02  0.00000000000E+00 0.  1.
</event>
<event>
 8    1  0.1212194E-006  0.9118800E+02  0.7816164E-02  0.1184000E+00
        -11   -1    0    0    0    0  0.00000000000E+00  0.00000000000E+00  0.45593999997E+02  0.45594000000E+02  0.51100000000E-03 0.  1.
         11   -1    0    0    0    0 -0.00000000000E+00 -0.00000000000E+00 -0.45593999997E+02  0.45594000000E+02  0.51100000000E-03 0. -1.
         23    2    1    2    0    0 -0.35527136788E-14  0.35527136788E-14 -0.17763568394E-14  0.91188000000E+02  0.91188000000E+02 0.  0.
    9900012    2    3    3    0    0 -0.23064202837E+02  0.27290808450E+02  0.88902396932E+01  0.54367054328E+02  0.39999931952E+02 0.  0.
        -12    1    3    3    0    0  0.23064202837E+02 -0.27290808450E+02 -0.88902396932E+01  0.36820945672E+02  0.00000000000E+00 0.  1.
         11    1    4    4    0    0 -0.13422830532E+02  0.12433861623E+01 -0.12736985308E+01  0.13540335920E+02  0.51100000000E-03 0. -1.
        -11    1    4    4    0    0 -0.25466983871E+01  0.26200347663E+02 -0.23627439783E+01  0.26429650957E+02  0.51100000000E-03 0.  1.
        -12    1    4    4    0    0 -0.70946739184E+01 -0.15292537535E+00  0.12526682202E+02  0.14397067451E+02  0.00000000000E+00 0.  1.
</event>
<event>
 8    1  0.1212194E-006  0.9118800E+02  0.7816164E-02  0.1184000E+00
        -11   -1    0    0    0    0  0.00000000000E+00  0.00000000000E+00  0.45593999997E+02  0.45594000000E+02  0.51100000000E-03 0.  1.
         11   -1    0    0    0    0 -0.00000000000E+00 -0.00000000000E+00 -0.45593999997E+02  0.45594000000E+02  0.51100000000E-03 0. -1.
         23    2    1    2    0    0  0.35527136788E-14  0.00000000000E+00  0.00000000000E+00  0.91188000000E+02  0.91188000000E+02 0.  0.
    9900012    2    3    3    0    0 -0.25657453950E+02  0.24560010058E+02  0.97098371580E+01  0.54367082373E+02  0.39999995886E+02 0.  0.
        -12    1    3    3    0    0  0.25657453950E+02 -0.24560010058E+02 -0.97098371580E+01  0.36820917627E+02  0.00000000000E+00 0.  1.
         11    1    4    4    0    0 -0.25836905468E+02  0.84011899913E+01  0.19393422958E+02  0.33380091847E+02  0.51100000000E-03 0. -1.
        -11    1    4    4    0    0 -0.44268679695E+01  0.86774887520E+01 -0.61309474088E+01  0.11510190591E+02  0.51100000000E-03 0.  1.
         12    1    4    4    0    0  0.46063194875E+01  0.74813313146E+01 -0.35526383913E+01  0.94767999345E+01  0.00000000000E+00 0. -1.
</event>
<event>
 8    1  0.1212194E-006  0.9118800E+02  0.7816164E-02  0.1184000E+00
        -11   -1    0    0    0    0  0.00000000000E+00  0.00000000000E+00  0.45593999997E+02  0.45594000000E+02  0.51100000000E-03 0.  1.
         11   -1    0    0    0    0 -0.00000000000E+00 -0.00000000000E+00 -0.45593999997E+02  0.45594000000E+02  0.51100000000E-03 0. -1.
         23    2    1    2    0    0  0.00000000000E+00  0.00000000000E+00  0.00000000000E+00  0.91188000000E+02  0.91188000000E+02 0.  0.
    9900012    2    3    3    0    0  0.21118723961E+02 -0.68756808820E+01  0.29368436667E+02  0.54367074406E+02  0.39999977723E+02 0.  0.
         12    1    3    3    0    0 -0.21118723961E+02  0.68756808820E+01 -0.29368436667E+02  0.36820925594E+02  0.00000000000E+00 0. -1.
         11    1    4    4    0    0 -0.21265995433E+01  0.48731055467E+01 -0.21366351153E+00  0.53212062208E+01  0.51100000000E-03 0. -1.
        -11    1    4    4    0    0  0.17599479351E+02  0.58845567511E+01  0.22636552793E+02  0.29270859301E+02  0.51100000000E-03 0.  1.
        -12    1    4    4    0    0  0.56458441528E+01 -0.17633343180E+02  0.69455473860E+01  0.19775008885E+02  0.00000000000E+00 0.  1.
</event>
<event>
 8    1  0.1212194E-006  0.9118800E+02  0.7816164E-02  0.1184000E+00
        -11   -1    0    0    0    0  0.00000000000E+00  0.00000000000E+00  0.45593999997E+02  0.45594000000E+02  0.51100000000E-03 0. -1.
         11   -1    0    0    0    0 -0.00000000000E+00 -0.00000000000E+00 -0.45593999997E+02  0.45594000000E+02  0.51100000000E-03 0.  1.
         23    2    1    2    0    0 -0.71054273576E-14  0.00000000000E+00  0.00000000000E+00  0.91188000000E+02  0.91188000000E+02 0.  0.
    9900012    2    3    3    0    0 -0.36000859880E+02  0.43691762881E+01  0.63740098645E+01  0.54367087256E+02  0.40000007017E+02 0.  0.
        -12    1    3    3    0    0  0.36000859880E+02 -0.43691762881E+01 -0.63740098645E+01  0.36820912744E+02  0.00000000000E+00 0.  1.
         11    1    4    4    0    0 -0.19645193502E+02  0.95833385748E+01 -0.23178672867E+01  0.21980594054E+02  0.51100000000E-03 0. -1.
        -11    1    4    4    0    0 -0.96677239473E+01  0.68350151051E+01 -0.50982629168E+01  0.12890872850E+02  0.51100000000E-03 0.  1.
         12    1    4    4    0    0 -0.66879424313E+01 -0.12049177392E+02  0.13790140068E+02  0.19495620351E+02  0.00000000000E+00 0. -1.
</event>
<event>
 8    1  0.1212194E-006  0.9118800E+02  0.7816164E-02  0.1184000E+00
        -11   -1    0    0    0    0  0.00000000000E+00  0.00000000000E+00  0.45593999997E+02  0.45594000000E+02  0.51100000000E-03 0. -1.
         11   -1    0    0    0    0 -0.00000000000E+00 -0.00000000000E+00 -0.45593999997E+02  0.45594000000E+02  0.51100000000E-03 0.  1.
         23    2    1    2    0    0 -0.35527136788E-14  0.13322676296E-14  0.00000000000E+00  0.91188000000E+02  0.91188000000E+02 0.  0.
    9900012    2    3    3    0    0  0.22744752360E+02  0.21196345600E+01  0.28878440031E+02  0.54367069685E+02  0.39999966961E+02 0.  0.
        -12    1    3    3    0    0 -0.22744752360E+02 -0.21196345600E+01 -0.28878440031E+02  0.36820930315E+02  0.00000000000E+00 0.  1.
         11    1    4    4    0    0  0.10815123131E+02 -0.13569735461E+02  0.15000427010E+01  0.17417081764E+02  0.51100000000E-03 0. -1.
        -11    1    4    4    0    0 -0.23328267900E+00  0.23961031981E+01  0.14754843066E+02  0.14949954030E+02  0.51100000000E-03 0.  1.
         12    1    4    4    0    0  0.12162911909E+02  0.13293266823E+02  0.12623554264E+02  0.22000033891E+02  0.00000000000E+00 0. -1.
</event>
<event>
 8    1  0.1212194E-006  0.9118800E+02  0.7816164E-02  0.1184000E+00
        -11   -1    0    0    0    0  0.00000000000E+00  0.00000000000E+00  0.45593999997E+02  0.45594000000E+02  0.51100000000E-03 0. -1.
         11   -1    0    0    0    0 -0.00000000000E+00 -0.00000000000E+00 -0.45593999997E+02  0.45594000000E+02  0.51100000000E-03 0.  1.
         23    2    1    2    0    0  0.00000000000E+00  0.00000000000E+00  0.00000000000E+00  0.91188000000E+02  0.91188000000E+02 0.  0.
    9900012    2    3    3    0    0 -0.29487950407E+02 -0.21530182388E+02  0.47638014364E+01  0.54367057902E+02  0.39999940099E+02 0.  0.
        -12    1    3    3    0    0  0.29487950407E+02  0.21530182388E+02 -0.47638014364E+01  0.36820942098E+02  0.00000000000E+00 0.  1.
         11    1    4    4    0    0 -0.18112263669E+02  0.77773482584E+01  0.16681982581E+01  0.19781914135E+02  0.51100000000E-03 0. -1.
        -11    1    4    4    0    0 -0.21532565680E+01 -0.23173074131E+02  0.88078753369E+00  0.23289561298E+02  0.51100000000E-03 0.  1.
        -12    1    4    4    0    0 -0.92224301694E+01 -0.61344565156E+01  0.22148156447E+01  0.11295582469E+02  0.00000000000E+00 0.  1.
</event>
<event>
 8    1  0.1212194E-006  0.9118800E+02  0.7816164E-02  0.1184000E+00
        -11   -1    0    0    0    0  0.00000000000E+00  0.00000000000E+00  0.45593999997E+02  0.45594000000E+02  0.51100000000E-03 0. -1.
         11   -1    0    0    0    0 -0.00000000000E+00 -0.00000000000E+00 -0.45593999997E+02  0.45594000000E+02  0.51100000000E-03 0.  1.
         23    2    1    2    0    0  0.00000000000E+00  0.00000000000E+00  0.88817841970E-15  0.91188000000E+02  0.91188000000E+02 0.  0.
    9900012    2    3    3    0    0 -0.18540570795E+02 -0.31313269352E+02  0.56130544969E+01  0.54367082254E+02  0.39999995614E+02 0.  0.
         12    1    3    3    0    0  0.18540570795E+02  0.31313269352E+02 -0.56130544969E+01  0.36820917746E+02  0.00000000000E+00 0. -1.
         11    1    4    4    0    0 -0.52921735533E+01 -0.26082909799E+01  0.32244126887E+01  0.67236240378E+01  0.51100000000E-03 0.  1.
        -11    1    4    4    0    0 -0.37350364300E+00  0.83419927878E+01 -0.37002632370E-03  0.83503502346E+01  0.51100000000E-03 0. -1.
         12    1    4    4    0    0 -0.12874893599E+02 -0.37046971160E+02  0.23890118345E+01  0.39293107981E+02  0.00000000000E+00 0. -1.
</event>
<event>
 8    1  0.1212194E-006  0.9118800E+02  0.7816164E-02  0.1184000E+00
        -11   -1    0    0    0    0  0.00000000000E+00  0.00000000000E+00  0.45593999997E+02  0.45594000000E+02  0.51100000000E-03 0. -1.
         11   -1    0    0    0    0 -0.00000000000E+00 -0.00000000000E+00 -0.45593999997E+02  0.45594000000E+02  0.51100000000E-03 0.  1.
         23    2    1    2    0    0  0.00000000000E+00  0.00000000000E+00  0.00000000000E+00  0.91188000000E+02  0.91188000000E+02 0.  0.
    9900012    2    3    3    0    0  0.15366898443E+02 -0.17737569609E+02  0.28372812688E+02  0.54367089593E+02  0.40000012345E+02 0.  0.
         12    1    3    3    0    0 -0.15366898443E+02  0.17737569609E+02 -0.28372812688E+02  0.36820910407E+02  0.00000000000E+00 0. -1.
         11    1    4    4    0    0  0.42639944381E+01 -0.11060232820E+02  0.17099167990E+02  0.20806055484E+02  0.51100000000E-03 0. -1.
        -11    1    4    4    0    0 -0.23061471689E+01 -0.10691723785E+02  0.15472197644E+02  0.18947827645E+02  0.51100000000E-03 0.  1.
        -12    1    4    4    0    0  0.13409051173E+02  0.40143869959E+01 -0.41985529461E+01  0.14613206464E+02  0.00000000000E+00 0.  1.
</event>
<event>
 8    1  0.1212194E-006  0.9118800E+02  0.7816164E-02  0.1184000E+00
        -11   -1    0    0    0    0  0.00000000000E+00  0.00000000000E+00  0.45593999997E+02  0.45594000000E+02  0.51100000000E-03 0. -1.
         11   -1    0    0    0    0 -0.00000000000E+00 -0.00000000000E+00 -0.45593999997E+02  0.45594000000E+02  0.51100000000E-03 0.  1.
         23    2    1    2    0    0  0.00000000000E+00  0.00000000000E+00 -0.35527136788E-14  0.91188000000E+02  0.91188000000E+02 0.  0.
    9900012    2    3    3    0    0  0.16066310622E+02 -0.23233817571E+02  0.23618746764E+02  0.54367057391E+02  0.39999938934E+02 0.  0.
        -12    1    3    3    0    0 -0.16066310622E+02  0.23233817571E+02 -0.23618746764E+02  0.36820942609E+02  0.00000000000E+00 0.  1.
         11    1    4    4    0    0  0.10311484963E+02 -0.76990200377E+00  0.15109969162E+02  0.18309304727E+02  0.51100000000E-03 0. -1.
        -11    1    4    4    0    0  0.12150708735E+02 -0.48200319925E+01 -0.38013235939E+01  0.13613320406E+02  0.51100000000E-03 0.  1.
         12    1    4    4    0    0 -0.63958830760E+01 -0.17643883575E+02  0.12310101196E+02  0.22444432258E+02  0.00000000000E+00 0. -1.
</event>
<event>
 8    1  0.1212194E-006  0.9118800E+02  0.7816164E-02  0.1184000E+00
        -11   -1    0    0    0    0  0.00000000000E+00  0.00000000000E+00  0.45593999997E+02  0.45594000000E+02  0.51100000000E-03 0. -1.
         11   -1    0    0    0    0 -0.00000000000E+00 -0.00000000000E+00 -0.45593999997E+02  0.45594000000E+02  0.51100000000E-03 0.  1.
         23    2    1    2    0    0 -0.17763568394E-14  0.17763568394E-14  0.00000000000E+00  0.91188000000E+02  0.91188000000E+02 0.  0.
    9900012    2    3    3    0    0 -0.96174703981E+01  0.11920031421E+02 -0.33484278780E+02  0.54367084594E+02  0.40000000948E+02 0.  0.
         12    1    3    3    0    0  0.96174703981E+01 -0.11920031421E+02  0.33484278780E+02  0.36820915406E+02  0.00000000000E+00 0. -1.
         11    1    4    4    0    0 -0.16313712596E+02  0.21732511360E+02 -0.15732061534E+02  0.31399634218E+02  0.51100000000E-03 0. -1.
        -11    1    4    4    0    0  0.14984834089E+01 -0.88587610404E+01 -0.13338054101E+02  0.16081877600E+02  0.51100000000E-03 0.  1.
         12    1    4    4    0    0  0.51977587887E+01 -0.95371889868E+00 -0.44141631453E+01  0.68855727748E+01  0.00000000000E+00 0. -1.
</event>
<event>
 8    1  0.1212194E-006  0.9118800E+02  0.7816164E-02  0.1184000E+00
        -11   -1    0    0    0    0  0.00000000000E+00  0.00000000000E+00  0.45593999997E+02  0.45594000000E+02  0.51100000000E-03 0. -1.
         11   -1    0    0    0    0 -0.00000000000E+00 -0.00000000000E+00 -0.45593999997E+02  0.45594000000E+02  0.51100000000E-03 0.  1.
         23    2    1    2    0    0  0.00000000000E+00  0.00000000000E+00 -0.35527136788E-14  0.91188000000E+02  0.91188000000E+02 0.  0.
    9900012    2    3    3    0    0  0.28497321274E+01 -0.27863432078E+02 -0.23901591014E+02  0.54367110910E+02  0.40000060942E+02 0.  0.
         12    1    3    3    0    0 -0.28497321274E+01  0.27863432078E+02  0.23901591014E+02  0.36820889090E+02  0.00000000000E+00 0. -1.
         11    1    4    4    0    0  0.64368248248E+01 -0.82880489323E+01  0.17267220702E+01  0.10635132265E+02  0.51100000000E-03 0. -1.
        -11    1    4    4    0    0  0.60506907248E+00 -0.24047834491E+02 -0.84560888861E+01  0.25498429203E+02  0.51100000000E-03 0.  1.
         12    1    4    4    0    0 -0.41921617699E+01  0.44724513460E+01 -0.17172224198E+02  0.18233549442E+02  0.00000000000E+00 0. -1.
</event>
<event>
 8    1  0.1212194E-006  0.9118800E+02  0.7816164E-02  0.1184000E+00
        -11   -1    0    0    0    0  0.00000000000E+00  0.00000000000E+00  0.45593999997E+02  0.45594000000E+02  0.51100000000E-03 0. -1.
         11   -1    0    0    0    0 -0.00000000000E+00 -0.00000000000E+00 -0.45593999997E+02  0.45594000000E+02  0.51100000000E-03 0.  1.
         23    2    1    2    0    0  0.00000000000E+00 -0.17763568394E-14  0.71054273576E-14  0.91188000000E+02  0.91188000000E+02 0.  0.
    9900012    2    3    3    0    0 -0.13796911882E+02  0.84103016207E+01 -0.33086129040E+02  0.54367083584E+02  0.39999998647E+02 0.  0.
         12    1    3    3    0    0  0.13796911882E+02 -0.84103016207E+01  0.33086129040E+02  0.36820916416E+02  0.00000000000E+00 0. -1.
         11    1    4    4    0    0  0.61030592045E+01 -0.34114263254E+00  0.15539206563E+01  0.63070103549E+01  0.51100000000E-03 0. -1.
        -11    1    4    4    0    0  0.57367664586E+01  0.44842716698E+01 -0.86204913511E+01  0.11284150531E+02  0.51100000000E-03 0.  1.
        -12    1    4    4    0    0 -0.25636737545E+02  0.42671725835E+01 -0.26019558346E+02  0.36775922698E+02  0.00000000000E+00 0.  1.
</event>
<event>
 8    1  0.1212194E-006  0.9118800E+02  0.7816164E-02  0.1184000E+00
        -11   -1    0    0    0    0  0.00000000000E+00  0.00000000000E+00  0.45593999997E+02  0.45594000000E+02  0.51100000000E-03 0. -1.
         11   -1    0    0    0    0 -0.00000000000E+00 -0.00000000000E+00 -0.45593999997E+02  0.45594000000E+02  0.51100000000E-03 0.  1.
         23    2    1    2    0    0 -0.35527136788E-14  0.88817841970E-15  0.35527136788E-14  0.91188000000E+02  0.91188000000E+02 0.  0.
    9900012    2    3    3    0    0  0.22060360631E+02 -0.29757809619E+01 -0.29330278766E+02  0.54367081543E+02  0.39999993993E+02 0.  0.
         12    1    3    3    0    0 -0.22060360631E+02  0.29757809619E+01  0.29330278766E+02  0.36820918457E+02  0.00000000000E+00 0. -1.
         11    1    4    4    0    0  0.12630432848E+02 -0.16743284384E+01 -0.91215125899E+00  0.12773536309E+02  0.51100000000E-03 0. -1.
        -11    1    4    4    0    0  0.22711603828E+01 -0.14143840975E+02 -0.20157019376E+02  0.24728765384E+02  0.51100000000E-03 0.  1.
        -12    1    4    4    0    0  0.71587674005E+01  0.12842388452E+02 -0.82611081313E+01  0.16864779850E+02  0.00000000000E+00 0.  1.
</event>
<event>
 8    1  0.1212194E-006  0.9118800E+02  0.7816164E-02  0.1184000E+00
        -11   -1    0    0    0    0  0.00000000000E+00  0.00000000000E+00  0.45593999997E+02  0.45594000000E+02  0.51100000000E-03 0.  1.
         11   -1    0    0    0    0 -0.00000000000E+00 -0.00000000000E+00 -0.45593999997E+02  0.45594000000E+02  0.51100000000E-03 0. -1.
         23    2    1    2    0    0  0.00000000000E+00  0.35527136788E-14  0.00000000000E+00  0.91188000000E+02  0.91188000000E+02 0.  0.
    9900012    2    3    3    0    0 -0.16337244428E+02 -0.23945033699E+02 -0.22704867761E+02  0.54367065542E+02  0.39999957516E+02 0.  0.
        -12    1    3    3    0    0  0.16337244428E+02  0.23945033699E+02  0.22704867761E+02  0.36820934458E+02  0.00000000000E+00 0.  1.
         11    1    4    4    0    0 -0.51286536086E+01 -0.14976458767E+02 -0.20382979695E+02  0.25808201536E+02  0.51100000000E-03 0. -1.
        -11    1    4    4    0    0 -0.15658235027E+02 -0.24050468605E+01 -0.89752715874E+01  0.18207692739E+02  0.51100000000E-03 0.  1.
         12    1    4    4    0    0  0.44496442074E+01 -0.65635280710E+01  0.66533835212E+01  0.10351171267E+02  0.00000000000E+00 0. -1.
</event>
<event>
 8    1  0.1212194E-006  0.9118800E+02  0.7816164E-02  0.1184000E+00
        -11   -1    0    0    0    0  0.00000000000E+00  0.00000000000E+00  0.45593999997E+02  0.45594000000E+02  0.51100000000E-03 0. -1.
         11   -1    0    0    0    0 -0.00000000000E+00 -0.00000000000E+00 -0.45593999997E+02  0.45594000000E+02  0.51100000000E-03 0.  1.
         23    2    1    2    0    0 -0.88817841970E-15  0.00000000000E+00  0.00000000000E+00  0.91188000000E+02  0.91188000000E+02 0.  0.
    9900012    2    3    3    0    0 -0.49662861061E+01  0.31754051386E+02  0.17966493520E+02  0.54367100140E+02  0.40000036388E+02 0.  0.
        -12    1    3    3    0    0  0.49662861061E+01 -0.31754051386E+02 -0.17966493520E+02  0.36820899860E+02  0.00000000000E+00 0.  1.
         11    1    4    4    0    0  0.98214319993E+01  0.63826551767E+01  0.68270515933E+01  0.13557560523E+02  0.51100000000E-03 0. -1.
        -11    1    4    4    0    0 -0.67459639204E+01  0.10744334725E+02 -0.83203573459E+01  0.15171588728E+02  0.51100000000E-03 0.  1.
        -12    1    4    4    0    0 -0.80417541850E+01  0.14627061485E+02  0.19459799272E+02  0.25637950889E+02  0.00000000000E+00 0.  1.
</event>
<event>
 8    1  0.1212194E-006  0.9118800E+02  0.7816164E-02  0.1184000E+00
        -11   -1    0    0    0    0  0.00000000000E+00  0.00000000000E+00  0.45593999997E+02  0.45594000000E+02  0.51100000000E-03 0.  1.
         11   -1    0    0    0    0 -0.00000000000E+00 -0.00000000000E+00 -0.45593999997E+02  0.45594000000E+02  0.51100000000E-03 0. -1.
         23    2    1    2    0    0 -0.35527136788E-14 -0.17763568394E-14 -0.35527136788E-14  0.91188000000E+02  0.91188000000E+02 0.  0.
    9900012    2    3    3    0    0  0.24526132241E+02  0.26197732995E+01  0.27338369405E+02  0.54367070944E+02  0.39999969831E+02 0.  0.
         12    1    3    3    0    0 -0.24526132241E+02 -0.26197732995E+01 -0.27338369405E+02  0.36820929056E+02  0.00000000000E+00 0. -1.
         11    1    4    4    0    0  0.24777541719E+01 -0.94351667399E+01  0.40281204151E+01  0.10554022526E+02  0.51100000000E-03 0. -1.
        -11    1    4    4    0    0  0.93015277056E+01  0.21500495679E+01 -0.53320808092E+01  0.10934908176E+02  0.51100000000E-03 0.  1.
        -12    1    4    4    0    0  0.12746850363E+02  0.99048904716E+01  0.28642329799E+02  0.32878140242E+02  0.00000000000E+00 0.  1.
</event>
<event>
 8    1  0.1212194E-006  0.9118800E+02  0.7816164E-02  0.1184000E+00
        -11   -1    0    0    0    0  0.00000000000E+00  0.00000000000E+00  0.45593999997E+02  0.45594000000E+02  0.51100000000E-03 0.  1.
         11   -1    0    0    0    0 -0.00000000000E+00 -0.00000000000E+00 -0.45593999997E+02  0.45594000000E+02  0.51100000000E-03 0. -1.
         23    2    1    2    0    0  0.17763568394E-14 -0.35527136788E-14 -0.35527136788E-14  0.91188000000E+02  0.91188000000E+02 0.  0.
    9900012    2    3    3    0    0 -0.11057270426E+02  0.31559577697E+02  0.15411357135E+02  0.54367080641E+02  0.39999991938E+02 0.  0.
         12    1    3    3    0    0  0.11057270426E+02 -0.31559577697E+02 -0.15411357135E+02  0.36820919359E+02  0.00000000000E+00 0. -1.
         11    1    4    4    0    0 -0.84926105681E+01  0.82465863753E+01 -0.58960243124E+01  0.13224739092E+02  0.51100000000E-03 0. -1.
        -11    1    4    4    0    0 -0.88748604110E+01  0.26627196823E+02  0.17040243217E+02  0.32835052111E+02  0.51100000000E-03 0.  1.
         12    1    4    4    0    0  0.63102005527E+01 -0.33142055020E+01  0.42671382307E+01  0.83072894379E+01  0.00000000000E+00 0. -1.
</event>
<event>
 8    1  0.1212194E-006  0.9118800E+02  0.7816164E-02  0.1184000E+00
        -11   -1    0    0    0    0  0.00000000000E+00  0.00000000000E+00  0.45593999997E+02  0.45594000000E+02  0.51100000000E-03 0. -1.
         11   -1    0    0    0    0 -0.00000000000E+00 -0.00000000000E+00 -0.45593999997E+02  0.45594000000E+02  0.51100000000E-03 0.  1.
         23    2    1    2    0    0 -0.13322676296E-14  0.00000000000E+00 -0.35527136788E-14  0.91188000000E+02  0.91188000000E+02 0.  0.
    9900012    2    3    3    0    0  0.20697333221E+01  0.25106279017E+02  0.26854616829E+02  0.54367088996E+02  0.40000010984E+02 0.  0.
         12    1    3    3    0    0 -0.20697333221E+01 -0.25106279017E+02 -0.26854616829E+02  0.36820911004E+02  0.00000000000E+00 0. -1.
         11    1    4    4    0    0 -0.19536738974E+01  0.69765831723E+01  0.88085621501E+01  0.11405276054E+02  0.51100000000E-03 0. -1.
        -11    1    4    4    0    0 -0.11538211202E+02  0.20102964966E+02  0.90796152272E+01  0.24893752853E+02  0.51100000000E-03 0.  1.
        -12    1    4    4    0    0  0.15561618422E+02 -0.19732691212E+01  0.89664394522E+01  0.18068060089E+02  0.00000000000E+00 0.  1.
</event>
<event>
 8    1  0.1212194E-006  0.9118800E+02  0.7816164E-02  0.1184000E+00
        -11   -1    0    0    0    0  0.00000000000E+00  0.00000000000E+00  0.45593999997E+02  0.45594000000E+02  0.51100000000E-03 0.  1.
         11   -1    0    0    0    0 -0.00000000000E+00 -0.00000000000E+00 -0.45593999997E+02  0.45594000000E+02  0.51100000000E-03 0. -1.
         23    2    1    2    0    0  0.35527136788E-14  0.00000000000E+00  0.00000000000E+00  0.91188000000E+02  0.91188000000E+02 0.  0.
    9900012    2    3    3    0    0  0.20488292676E+02 -0.26010489141E+02 -0.16107881620E+02  0.54367088382E+02  0.40000009583E+02 0.  0.
        -12    1    3    3    0    0 -0.20488292676E+02  0.26010489141E+02  0.16107881620E+02  0.36820911618E+02  0.00000000000E+00 0.  1.
         11    1    4    4    0    0  0.44541482512E+01 -0.94092404463E+01 -0.11413758491E+02  0.15448207844E+02  0.51100000000E-03 0.  1.
        -11    1    4    4    0    0 -0.20736310548E+01  0.42471203613E+01 -0.97596932759E+01  0.10843873395E+02  0.51100000000E-03 0. -1.
        -12    1    4    4    0    0  0.18107775480E+02 -0.20848369056E+02  0.50655701477E+01  0.28075007142E+02  0.00000000000E+00 0.  1.
</event>
<event>
 8    1  0.1212194E-006  0.9118800E+02  0.7816164E-02  0.1184000E+00
        -11   -1    0    0    0    0  0.00000000000E+00  0.00000000000E+00  0.45593999997E+02  0.45594000000E+02  0.51100000000E-03 0.  1.
         11   -1    0    0    0    0 -0.00000000000E+00 -0.00000000000E+00 -0.45593999997E+02  0.45594000000E+02  0.51100000000E-03 0. -1.
         23    2    1    2    0    0  0.00000000000E+00  0.00000000000E+00  0.00000000000E+00  0.91188000000E+02  0.91188000000E+02 0.  0.
    9900012    2    3    3    0    0 -0.21777636447E+02  0.12146130654E+01  0.29665554448E+02  0.54367002528E+02  0.39999813862E+02 0.  0.
         12    1    3    3    0    0  0.21777636447E+02 -0.12146130654E+01 -0.29665554448E+02  0.36820997472E+02  0.00000000000E+00 0. -1.
         11    1    4    4    0    0  0.31618184908E+01 -0.65410883479E+01  0.66504619687E+01  0.98494455480E+01  0.51100000000E-03 0. -1.
        -11    1    4    4    0    0 -0.24050613723E+02  0.14452271562E+02  0.98806420959E+01  0.29747727010E+02  0.51100000000E-03 0.  1.
        -12    1    4    4    0    0 -0.88884121466E+00 -0.66965701485E+01  0.13134450384E+02  0.14769829970E+02  0.00000000000E+00 0.  1.
</event>
<event>
 8    1  0.1212194E-006  0.9118800E+02  0.7816164E-02  0.1184000E+00
        -11   -1    0    0    0    0  0.00000000000E+00  0.00000000000E+00  0.45593999997E+02  0.45594000000E+02  0.51100000000E-03 0.  1.
         11   -1    0    0    0    0 -0.00000000000E+00 -0.00000000000E+00 -0.45593999997E+02  0.45594000000E+02  0.51100000000E-03 0. -1.
         23    2    1    2    0    0 -0.26645352591E-14  0.00000000000E+00  0.35527136788E-14  0.91188000000E+02  0.91188000000E+02 0.  0.
    9900012    2    3    3    0    0  0.21775674932E+01  0.25795438290E+02  0.26184608849E+02  0.54367079624E+02  0.39999989619E+02 0.  0.
         12    1    3    3    0    0 -0.21775674932E+01 -0.25795438290E+02 -0.26184608849E+02  0.36820920376E+02  0.00000000000E+00 0. -1.
         11    1    4    4    0    0  0.15923415536E+01  0.49785175295E+01  0.19890332805E+00  0.52307505398E+01  0.51100000000E-03 0. -1.
        -11    1    4    4    0    0  0.16458403842E+02  0.29463003525E+01  0.53398601083E+01  0.17552032618E+02  0.51100000000E-03 0.  1.
        -12    1    4    4    0    0 -0.15873177902E+02  0.17870620408E+02  0.20645845413E+02  0.31584296466E+02  0.00000000000E+00 0.  1.
</event>
<event>
 8    1  0.1212194E-006  0.9118800E+02  0.7816164E-02  0.1184000E+00
        -11   -1    0    0    0    0  0.00000000000E+00  0.00000000000E+00  0.45593999997E+02  0.45594000000E+02  0.51100000000E-03 0.  1.
         11   -1    0    0    0    0 -0.00000000000E+00 -0.00000000000E+00 -0.45593999997E+02  0.45594000000E+02  0.51100000000E-03 0. -1.
         23    2    1    2    0    0 -0.88817841970E-15  0.17763568394E-14  0.00000000000E+00  0.91188000000E+02  0.91188000000E+02 0.  0.
    9900012    2    3    3    0    0 -0.23988422474E+01 -0.10174989617E+02  0.35305664127E+02  0.54367152953E+02  0.40000156786E+02 0.  0.
         12    1    3    3    0    0  0.23988422474E+01  0.10174989617E+02 -0.35305664127E+02  0.36820847047E+02  0.00000000000E+00 0. -1.
         11    1    4    4    0    0  0.11306621796E+01 -0.23408845922E+01 -0.99119206717E+00  0.27821933099E+01  0.51100000000E-03 0. -1.
        -11    1    4    4    0    0  0.67038070049E+01 -0.15542171510E+02  0.48176747510E+01  0.17598582724E+02  0.51100000000E-03 0.  1.
         12    1    4    4    0    0 -0.10233311432E+02  0.77080664851E+01  0.31479181443E+02  0.33986376919E+02  0.00000000000E+00 0. -1.
</event>
<event>
 8    1  0.1212194E-006  0.9118800E+02  0.7816164E-02  0.1184000E+00
        -11   -1    0    0    0    0  0.00000000000E+00  0.00000000000E+00  0.45593999997E+02  0.45594000000E+02  0.51100000000E-03 0.  1.
         11   -1    0    0    0    0 -0.00000000000E+00 -0.00000000000E+00 -0.45593999997E+02  0.45594000000E+02  0.51100000000E-03 0. -1.
         23    2    1    2    0    0  0.00000000000E+00  0.00000000000E+00  0.17763568394E-14  0.91188000000E+02  0.91188000000E+02 0.  0.
    9900012    2    3    3    0    0  0.34085470448E+02 -0.11274798506E+02 -0.81755206122E+01  0.54367088628E+02  0.40000010144E+02 0.  0.
        -12    1    3    3    0    0 -0.34085470448E+02  0.11274798506E+02  0.81755206122E+01  0.36820911372E+02  0.00000000000E+00 0.  1.
         11    1    4    4    0    0  0.12555285466E+02  0.21027462140E+01 -0.50402812176E+01  0.13691645985E+02  0.51100000000E-03 0. -1.
        -11    1    4    4    0    0 -0.30168419327E+01  0.10706733732E+01  0.91214153149E+01  0.96668451072E+01  0.51100000000E-03 0.  1.
         12    1    4    4    0    0  0.24547026915E+02 -0.14448218093E+02 -0.12256654710E+02  0.31008597535E+02  0.00000000000E+00 0. -1.
</event>
<event>
 8    1  0.1212194E-006  0.9118800E+02  0.7816164E-02  0.1184000E+00
        -11   -1    0    0    0    0  0.00000000000E+00  0.00000000000E+00  0.45593999997E+02  0.45594000000E+02  0.51100000000E-03 0. -1.
         11   -1    0    0    0    0 -0.00000000000E+00 -0.00000000000E+00 -0.45593999997E+02  0.45594000000E+02  0.51100000000E-03 0.  1.
         23    2    1    2    0    0  0.00000000000E+00  0.88817841970E-15  0.17763568394E-14  0.91188000000E+02  0.91188000000E+02 0.  0.
    9900012    2    3    3    0    0 -0.33854665758E+02  0.52350591829E+01 -0.13499842534E+02  0.54366946421E+02  0.39999685955E+02 0.  0.
         12    1    3    3    0    0  0.33854665758E+02 -0.52350591829E+01  0.13499842534E+02  0.36821053579E+02  0.00000000000E+00 0. -1.
         11    1    4    4    0    0 -0.27134510301E+01  0.91388168190E+01 -0.19681166107E+02  0.21868449624E+02  0.51100000000E-03 0. -1.
        -11    1    4    4    0    0 -0.10595717713E+02 -0.34749653333E+01  0.43170878546E+00  0.11159345441E+02  0.51100000000E-03 0.  1.
         12    1    4    4    0    0 -0.20545497015E+02 -0.42879230274E+00  0.57496147880E+01  0.21339151357E+02  0.00000000000E+00 0. -1.
</event>
<event>
 8    1  0.1212194E-006  0.9118800E+02  0.7816164E-02  0.1184000E+00
        -11   -1    0    0    0    0  0.00000000000E+00  0.00000000000E+00  0.45593999997E+02  0.45594000000E+02  0.51100000000E-03 0.  1.
         11   -1    0    0    0    0 -0.00000000000E+00 -0.00000000000E+00 -0.45593999997E+02  0.45594000000E+02  0.51100000000E-03 0. -1.
         23    2    1    2    0    0 -0.35527136788E-14  0.00000000000E+00 -0.71054273576E-14  0.91188000000E+02  0.91188000000E+02 0.  0.
    9900012    2    3    3    0    0 -0.18109032954E+02  0.14666101417E+02 -0.28508756360E+02  0.54367071244E+02  0.39999970515E+02 0.  0.
        -12    1    3    3    0    0  0.18109032954E+02 -0.14666101417E+02  0.28508756360E+02  0.36820928756E+02  0.00000000000E+00 0.  1.
         11    1    4    4    0    0 -0.22162577384E+01 -0.83954564075E+01 -0.11111438327E+02  0.14101756933E+02  0.51100000000E-03 0. -1.
        -11    1    4    4    0    0 -0.83424664190E+01  0.16139427299E+02  0.20519657727E+01  0.18283556090E+02  0.51100000000E-03 0.  1.
        -12    1    4    4    0    0 -0.75503087963E+01  0.69221305254E+01 -0.19449283806E+02  0.21981758221E+02  0.00000000000E+00 0.  1.
</event>
<event>
 8    1  0.1212194E-006  0.9118800E+02  0.7816164E-02  0.1184000E+00
        -11   -1    0    0    0    0  0.00000000000E+00  0.00000000000E+00  0.45593999997E+02  0.45594000000E+02  0.51100000000E-03 0. -1.
         11   -1    0    0    0    0 -0.00000000000E+00 -0.00000000000E+00 -0.45593999997E+02  0.45594000000E+02  0.51100000000E-03 0.  1.
         23    2    1    2    0    0  0.17763568394E-14 -0.35527136788E-14  0.00000000000E+00  0.91188000000E+02  0.91188000000E+02 0.  0.
    9900012    2    3    3    0    0  0.14750537882E+02 -0.16535455480E+02 -0.29407150359E+02  0.54367080023E+02  0.39999990529E+02 0.  0.
         12    1    3    3    0    0 -0.14750537882E+02  0.16535455480E+02  0.29407150359E+02  0.36820919977E+02  0.00000000000E+00 0. -1.
         11    1    4    4    0    0 -0.33731202064E+01 -0.10096448288E+02 -0.75837249606E+01  0.13070160385E+02  0.51100000000E-03 0.  1.
        -11    1    4    4    0    0  0.15529497815E+02 -0.17335966344E+02 -0.18129069680E+02  0.29501935515E+02  0.51100000000E-03 0. -1.
         12    1    4    4    0    0  0.25941602736E+01  0.10896959152E+02 -0.36943557182E+01  0.11794984123E+02  0.00000000000E+00 0. -1.
</event>
<event>
 8    1  0.1212194E-006  0.9118800E+02  0.7816164E-02  0.1184000E+00
        -11   -1    0    0    0    0  0.00000000000E+00  0.00000000000E+00  0.45593999997E+02  0.45594000000E+02  0.51100000000E-03 0.  1.
         11   -1    0    0    0    0 -0.00000000000E+00 -0.00000000000E+00 -0.45593999997E+02  0.45594000000E+02  0.51100000000E-03 0. -1.
         23    2    1    2    0    0  0.35527136788E-14  0.00000000000E+00  0.00000000000E+00  0.91188000000E+02  0.91188000000E+02 0.  0.
    9900012    2    3    3    0    0 -0.17801116659E+02 -0.10589165780E+02 -0.30442886731E+02  0.54367088296E+02  0.40000009389E+02 0.  0.
        -12    1    3    3    0    0  0.17801116659E+02  0.10589165780E+02  0.30442886731E+02  0.36820911704E+02  0.00000000000E+00 0.  1.
         11    1    4    4    0    0 -0.10763475060E+02 -0.74570280823E+01 -0.28092986085E+02  0.30994766181E+02  0.51100000000E-03 0. -1.
        -11    1    4    4    0    0  0.72197774313E+01  0.11686591939E+00 -0.46228856283E+01  0.85737923695E+01  0.51100000000E-03 0.  1.
        -12    1    4    4    0    0 -0.14257419030E+02 -0.32490036167E+01  0.22729849832E+01  0.14798529745E+02  0.00000000000E+00 0.  1.
</event>
<event>
 8    1  0.1212194E-006  0.9118800E+02  0.7816164E-02  0.1184000E+00
        -11   -1    0    0    0    0  0.00000000000E+00  0.00000000000E+00  0.45593999997E+02  0.45594000000E+02  0.51100000000E-03 0.  1.
         11   -1    0    0    0    0 -0.00000000000E+00 -0.00000000000E+00 -0.45593999997E+02  0.45594000000E+02  0.51100000000E-03 0. -1.
         23    2    1    2    0    0  0.13322676296E-14 -0.35527136788E-14  0.00000000000E+00  0.91188000000E+02  0.91188000000E+02 0.  0.
    9900012    2    3    3    0    0  0.20425285826E+01 -0.30019164794E+02 -0.21223985188E+02  0.54367085764E+02  0.40000003616E+02 0.  0.
        -12    1    3    3    0    0 -0.20425285826E+01  0.30019164794E+02  0.21223985188E+02  0.36820914236E+02  0.00000000000E+00 0.  1.
         11    1    4    4    0    0  0.13140884556E+02 -0.21120189787E+02  0.29062039689E+01  0.25043787360E+02  0.51100000000E-03 0. -1.
        -11    1    4    4    0    0  0.10684093447E+01 -0.21329800914E+01 -0.17199978910E+01  0.29410024829E+01  0.51100000000E-03 0.  1.
        -12    1    4    4    0    0 -0.12166765318E+02 -0.67659949147E+01 -0.22410191266E+02  0.26382295921E+02  0.00000000000E+00 0.  1.
</event>
<event>
 8    1  0.1212194E-006  0.9118800E+02  0.7816164E-02  0.1184000E+00
        -11   -1    0    0    0    0  0.00000000000E+00  0.00000000000E+00  0.45593999997E+02  0.45594000000E+02  0.51100000000E-03 0. -1.
         11   -1    0    0    0    0 -0.00000000000E+00 -0.00000000000E+00 -0.45593999997E+02  0.45594000000E+02  0.51100000000E-03 0.  1.
         23    2    1    2    0    0  0.00000000000E+00  0.35527136788E-14 -0.88817841970E-15  0.91188000000E+02  0.91188000000E+02 0.  0.
    9900012    2    3    3    0    0  0.19074201811E+02  0.31334944794E+02  0.31743338114E+01  0.54367077481E+02  0.39999984734E+02 0.  0.
        -12    1    3    3    0    0 -0.19074201811E+02 -0.31334944794E+02 -0.31743338114E+01  0.36820922519E+02  0.00000000000E+00 0.  1.
         11    1    4    4    0    0  0.92746102925E+00  0.97649129945E+00  0.94609562160E+01  0.95563283745E+01  0.51100000000E-03 0. -1.
        -11    1    4    4    0    0  0.14432051419E+02  0.21351916602E+01  0.29473348617E+01  0.14883881706E+02  0.51100000000E-03 0.  1.
         12    1    4    4    0    0  0.37146893630E+01  0.28223261834E+02 -0.92339572663E+01  0.29926867401E+02  0.00000000000E+00 0. -1.
</event>
<event>
 8    1  0.1212194E-006  0.9118800E+02  0.7816164E-02  0.1184000E+00
        -11   -1    0    0    0    0  0.00000000000E+00  0.00000000000E+00  0.45593999997E+02  0.45594000000E+02  0.51100000000E-03 0.  1.
         11   -1    0    0    0    0 -0.00000000000E+00 -0.00000000000E+00 -0.45593999997E+02  0.45594000000E+02  0.51100000000E-03 0. -1.
         23    2    1    2    0    0  0.00000000000E+00  0.00000000000E+00  0.26645352591E-14  0.91188000000E+02  0.91188000000E+02 0.  0.
    9900012    2    3    3    0    0 -0.52060054401E+01 -0.35856157516E+02  0.65579963357E+01  0.54367165675E+02  0.40000185789E+02 0.  0.
        -12    1    3    3    0    0  0.52060054401E+01  0.35856157516E+02 -0.65579963357E+01  0.36820834325E+02  0.00000000000E+00 0.  1.
         11    1    4    4    0    0  0.63270943027E+01 -0.15498378184E+02 -0.24324373002E+01  0.16915927410E+02  0.51100000000E-03 0. -1.
        -11    1    4    4    0    0 -0.11328378828E+02 -0.63559975863E+01 -0.81370946036E+01  0.15327856375E+02  0.51100000000E-03 0.  1.
        -12    1    4    4    0    0 -0.20472091470E+00 -0.14001781745E+02  0.17127528239E+02  0.22123381891E+02  0.00000000000E+00 0.  1.
</event>
<event>
 8    1  0.1212194E-006  0.9118800E+02  0.7816164E-02  0.1184000E+00
        -11   -1    0    0    0    0  0.00000000000E+00  0.00000000000E+00  0.45593999997E+02  0.45594000000E+02  0.51100000000E-03 0. -1.
         11   -1    0    0    0    0 -0.00000000000E+00 -0.00000000000E+00 -0.45593999997E+02  0.45594000000E+02  0.51100000000E-03 0.  1.
         23    2    1    2    0    0  0.00000000000E+00  0.00000000000E+00  0.00000000000E+00  0.91188000000E+02  0.91188000000E+02 0.  0.
    9900012    2    3    3    0    0 -0.32663698823E+02 -0.48136582197E+01 -0.16299944137E+02  0.54367126773E+02  0.40000097105E+02 0.  0.
         12    1    3    3    0    0  0.32663698823E+02  0.48136582197E+01  0.16299944137E+02  0.36820873227E+02  0.00000000000E+00 0. -1.
         11    1    4    4    0    0  0.75560166552E+01  0.15981654370E+01  0.22887678394E+01  0.80551833587E+01  0.51100000000E-03 0.  1.
        -11    1    4    4    0    0 -0.20020212348E+02  0.12799300557E+01 -0.46502529606E+01  0.20593007946E+02  0.51100000000E-03 0. -1.
        -12    1    4    4    0    0 -0.20199503130E+02 -0.76917537124E+01 -0.13938459016E+02  0.25718935468E+02  0.00000000000E+00 0.  1.
</event>
<event>
 8    1  0.1212194E-006  0.9118800E+02  0.7816164E-02  0.1184000E+00
        -11   -1    0    0    0    0  0.00000000000E+00  0.00000000000E+00  0.45593999997E+02  0.45594000000E+02  0.51100000000E-03 0.  1.
         11   -1    0    0    0    0 -0.00000000000E+00 -0.00000000000E+00 -0.45593999997E+02  0.45594000000E+02  0.51100000000E-03 0. -1.
         23    2    1    2    0    0  0.00000000000E+00  0.35527136788E-14  0.35527136788E-14  0.91188000000E+02  0.91188000000E+02 0.  0.
    9900012    2    3    3    0    0 -0.10130642490E+02  0.20604803616E+02  0.28785271104E+02  0.54367086352E+02  0.40000004957E+02 0.  0.
         12    1    3    3    0    0  0.10130642490E+02 -0.20604803616E+02 -0.28785271104E+02  0.36820913648E+02  0.00000000000E+00 0. -1.
         11    1    4    4    0    0 -0.21416267363E+02  0.14112943448E+02  0.11020824328E+02  0.27915770626E+02  0.51100000000E-03 0. -1.
        -11    1    4    4    0    0  0.69383565170E+01  0.11202011905E+02  0.12380862525E+02  0.18080697414E+02  0.51100000000E-03 0.  1.
         12    1    4    4    0    0  0.43472683561E+01 -0.47101517359E+01  0.53835842511E+01  0.83706183119E+01  0.00000000000E+00 0. -1.
</event>
<event>
 8    1  0.1212194E-006  0.9118800E+02  0.7816164E-02  0.1184000E+00
        -11   -1    0    0    0    0  0.00000000000E+00  0.00000000000E+00  0.45593999997E+02  0.45594000000E+02  0.51100000000E-03 0. -1.
         11   -1    0    0    0    0 -0.00000000000E+00 -0.00000000000E+00 -0.45593999997E+02  0.45594000000E+02  0.51100000000E-03 0.  1.
         23    2    1    2    0    0  0.00000000000E+00 -0.88817841970E-15  0.00000000000E+00  0.91188000000E+02  0.91188000000E+02 0.  0.
    9900012    2    3    3    0    0  0.25957940058E+02 -0.43437869325E+01  0.25750675048E+02  0.54367076568E+02  0.39999982652E+02 0.  0.
        -12    1    3    3    0    0 -0.25957940058E+02  0.43437869325E+01 -0.25750675048E+02  0.36820923432E+02  0.00000000000E+00 0.  1.
         11    1    4    4    0    0  0.89647901377E+01 -0.13856626541E+02 -0.55748287791E+01  0.17419881672E+02  0.51100000000E-03 0. -1.
        -11    1    4    4    0    0  0.11490604234E+02  0.60387016392E+01  0.22594394354E+02  0.26057754309E+02  0.51100000000E-03 0.  1.
         12    1    4    4    0    0  0.55025456859E+01  0.34741379690E+01  0.87311094734E+01  0.10889440587E+02  0.00000000000E+00 0. -1.
</event>
<event>
 8    1  0.1212194E-006  0.9118800E+02  0.7816164E-02  0.1184000E+00
        -11   -1    0    0    0    0  0.00000000000E+00  0.00000000000E+00  0.45593999997E+02  0.45594000000E+02  0.51100000000E-03 0. -1.
         11   -1    0    0    0    0 -0.00000000000E+00 -0.00000000000E+00 -0.45593999997E+02  0.45594000000E+02  0.51100000000E-03 0.  1.
         23    2    1    2    0    0 -0.35527136788E-14 -0.26645352591E-14  0.00000000000E+00  0.91188000000E+02  0.91188000000E+02 0.  0.
    9900012    2    3    3    0    0 -0.99178609415E+01 -0.28771638294E+00 -0.35458910609E+02  0.54367067258E+02  0.39999961428E+02 0.  0.
         12    1    3    3    0    0  0.99178609415E+01  0.28771638294E+00  0.35458910609E+02  0.36820932742E+02  0.00000000000E+00 0. -1.
         11    1    4    4    0    0  0.52474496419E+01  0.12622588263E+02 -0.39301809198E+01  0.14223634715E+02  0.51100000000E-03 0. -1.
        -11    1    4    4    0    0 -0.43255448113E+01  0.19914675999E+01 -0.13696328893E+02  0.14500541594E+02  0.51100000000E-03 0.  1.
         12    1    4    4    0    0 -0.10839765772E+02 -0.14901772245E+02 -0.17832400797E+02  0.25642890949E+02  0.00000000000E+00 0. -1.
</event>
<event>
 8    1  0.1212194E-006  0.9118800E+02  0.7816164E-02  0.1184000E+00
        -11   -1    0    0    0    0  0.00000000000E+00  0.00000000000E+00  0.45593999997E+02  0.45594000000E+02  0.51100000000E-03 0. -1.
         11   -1    0    0    0    0 -0.00000000000E+00 -0.00000000000E+00 -0.45593999997E+02  0.45594000000E+02  0.51100000000E-03 0.  1.
         23    2    1    2    0    0  0.35527136788E-14  0.00000000000E+00  0.17763568394E-14  0.91188000000E+02  0.91188000000E+02 0.  0.
    9900012    2    3    3    0    0  0.30595035507E+02  0.20037733542E+02 -0.42675376441E+01  0.54367097774E+02  0.40000030996E+02 0.  0.
         12    1    3    3    0    0 -0.30595035507E+02 -0.20037733542E+02  0.42675376441E+01  0.36820902226E+02  0.00000000000E+00 0. -1.
         11    1    4    4    0    0 -0.33962236531E+01  0.41316250168E+01  0.95568731795E+01  0.10951643055E+02  0.51100000000E-03 0. -1.
        -11    1    4    4    0    0  0.35382464801E+02  0.13249525457E+02 -0.14263624241E+02  0.40384647045E+02  0.51100000000E-03 0.  1.
        -12    1    4    4    0    0 -0.13912056406E+01  0.26565830679E+01  0.43921341720E+00  0.30308076741E+01  0.00000000000E+00 0.  1.
</event>
<event>
 8    1  0.1212194E-006  0.9118800E+02  0.7816164E-02  0.1184000E+00
        -11   -1    0    0    0    0  0.00000000000E+00  0.00000000000E+00  0.45593999997E+02  0.45594000000E+02  0.51100000000E-03 0.  1.
         11   -1    0    0    0    0 -0.00000000000E+00 -0.00000000000E+00 -0.45593999997E+02  0.45594000000E+02  0.51100000000E-03 0. -1.
         23    2    1    2    0    0  0.00000000000E+00 -0.17763568394E-14  0.00000000000E+00  0.91188000000E+02  0.91188000000E+02 0.  0.
    9900012    2    3    3    0    0 -0.14721879680E+02  0.12518132230E+02  0.31342340868E+02  0.54367086012E+02  0.40000004181E+02 0.  0.
         12    1    3    3    0    0  0.14721879680E+02 -0.12518132230E+02 -0.31342340868E+02  0.36820913988E+02  0.00000000000E+00 0. -1.
         11    1    4    4    0    0  0.70669186667E+01 -0.77987219294E+01  0.29550619875E+01  0.10931321731E+02  0.51100000000E-03 0. -1.
        -11    1    4    4    0    0 -0.42256320825E+01  0.13313429475E+02  0.12062257080E+02  0.18455389917E+02  0.51100000000E-03 0.  1.
         12    1    4    4    0    0 -0.17563166264E+02  0.70034246849E+01  0.16325021801E+02  0.24980374363E+02  0.00000000000E+00 0. -1.
</event>
<event>
 8    1  0.1212194E-006  0.9118800E+02  0.7816164E-02  0.1184000E+00
        -11   -1    0    0    0    0  0.00000000000E+00  0.00000000000E+00  0.45593999997E+02  0.45594000000E+02  0.51100000000E-03 0.  1.
         11   -1    0    0    0    0 -0.00000000000E+00 -0.00000000000E+00 -0.45593999997E+02  0.45594000000E+02  0.51100000000E-03 0. -1.
         23    2    1    2    0    0 -0.35527136788E-14  0.00000000000E+00  0.00000000000E+00  0.91188000000E+02  0.91188000000E+02 0.  0.
    9900012    2    3    3    0    0  0.30793571432E+02  0.22710833072E+01 -0.20059364511E+02  0.54367082501E+02  0.39999996176E+02 0.  0.
        -12    1    3    3    0    0 -0.30793571432E+02 -0.22710833072E+01  0.20059364511E+02  0.36820917499E+02  0.00000000000E+00 0.  1.
         11    1    4    4    0    0  0.28197372706E+02 -0.68917094628E+00 -0.15775968617E+02  0.32317920264E+02  0.51100000000E-03 0. -1.
        -11    1    4    4    0    0 -0.16909379654E+01  0.40788792736E+01 -0.12201422403E+02  0.12975794244E+02  0.51100000000E-03 0.  1.
        -12    1    4    4    0    0  0.42871366911E+01 -0.11186250201E+01  0.79180265087E+01  0.90733679931E+01  0.00000000000E+00 0.  1.
</event>
<event>
 8    1  0.1212194E-006  0.9118800E+02  0.7816164E-02  0.1184000E+00
        -11   -1    0    0    0    0  0.00000000000E+00  0.00000000000E+00  0.45593999997E+02  0.45594000000E+02  0.51100000000E-03 0. -1.
         11   -1    0    0    0    0 -0.00000000000E+00 -0.00000000000E+00 -0.45593999997E+02  0.45594000000E+02  0.51100000000E-03 0.  1.
         23    2    1    2    0    0  0.00000000000E+00 -0.44408920985E-15  0.00000000000E+00  0.91188000000E+02  0.91188000000E+02 0.  0.
    9900012    2    3    3    0    0 -0.23066034109E+02  0.34508055645E+01 -0.28492660018E+02  0.54367059444E+02  0.39999943614E+02 0.  0.
         12    1    3    3    0    0  0.23066034109E+02 -0.34508055645E+01  0.28492660018E+02  0.36820940556E+02  0.00000000000E+00 0. -1.
         11    1    4    4    0    0  0.77458371175E+01  0.40744543960E+01 -0.19137292012E+01  0.89588800077E+01  0.51100000000E-03 0. -1.
        -11    1    4    4    0    0 -0.24491883441E+02 -0.12333679126E+01 -0.29548230075E+02  0.38398847010E+02  0.51100000000E-03 0.  1.
        -12    1    4    4    0    0 -0.63199877856E+01  0.60971908111E+00  0.29692992584E+01  0.70093324257E+01  0.00000000000E+00 0.  1.
</event>
<event>
 8    1  0.1212194E-006  0.9118800E+02  0.7816164E-02  0.1184000E+00
        -11   -1    0    0    0    0  0.00000000000E+00  0.00000000000E+00  0.45593999997E+02  0.45594000000E+02  0.51100000000E-03 0.  1.
         11   -1    0    0    0    0 -0.00000000000E+00 -0.00000000000E+00 -0.45593999997E+02  0.45594000000E+02  0.51100000000E-03 0. -1.
         23    2    1    2    0    0 -0.49960036108E-15  0.00000000000E+00  0.71054273576E-14  0.91188000000E+02  0.91188000000E+02 0.  0.
    9900012    2    3    3    0    0 -0.49780623184E+00 -0.11416883658E+02  0.35002652957E+02  0.54367098904E+02  0.40000033572E+02 0.  0.
         12    1    3    3    0    0  0.49780623184E+00  0.11416883658E+02 -0.35002652957E+02  0.36820901096E+02  0.00000000000E+00 0. -1.
         11    1    4    4    0    0 -0.17501926553E+02 -0.51279093954E+01  0.19675998262E+02  0.26828302139E+02  0.51100000000E-03 0. -1.
        -11    1    4    4    0    0  0.10600120298E+02  0.30451980492E+01  0.10517184889E+02  0.15239650907E+02  0.51100000000E-03 0.  1.
        -12    1    4    4    0    0  0.64040000224E+01 -0.93341723121E+01  0.48094698056E+01  0.12299145859E+02  0.00000000000E+00 0.  1.
</event>
<event>
 8    1  0.1212194E-006  0.9118800E+02  0.7816164E-02  0.1184000E+00
        -11   -1    0    0    0    0  0.00000000000E+00  0.00000000000E+00  0.45593999997E+02  0.45594000000E+02  0.51100000000E-03 0. -1.
         11   -1    0    0    0    0 -0.00000000000E+00 -0.00000000000E+00 -0.45593999997E+02  0.45594000000E+02  0.51100000000E-03 0.  1.
         23    2    1    2    0    0 -0.71054273576E-14  0.00000000000E+00 -0.17763568394E-14  0.91188000000E+02  0.91188000000E+02 0.  0.
    9900012    2    3    3    0    0  0.30649361973E+02 -0.14899800634E+02  0.13942452509E+02  0.54367089769E+02  0.40000012746E+02 0.  0.
         12    1    3    3    0    0 -0.30649361973E+02  0.14899800634E+02 -0.13942452509E+02  0.36820910231E+02  0.00000000000E+00 0. -1.
         11    1    4    4    0    0 -0.50118828367E+01  0.17127910144E+01  0.12731933025E+02  0.13789660672E+02  0.51100000000E-03 0. -1.
        -11    1    4    4    0    0  0.74213753571E+01 -0.31261741762E+01 -0.37647006074E+01  0.88894740056E+01  0.51100000000E-03 0.  1.
         12    1    4    4    0    0  0.28239869453E+02 -0.13486417472E+02  0.49752200920E+01  0.31687955092E+02  0.00000000000E+00 0. -1.
</event>
<event>
 8    1  0.1212194E-006  0.9118800E+02  0.7816164E-02  0.1184000E+00
        -11   -1    0    0    0    0  0.00000000000E+00  0.00000000000E+00  0.45593999997E+02  0.45594000000E+02  0.51100000000E-03 0.  1.
         11   -1    0    0    0    0 -0.00000000000E+00 -0.00000000000E+00 -0.45593999997E+02  0.45594000000E+02  0.51100000000E-03 0. -1.
         23    2    1    2    0    0 -0.88817841970E-15 -0.17763568394E-14  0.00000000000E+00  0.91188000000E+02  0.91188000000E+02 0.  0.
    9900012    2    3    3    0    0 -0.26294215417E+01 -0.99204356043E+01  0.35361717798E+02  0.54367082224E+02  0.39999995547E+02 0.  0.
         12    1    3    3    0    0  0.26294215417E+01  0.99204356043E+01 -0.35361717798E+02  0.36820917776E+02  0.00000000000E+00 0. -1.
         11    1    4    4    0    0  0.34721747054E+01 -0.20127489576E+02  0.13224251142E+02  0.24332132096E+02  0.51100000000E-03 0.  1.
        -11    1    4    4    0    0  0.48957290487E+01  0.14886785560E+00  0.28720917363E+01  0.56779605282E+01  0.51100000000E-03 0. -1.
        -12    1    4    4    0    0 -0.10997325296E+02  0.10058186116E+02  0.19265374919E+02  0.24356989600E+02  0.00000000000E+00 0.  1.
</event>
<event>
 8    1  0.1212194E-006  0.9118800E+02  0.7816164E-02  0.1184000E+00
        -11   -1    0    0    0    0  0.00000000000E+00  0.00000000000E+00  0.45593999997E+02  0.45594000000E+02  0.51100000000E-03 0. -1.
         11   -1    0    0    0    0 -0.00000000000E+00 -0.00000000000E+00 -0.45593999997E+02  0.45594000000E+02  0.51100000000E-03 0.  1.
         23    2    1    2    0    0 -0.17763568394E-14  0.35527136788E-14  0.00000000000E+00  0.91188000000E+02  0.91188000000E+02 0.  0.
    9900012    2    3    3    0    0  0.15458413519E+02  0.14476830685E+02 -0.30120402570E+02  0.54367084392E+02  0.40000000489E+02 0.  0.
         12    1    3    3    0    0 -0.15458413519E+02 -0.14476830685E+02  0.30120402570E+02  0.36820915608E+02  0.00000000000E+00 0. -1.
         11    1    4    4    0    0  0.52661620572E+00 -0.22044138047E+01 -0.22537803591E+02  0.22651475798E+02  0.51100000000E-03 0. -1.
        -11    1    4    4    0    0  0.15640639931E+02  0.21124675157E+02 -0.67799265666E+01  0.27144961272E+02  0.51100000000E-03 0.  1.
         12    1    4    4    0    0 -0.70884261785E+00 -0.44434306671E+01 -0.80267241250E+00  0.45706473230E+01  0.00000000000E+00 0. -1.
</event>
<event>
 8    1  0.1212194E-006  0.9118800E+02  0.7816164E-02  0.1184000E+00
        -11   -1    0    0    0    0  0.00000000000E+00  0.00000000000E+00  0.45593999997E+02  0.45594000000E+02  0.51100000000E-03 0. -1.
         11   -1    0    0    0    0 -0.00000000000E+00 -0.00000000000E+00 -0.45593999997E+02  0.45594000000E+02  0.51100000000E-03 0.  1.
         23    2    1    2    0    0  0.00000000000E+00  0.00000000000E+00  0.00000000000E+00  0.91188000000E+02  0.91188000000E+02 0.  0.
    9900012    2    3    3    0    0  0.93056552345E+01  0.34537458416E+02 -0.87377358091E+01  0.54367091806E+02  0.40000017390E+02 0.  0.
        -12    1    3    3    0    0 -0.93056552345E+01 -0.34537458416E+02  0.87377358091E+01  0.36820908194E+02  0.00000000000E+00 0.  1.
         11    1    4    4    0    0 -0.12138607634E+00  0.36588561460E+01  0.18285529641E+01  0.40921350271E+01  0.51100000000E-03 0. -1.
        -11    1    4    4    0    0 -0.69435975955E+01  0.22036023322E+02 -0.18936358055E+02  0.29872822566E+02  0.51100000000E-03 0.  1.
         12    1    4    4    0    0  0.16370638906E+02  0.88425789483E+01  0.83700692818E+01  0.20402134213E+02  0.00000000000E+00 0. -1.
</event>
<event>
 8    1  0.1212194E-006  0.9118800E+02  0.7816164E-02  0.1184000E+00
        -11   -1    0    0    0    0  0.00000000000E+00  0.00000000000E+00  0.45593999997E+02  0.45594000000E+02  0.51100000000E-03 0. -1.
         11   -1    0    0    0    0 -0.00000000000E+00 -0.00000000000E+00 -0.45593999997E+02  0.45594000000E+02  0.51100000000E-03 0.  1.
         23    2    1    2    0    0 -0.35527136788E-14  0.00000000000E+00  0.35527136788E-14  0.91188000000E+02  0.91188000000E+02 0.  0.
    9900012    2    3    3    0    0 -0.13999751827E+02  0.16515514221E+02 -0.29782975809E+02  0.54367069685E+02  0.39999966960E+02 0.  0.
         12    1    3    3    0    0  0.13999751827E+02 -0.16515514221E+02  0.29782975809E+02  0.36820930315E+02  0.00000000000E+00 0. -1.
         11    1    4    4    0    0  0.78060370081E+01  0.50791646322E+00 -0.48866686997E+01  0.92234334251E+01  0.51100000000E-03 0. -1.
        -11    1    4    4    0    0 -0.84325133680E+01 -0.56905394090E+01 -0.14279356433E+02  0.17532528079E+02  0.51100000000E-03 0.  1.
         12    1    4    4    0    0 -0.13373275467E+02  0.21698137167E+02 -0.10616950677E+02  0.27611108180E+02  0.00000000000E+00 0. -1.
</event>
<event>
 8    1  0.1212194E-006  0.9118800E+02  0.7816164E-02  0.1184000E+00
        -11   -1    0    0    0    0  0.00000000000E+00  0.00000000000E+00  0.45593999997E+02  0.45594000000E+02  0.51100000000E-03 0. -1.
         11   -1    0    0    0    0 -0.00000000000E+00 -0.00000000000E+00 -0.45593999997E+02  0.45594000000E+02  0.51100000000E-03 0.  1.
         23    2    1    2    0    0  0.88817841970E-15  0.00000000000E+00 -0.83266726847E-15  0.91188000000E+02  0.91188000000E+02 0.  0.
    9900012    2    3    3    0    0 -0.53589187748E+01  0.36428792571E+02  0.69854184995E-01  0.54367084501E+02  0.40000000737E+02 0.  0.
         12    1    3    3    0    0  0.53589187748E+01 -0.36428792571E+02 -0.69854184995E-01  0.36820915499E+02  0.00000000000E+00 0. -1.
         11    1    4    4    0    0  0.43450219498E+01  0.12816642665E+02  0.12074058923E+02  0.18136384537E+02  0.51100000000E-03 0. -1.
        -11    1    4    4    0    0 -0.28936794493E+01  0.16756064328E+02 -0.18076747118E+02  0.24817490992E+02  0.51100000000E-03 0.  1.
        -12    1    4    4    0    0 -0.68102612752E+01  0.68560855778E+01  0.60725423800E+01  0.11413208972E+02  0.00000000000E+00 0.  1.
</event>
<event>
 8    1  0.1212194E-006  0.9118800E+02  0.7816164E-02  0.1184000E+00
        -11   -1    0    0    0    0  0.00000000000E+00  0.00000000000E+00  0.45593999997E+02  0.45594000000E+02  0.51100000000E-03 0.  1.
         11   -1    0    0    0    0 -0.00000000000E+00 -0.00000000000E+00 -0.45593999997E+02  0.45594000000E+02  0.51100000000E-03 0. -1.
         23    2    1    2    0    0  0.00000000000E+00 -0.35527136788E-14  0.00000000000E+00  0.91188000000E+02  0.91188000000E+02 0.  0.
    9900012    2    3    3    0    0  0.16138322343E+02  0.23937868022E+02 -0.22854157137E+02  0.54367089202E+02  0.40000011455E+02 0.  0.
         12    1    3    3    0    0 -0.16138322343E+02 -0.23937868022E+02  0.22854157137E+02  0.36820910798E+02  0.00000000000E+00 0. -1.
         11    1    4    4    0    0  0.75631364677E+01  0.11232686355E+02 -0.16554255580E+02  0.21387324612E+02  0.51100000000E-03 0. -1.
        -11    1    4    4    0    0  0.51251982881E-01  0.20121127335E+02 -0.16211866723E+00  0.20121845709E+02  0.51100000000E-03 0.  1.
         12    1    4    4    0    0  0.85239338929E+01 -0.74159456681E+01 -0.61377828897E+01  0.12857918881E+02  0.00000000000E+00 0. -1.
</event>
<event>
 8    1  0.1212194E-006  0.9118800E+02  0.7816164E-02  0.1184000E+00
        -11   -1    0    0    0    0  0.00000000000E+00  0.00000000000E+00  0.45593999997E+02  0.45594000000E+02  0.51100000000E-03 0.  1.
         11   -1    0    0    0    0 -0.00000000000E+00 -0.00000000000E+00 -0.45593999997E+02  0.45594000000E+02  0.51100000000E-03 0. -1.
         23    2    1    2    0    0  0.00000000000E+00  0.00000000000E+00  0.17763568394E-14  0.91188000000E+02  0.91188000000E+02 0.  0.
    9900012    2    3    3    0    0 -0.24435080333E+02 -0.25451727666E+02  0.10531682902E+02  0.54367082890E+02  0.39999997064E+02 0.  0.
         12    1    3    3    0    0  0.24435080333E+02  0.25451727666E+02 -0.10531682902E+02  0.36820917110E+02  0.00000000000E+00 0. -1.
         11    1    4    4    0    0 -0.34314056465E+01  0.94792745231E+01 -0.25596764516E+00  0.10084478662E+02  0.51100000000E-03 0. -1.
        -11    1    4    4    0    0 -0.44585759465E+01 -0.19046614285E+00  0.88316684553E+00  0.45491934186E+01  0.51100000000E-03 0.  1.
        -12    1    4    4    0    0 -0.16545098740E+02 -0.34740536046E+02  0.99044837017E+01  0.39733410809E+02  0.00000000000E+00 0.  1.
</event>
<event>
 8    1  0.1212194E-006  0.9118800E+02  0.7816164E-02  0.1184000E+00
        -11   -1    0    0    0    0  0.00000000000E+00  0.00000000000E+00  0.45593999997E+02  0.45594000000E+02  0.51100000000E-03 0.  1.
         11   -1    0    0    0    0 -0.00000000000E+00 -0.00000000000E+00 -0.45593999997E+02  0.45594000000E+02  0.51100000000E-03 0. -1.
         23    2    1    2    0    0  0.00000000000E+00 -0.35527136788E-14 -0.88817841970E-15  0.91188000000E+02  0.91188000000E+02 0.  0.
    9900012    2    3    3    0    0  0.27422388900E+02 -0.24115699575E+02 -0.47141630411E+01  0.54367113099E+02  0.40000065932E+02 0.  0.
        -12    1    3    3    0    0 -0.27422388900E+02  0.24115699575E+02  0.47141630411E+01  0.36820886901E+02  0.00000000000E+00 0.  1.
         11    1    4    4    0    0  0.19090208870E+02 -0.93745098005E+01  0.52163918238E+01  0.21898133542E+02  0.51100000000E-03 0. -1.
        -11    1    4    4    0    0  0.51154432612E+01  0.68833697757E+01 -0.30539824100E+00  0.85814805001E+01  0.51100000000E-03 0.  1.
         12    1    4    4    0    0  0.32167367689E+01 -0.21624559550E+02 -0.96251566239E+01  0.23887499057E+02  0.00000000000E+00 0. -1.
</event>
<event>
 8    1  0.1212194E-006  0.9118800E+02  0.7816164E-02  0.1184000E+00
        -11   -1    0    0    0    0  0.00000000000E+00  0.00000000000E+00  0.45593999997E+02  0.45594000000E+02  0.51100000000E-03 0.  1.
         11   -1    0    0    0    0 -0.00000000000E+00 -0.00000000000E+00 -0.45593999997E+02  0.45594000000E+02  0.51100000000E-03 0. -1.
         23    2    1    2    0    0  0.00000000000E+00  0.22204460493E-15  0.00000000000E+00  0.91188000000E+02  0.91188000000E+02 0.  0.
    9900012    2    3    3    0    0  0.32886467137E+02  0.18204948964E+01  0.16460478101E+02  0.54367064899E+02  0.39999956050E+02 0.  0.
         12    1    3    3    0    0 -0.32886467137E+02 -0.18204948964E+01 -0.16460478101E+02  0.36820935101E+02  0.00000000000E+00 0. -1.
         11    1    4    4    0    0  0.19078409033E+02  0.22570565254E+00  0.13149251141E+01  0.19125000982E+02  0.51100000000E-03 0. -1.
        -11    1    4    4    0    0 -0.26034437937E+01 -0.69942381520E+01  0.14959681802E+02  0.16717935482E+02  0.51100000000E-03 0.  1.
         12    1    4    4    0    0  0.16411501898E+02  0.85890273959E+01  0.18587118454E+00  0.18524128434E+02  0.00000000000E+00 0. -1.
</event>
<event>
 8    1  0.1212194E-006  0.9118800E+02  0.7816164E-02  0.1184000E+00
        -11   -1    0    0    0    0  0.00000000000E+00  0.00000000000E+00  0.45593999997E+02  0.45594000000E+02  0.51100000000E-03 0.  1.
         11   -1    0    0    0    0 -0.00000000000E+00 -0.00000000000E+00 -0.45593999997E+02  0.45594000000E+02  0.51100000000E-03 0. -1.
         23    2    1    2    0    0 -0.35527136788E-14  0.00000000000E+00 -0.35527136788E-14  0.91188000000E+02  0.91188000000E+02 0.  0.
    9900012    2    3    3    0    0 -0.16764226016E+02 -0.16238918556E+02  0.28478732197E+02  0.54367082883E+02  0.39999997049E+02 0.  0.
         12    1    3    3    0    0  0.16764226016E+02  0.16238918556E+02 -0.28478732197E+02  0.36820917117E+02  0.00000000000E+00 0. -1.
         11    1    4    4    0    0 -0.49947181417E+01 -0.27340847098E+01 -0.12064318120E+01  0.58204730472E+01  0.51100000000E-03 0. -1.
        -11    1    4    4    0    0 -0.23151805980E+02 -0.13123785378E+02  0.23915790023E+02  0.35779950747E+02  0.51100000000E-03 0.  1.
         12    1    4    4    0    0  0.11382298106E+02 -0.38104846848E+00  0.57693739853E+01  0.12766659089E+02  0.00000000000E+00 0. -1.
</event>
<event>
 8    1  0.1212194E-006  0.9118800E+02  0.7816164E-02  0.1184000E+00
        -11   -1    0    0    0    0  0.00000000000E+00  0.00000000000E+00  0.45593999997E+02  0.45594000000E+02  0.51100000000E-03 0. -1.
         11   -1    0    0    0    0 -0.00000000000E+00 -0.00000000000E+00 -0.45593999997E+02  0.45594000000E+02  0.51100000000E-03 0.  1.
         23    2    1    2    0    0  0.00000000000E+00  0.00000000000E+00  0.00000000000E+00  0.91188000000E+02  0.91188000000E+02 0.  0.
    9900012    2    3    3    0    0 -0.30212028752E+02  0.17803847911E+02  0.11226766010E+02  0.54367028302E+02  0.39999872619E+02 0.  0.
        -12    1    3    3    0    0  0.30212028752E+02 -0.17803847911E+02 -0.11226766010E+02  0.36820971698E+02  0.00000000000E+00 0.  1.
         11    1    4    4    0    0 -0.17084329924E+02  0.73162557364E+01  0.24552106516E+02  0.30792983967E+02  0.51100000000E-03 0. -1.
        -11    1    4    4    0    0 -0.47833676904E+01  0.72186675595E+01 -0.11553790635E+02  0.14438831189E+02  0.51100000000E-03 0.  1.
         12    1    4    4    0    0 -0.83443311377E+01  0.32689246152E+01 -0.17715498714E+01  0.91352131460E+01  0.00000000000E+00 0. -1.
</event>
<event>
 8    1  0.1212194E-006  0.9118800E+02  0.7816164E-02  0.1184000E+00
        -11   -1    0    0    0    0  0.00000000000E+00  0.00000000000E+00  0.45593999997E+02  0.45594000000E+02  0.51100000000E-03 0.  1.
         11   -1    0    0    0    0 -0.00000000000E+00 -0.00000000000E+00 -0.45593999997E+02  0.45594000000E+02  0.51100000000E-03 0. -1.
         23    2    1    2    0    0  0.22204460493E-14  0.71054273576E-14 -0.22204460493E-15  0.91188000000E+02  0.91188000000E+02 0.  0.
    9900012    2    3    3    0    0 -0.13591922718E+01  0.36792203730E+02 -0.51522984901E+00  0.54367093972E+02  0.40000022328E+02 0.  0.
         12    1    3    3    0    0  0.13591922718E+01 -0.36792203730E+02  0.51522984901E+00  0.36820906028E+02  0.00000000000E+00 0. -1.
         11    1    4    4    0    0  0.17170532163E+02  0.96155001847E+01  0.31568602191E+01  0.19931151128E+02  0.51100000000E-03 0. -1.
        -11    1    4    4    0    0 -0.12308955482E+02  0.23301125953E+02 -0.26581073187E+00  0.26353813981E+02  0.51100000000E-03 0.  1.
        -12    1    4    4    0    0 -0.62207689528E+01  0.38755775922E+01 -0.34062793363E+01  0.80821288628E+01  0.00000000000E+00 0.  1.
</event>
<event>
 8    1  0.1212194E-006  0.9118800E+02  0.7816164E-02  0.1184000E+00
        -11   -1    0    0    0    0  0.00000000000E+00  0.00000000000E+00  0.45593999997E+02  0.45594000000E+02  0.51100000000E-03 0. -1.
         11   -1    0    0    0    0 -0.00000000000E+00 -0.00000000000E+00 -0.45593999997E+02  0.45594000000E+02  0.51100000000E-03 0.  1.
         23    2    1    2    0    0  0.00000000000E+00 -0.35527136788E-14  0.00000000000E+00  0.91188000000E+02  0.91188000000E+02 0.  0.
    9900012    2    3    3    0    0  0.12101119760E+02  0.84726917225E+01 -0.33727685088E+02  0.54367077336E+02  0.39999984402E+02 0.  0.
         12    1    3    3    0    0 -0.12101119760E+02 -0.84726917225E+01  0.33727685088E+02  0.36820922664E+02  0.00000000000E+00 0. -1.
         11    1    4    4    0    0 -0.79357427010E+01 -0.96537706521E+01 -0.48077752512E+01  0.13389772334E+02  0.51100000000E-03 0. -1.
        -11    1    4    4    0    0  0.16905087369E+02  0.18279187914E+02 -0.21403880101E+02  0.32833470322E+02  0.51100000000E-03 0.  1.
        -12    1    4    4    0    0  0.31317750921E+01 -0.15272553902E+00 -0.75160297350E+01  0.81438346800E+01  0.00000000000E+00 0.  1.
</event>
<event>
 8    1  0.1212194E-006  0.9118800E+02  0.7816164E-02  0.1184000E+00
        -11   -1    0    0    0    0  0.00000000000E+00  0.00000000000E+00  0.45593999997E+02  0.45594000000E+02  0.51100000000E-03 0.  1.
         11   -1    0    0    0    0 -0.00000000000E+00 -0.00000000000E+00 -0.45593999997E+02  0.45594000000E+02  0.51100000000E-03 0. -1.
         23    2    1    2    0    0  0.35527136788E-14  0.00000000000E+00 -0.35527136788E-14  0.91188000000E+02  0.91188000000E+02 0.  0.
    9900012    2    3    3    0    0  0.22427445643E+02 -0.23087711738E+02 -0.17881498126E+02  0.54367072166E+02  0.39999972616E+02 0.  0.
        -12    1    3    3    0    0 -0.22427445643E+02  0.23087711738E+02  0.17881498126E+02  0.36820927834E+02  0.00000000000E+00 0.  1.
         11    1    4    4    0    0  0.13322337831E+01 -0.62772688314E+01 -0.28279891972E+01  0.70125939563E+01  0.51100000000E-03 0. -1.
        -11    1    4    4    0    0  0.17395904547E+02 -0.60842619218E+01  0.91853971204E+01  0.20591436537E+02  0.51100000000E-03 0.  1.
         12    1    4    4    0    0  0.36993073127E+01 -0.10726180985E+02 -0.24238906049E+02  0.26763041672E+02  0.00000000000E+00 0. -1.
</event>
<event>
 8    1  0.1212194E-006  0.9118800E+02  0.7816164E-02  0.1184000E+00
        -11   -1    0    0    0    0  0.00000000000E+00  0.00000000000E+00  0.45593999997E+02  0.45594000000E+02  0.51100000000E-03 0.  1.
         11   -1    0    0    0    0 -0.00000000000E+00 -0.00000000000E+00 -0.45593999997E+02  0.45594000000E+02  0.51100000000E-03 0. -1.
         23    2    1    2    0    0 -0.71054273576E-14  0.00000000000E+00 -0.88817841970E-15  0.91188000000E+02  0.91188000000E+02 0.  0.
    9900012    2    3    3    0    0  0.31473836438E+02  0.18148648667E+02 -0.59836534538E+01  0.54367082884E+02  0.39999997052E+02 0.  0.
         12    1    3    3    0    0 -0.31473836438E+02 -0.18148648667E+02  0.59836534538E+01  0.36820917116E+02  0.00000000000E+00 0. -1.
         11    1    4    4    0    0  0.69749906392E+01  0.13834083089E+01 -0.18508494118E+02  0.19827472550E+02  0.51100000000E-03 0. -1.
        -11    1    4    4    0    0  0.13221819998E+02  0.19542789710E+01  0.71803893538E+01  0.15172136365E+02  0.51100000000E-03 0.  1.
         12    1    4    4    0    0  0.11277025801E+02  0.14810961387E+02  0.53444513102E+01  0.19367473969E+02  0.00000000000E+00 0. -1.
</event>
<event>
 8    1  0.1212194E-006  0.9118800E+02  0.7816164E-02  0.1184000E+00
        -11   -1    0    0    0    0  0.00000000000E+00  0.00000000000E+00  0.45593999997E+02  0.45594000000E+02  0.51100000000E-03 0.  1.
         11   -1    0    0    0    0 -0.00000000000E+00 -0.00000000000E+00 -0.45593999997E+02  0.45594000000E+02  0.51100000000E-03 0. -1.
         23    2    1    2    0    0 -0.17763568394E-14  0.71054273576E-14 -0.88817841970E-15  0.91188000000E+02  0.91188000000E+02 0.  0.
    9900012    2    3    3    0    0  0.10372492820E+02 -0.34653361227E+02  0.68802546329E+01  0.54367055479E+02  0.39999934575E+02 0.  0.
         12    1    3    3    0    0 -0.10372492820E+02  0.34653361227E+02 -0.68802546329E+01  0.36820944521E+02  0.00000000000E+00 0. -1.
         11    1    4    4    0    0  0.11555456655E+01 -0.33287324183E+01 -0.68736257637E+01  0.77241489304E+01  0.51100000000E-03 0. -1.
        -11    1    4    4    0    0  0.10048543065E+00  0.18798592316E+01  0.12019482420E+02  0.12166015205E+02  0.51100000000E-03 0.  1.
        -12    1    4    4    0    0  0.91164617239E+01 -0.33204488040E+02  0.17343979763E+01  0.34476891344E+02  0.00000000000E+00 0.  1.
</event>
<event>
 8    1  0.1212194E-006  0.9118800E+02  0.7816164E-02  0.1184000E+00
        -11   -1    0    0    0    0  0.00000000000E+00  0.00000000000E+00  0.45593999997E+02  0.45594000000E+02  0.51100000000E-03 0.  1.
         11   -1    0    0    0    0 -0.00000000000E+00 -0.00000000000E+00 -0.45593999997E+02  0.45594000000E+02  0.51100000000E-03 0. -1.
         23    2    1    2    0    0  0.00000000000E+00  0.00000000000E+00  0.44408920985E-15  0.91188000000E+02  0.91188000000E+02 0.  0.
    9900012    2    3    3    0    0  0.13777947712E+02 -0.34084111463E+02 -0.20544643628E+01  0.54367091250E+02  0.40000016122E+02 0.  0.
        -12    1    3    3    0    0 -0.13777947712E+02  0.34084111463E+02  0.20544643628E+01  0.36820908750E+02  0.00000000000E+00 0.  1.
         11    1    4    4    0    0  0.21193637680E+02 -0.25257388597E+02 -0.30149460991E+01  0.33108848622E+02  0.51100000000E-03 0. -1.
        -11    1    4    4    0    0 -0.21032250951E+01  0.46529245157E+01 -0.33916639843E+01  0.61299793795E+01  0.51100000000E-03 0.  1.
        -12    1    4    4    0    0 -0.53124648721E+01 -0.13479647382E+02  0.43521457205E+01  0.15128263249E+02  0.00000000000E+00 0.  1.
</event>
<event>
 8    1  0.1212194E-006  0.9118800E+02  0.7816164E-02  0.1184000E+00
        -11   -1    0    0    0    0  0.00000000000E+00  0.00000000000E+00  0.45593999997E+02  0.45594000000E+02  0.51100000000E-03 0. -1.
         11   -1    0    0    0    0 -0.00000000000E+00 -0.00000000000E+00 -0.45593999997E+02  0.45594000000E+02  0.51100000000E-03 0.  1.
         23    2    1    2    0    0 -0.88817841970E-15  0.17763568394E-14  0.14210854715E-13  0.91188000000E+02  0.91188000000E+02 0.  0.
    9900012    2    3    3    0    0 -0.32691906943E+01  0.99648872128E+01  0.35295795351E+02  0.54367085367E+02  0.40000002712E+02 0.  0.
        -12    1    3    3    0    0  0.32691906943E+01 -0.99648872128E+01 -0.35295795351E+02  0.36820914633E+02  0.00000000000E+00 0.  1.
         11    1    4    4    0    0  0.14054403939E+02  0.44083992708E+01  0.20367003568E+02  0.25135136539E+02  0.51100000000E-03 0. -1.
        -11    1    4    4    0    0 -0.14217250486E+01 -0.34563766123E+01 -0.20686735060E+01  0.42716802005E+01  0.51100000000E-03 0.  1.
        -12    1    4    4    0    0 -0.15901869585E+02  0.90128645543E+01  0.16997465288E+02  0.24960268628E+02  0.00000000000E+00 0.  1.
</event>
<event>
 8    1  0.1212194E-006  0.9118800E+02  0.7816164E-02  0.1184000E+00
        -11   -1    0    0    0    0  0.00000000000E+00  0.00000000000E+00  0.45593999997E+02  0.45594000000E+02  0.51100000000E-03 0. -1.
         11   -1    0    0    0    0 -0.00000000000E+00 -0.00000000000E+00 -0.45593999997E+02  0.45594000000E+02  0.51100000000E-03 0.  1.
         23    2    1    2    0    0  0.00000000000E+00 -0.17763568394E-14  0.00000000000E+00  0.91188000000E+02  0.91188000000E+02 0.  0.
    9900012    2    3    3    0    0 -0.15270986932E+02  0.15283771664E+02  0.29815832128E+02  0.54367074378E+02  0.39999977660E+02 0.  0.
        -12    1    3    3    0    0  0.15270986932E+02 -0.15283771664E+02 -0.29815832128E+02  0.36820925622E+02  0.00000000000E+00 0.  1.
         11    1    4    4    0    0 -0.20568504795E+02  0.24769723346E+01  0.12102372623E+02  0.23993044926E+02  0.51100000000E-03 0. -1.
        -11    1    4    4    0    0  0.93765278710E+01 -0.17542448152E+01  0.73410725600E+01  0.12036942983E+02  0.51100000000E-03 0.  1.
         12    1    4    4    0    0 -0.40790100083E+01  0.14561044145E+02  0.10372386945E+02  0.18337086469E+02  0.00000000000E+00 0. -1.
</event>
<event>
 8    1  0.1212194E-006  0.9118800E+02  0.7816164E-02  0.1184000E+00
        -11   -1    0    0    0    0  0.00000000000E+00  0.00000000000E+00  0.45593999997E+02  0.45594000000E+02  0.51100000000E-03 0. -1.
         11   -1    0    0    0    0 -0.00000000000E+00 -0.00000000000E+00 -0.45593999997E+02  0.45594000000E+02  0.51100000000E-03 0.  1.
         23    2    1    2    0    0  0.88817841970E-15  0.71054273576E-14 -0.35527136788E-14  0.91188000000E+02  0.91188000000E+02 0.  0.
    9900012    2    3    3    0    0 -0.26796955169E+01 -0.29531956235E+02  0.21828024361E+02  0.54367084006E+02  0.39999999609E+02 0.  0.
        -12    1    3    3    0    0  0.26796955169E+01  0.29531956235E+02 -0.21828024361E+02  0.36820915994E+02  0.00000000000E+00 0.  1.
         11    1    4    4    0    0 -0.89340547678E+01 -0.16538972476E+02  0.16976073480E+02  0.25328679717E+02  0.51100000000E-03 0. -1.
        -11    1    4    4    0    0  0.74100485385E+01  0.36152298907E+01  0.86630402501E+01  0.11959388494E+02  0.51100000000E-03 0.  1.
        -12    1    4    4    0    0 -0.11556892876E+01 -0.16608213650E+02 -0.38110893693E+01  0.17079015796E+02  0.00000000000E+00 0.  1.
</event>
<event>
 8    1  0.1212194E-006  0.9118800E+02  0.7816164E-02  0.1184000E+00
        -11   -1    0    0    0    0  0.00000000000E+00  0.00000000000E+00  0.45593999997E+02  0.45594000000E+02  0.51100000000E-03 0.  1.
         11   -1    0    0    0    0 -0.00000000000E+00 -0.00000000000E+00 -0.45593999997E+02  0.45594000000E+02  0.51100000000E-03 0. -1.
         23    2    1    2    0    0  0.00000000000E+00  0.00000000000E+00  0.35527136788E-14  0.91188000000E+02  0.91188000000E+02 0.  0.
    9900012    2    3    3    0    0 -0.27721238369E+02 -0.11045951812E+02 -0.21570815722E+02  0.54367079329E+02  0.39999988947E+02 0.  0.
        -12    1    3    3    0    0  0.27721238369E+02  0.11045951812E+02  0.21570815722E+02  0.36820920671E+02  0.00000000000E+00 0.  1.
         11    1    4    4    0    0 -0.23624891625E+02 -0.55505545557E+01 -0.68925949192E+01  0.25228000815E+02  0.51100000000E-03 0. -1.
        -11    1    4    4    0    0 -0.72799471492E+01 -0.12172937785E+02 -0.16257156232E+02  0.21574827319E+02  0.51100000000E-03 0.  1.
        -12    1    4    4    0    0  0.31836004054E+01  0.66775405288E+01  0.15789354289E+01  0.75642511952E+01  0.00000000000E+00 0.  1.
</event>
<event>
 8    1  0.1212194E-006  0.9118800E+02  0.7816164E-02  0.1184000E+00
        -11   -1    0    0    0    0  0.00000000000E+00  0.00000000000E+00  0.45593999997E+02  0.45594000000E+02  0.51100000000E-03 0. -1.
         11   -1    0    0    0    0 -0.00000000000E+00 -0.00000000000E+00 -0.45593999997E+02  0.45594000000E+02  0.51100000000E-03 0.  1.
         23    2    1    2    0    0  0.00000000000E+00  0.35527136788E-14 -0.35527136788E-14  0.91188000000E+02  0.91188000000E+02 0.  0.
    9900012    2    3    3    0    0 -0.27260866500E+02  0.19889371365E+02 -0.14732221589E+02  0.54367078113E+02  0.39999986175E+02 0.  0.
         12    1    3    3    0    0  0.27260866500E+02 -0.19889371365E+02  0.14732221589E+02  0.36820921887E+02  0.00000000000E+00 0. -1.
         11    1    4    4    0    0 -0.17524972783E+01  0.80489545113E+01 -0.12737979796E+02  0.15169477413E+02  0.51100000000E-03 0. -1.
        -11    1    4    4    0    0 -0.26866867799E+02  0.16138435728E+02  0.41097734014E+01  0.31609617694E+02  0.51100000000E-03 0.  1.
         12    1    4    4    0    0  0.13584985767E+01 -0.42980188742E+01 -0.61040151943E+01  0.75879830072E+01  0.00000000000E+00 0. -1.
</event>
<event>
 8    1  0.1212194E-006  0.9118800E+02  0.7816164E-02  0.1184000E+00
        -11   -1    0    0    0    0  0.00000000000E+00  0.00000000000E+00  0.45593999997E+02  0.45594000000E+02  0.51100000000E-03 0. -1.
         11   -1    0    0    0    0 -0.00000000000E+00 -0.00000000000E+00 -0.45593999997E+02  0.45594000000E+02  0.51100000000E-03 0.  1.
         23    2    1    2    0    0 -0.44408920985E-15 -0.16653345369E-14  0.00000000000E+00  0.91188000000E+02  0.91188000000E+02 0.  0.
    9900012    2    3    3    0    0  0.24516241832E+01  0.82075545652E+00  0.36730048778E+02  0.54367074103E+02  0.39999977032E+02 0.  0.
        -12    1    3    3    0    0 -0.24516241832E+01 -0.82075545652E+00 -0.36730048778E+02  0.36820925897E+02  0.00000000000E+00 0.  1.
         11    1    4    4    0    0 -0.13100097385E+01  0.60627198022E+01  0.58482373714E+00  0.62301457431E+01  0.51100000000E-03 0. -1.
        -11    1    4    4    0    0 -0.58598217426E+01 -0.15570779836E+02  0.13376527565E+02  0.21347556898E+02  0.51100000000E-03 0.  1.
        -12    1    4    4    0    0  0.96214556643E+01  0.10328815491E+02  0.22768697476E+02  0.26789371461E+02  0.00000000000E+00 0.  1.
</event>
<event>
 8    1  0.1212194E-006  0.9118800E+02  0.7816164E-02  0.1184000E+00
        -11   -1    0    0    0    0  0.00000000000E+00  0.00000000000E+00  0.45593999997E+02  0.45594000000E+02  0.51100000000E-03 0.  1.
         11   -1    0    0    0    0 -0.00000000000E+00 -0.00000000000E+00 -0.45593999997E+02  0.45594000000E+02  0.51100000000E-03 0. -1.
         23    2    1    2    0    0  0.00000000000E+00 -0.88817841970E-15  0.71054273576E-14  0.91188000000E+02  0.91188000000E+02 0.  0.
    9900012    2    3    3    0    0  0.10863169746E+02  0.40262191540E+01  0.34950810878E+02  0.54367108123E+02  0.40000054588E+02 0.  0.
         12    1    3    3    0    0 -0.10863169746E+02 -0.40262191540E+01 -0.34950810878E+02  0.36820891877E+02  0.00000000000E+00 0. -1.
         11    1    4    4    0    0 -0.84194172248E+01 -0.35667053835E+01 -0.31945840167E+01  0.96857287283E+01  0.51100000000E-03 0. -1.
        -11    1    4    4    0    0  0.12260441256E+02 -0.82599909410E+00  0.19338304113E+02  0.22912239098E+02  0.51100000000E-03 0.  1.
        -12    1    4    4    0    0  0.70221457154E+01  0.84189236316E+01  0.18807090782E+02  0.21769140296E+02  0.00000000000E+00 0.  1.
</event>
<event>
 8    1  0.1212194E-006  0.9118800E+02  0.7816164E-02  0.1184000E+00
        -11   -1    0    0    0    0  0.00000000000E+00  0.00000000000E+00  0.45593999997E+02  0.45594000000E+02  0.51100000000E-03 0. -1.
         11   -1    0    0    0    0 -0.00000000000E+00 -0.00000000000E+00 -0.45593999997E+02  0.45594000000E+02  0.51100000000E-03 0.  1.
         23    2    1    2    0    0  0.00000000000E+00  0.44408920985E-15  0.88817841970E-15  0.91188000000E+02  0.91188000000E+02 0.  0.
    9900012    2    3    3    0    0  0.35900407020E+02 -0.24650387498E+01  0.78022240279E+01  0.54366941622E+02  0.39999675015E+02 0.  0.
         12    1    3    3    0    0 -0.35900407020E+02  0.24650387498E+01 -0.78022240279E+01  0.36821058378E+02  0.00000000000E+00 0. -1.
         11    1    4    4    0    0  0.21651587162E+02  0.10654855210E+02  0.40154067820E+01  0.24463046786E+02  0.51100000000E-03 0. -1.
        -11    1    4    4    0    0  0.13922005705E+01  0.43228549045E+01  0.66435374530E+01  0.80474770645E+01  0.51100000000E-03 0.  1.
        -12    1    4    4    0    0  0.12856619288E+02 -0.17442748865E+02 -0.28567202071E+01  0.21856417772E+02  0.00000000000E+00 0.  1.
</event>
<event>
 8    1  0.1212194E-006  0.9118800E+02  0.7816164E-02  0.1184000E+00
        -11   -1    0    0    0    0  0.00000000000E+00  0.00000000000E+00  0.45593999997E+02  0.45594000000E+02  0.51100000000E-03 0. -1.
         11   -1    0    0    0    0 -0.00000000000E+00 -0.00000000000E+00 -0.45593999997E+02  0.45594000000E+02  0.51100000000E-03 0.  1.
         23    2    1    2    0    0 -0.35527136788E-14  0.17763568394E-14  0.35527136788E-14  0.91188000000E+02  0.91188000000E+02 0.  0.
    9900012    2    3    3    0    0  0.19582263759E+02 -0.12956397927E+02 -0.28362774328E+02  0.54367078383E+02  0.39999986789E+02 0.  0.
         12    1    3    3    0    0 -0.19582263759E+02  0.12956397927E+02  0.28362774328E+02  0.36820921617E+02  0.00000000000E+00 0. -1.
         11    1    4    4    0    0  0.93921070754E+00  0.12636810521E+02 -0.86187522483E+01  0.15324946574E+02  0.51100000000E-03 0. -1.
        -11    1    4    4    0    0 -0.13332765338E+01 -0.27793734478E+01 -0.34184060953E+01  0.46030472050E+01  0.51100000000E-03 0.  1.
        -12    1    4    4    0    0  0.19976329585E+02 -0.22813835000E+02 -0.16325615984E+02  0.34439084604E+02  0.00000000000E+00 0.  1.
</event>
<event>
 8    1  0.1212194E-006  0.9118800E+02  0.7816164E-02  0.1184000E+00
        -11   -1    0    0    0    0  0.00000000000E+00  0.00000000000E+00  0.45593999997E+02  0.45594000000E+02  0.51100000000E-03 0. -1.
         11   -1    0    0    0    0 -0.00000000000E+00 -0.00000000000E+00 -0.45593999997E+02  0.45594000000E+02  0.51100000000E-03 0.  1.
         23    2    1    2    0    0 -0.88817841970E-15  0.35527136788E-14  0.00000000000E+00  0.91188000000E+02  0.91188000000E+02 0.  0.
    9900012    2    3    3    0    0  0.34957420059E+01  0.27366090219E+02 -0.24385581916E+02  0.54367085951E+02  0.40000004042E+02 0.  0.
         12    1    3    3    0    0 -0.34957420059E+01 -0.27366090219E+02  0.24385581916E+02  0.36820914049E+02  0.00000000000E+00 0. -1.
         11    1    4    4    0    0  0.82488309344E+01  0.63251748348E+01 -0.20001745310E+02  0.22541536420E+02  0.51100000000E-03 0. -1.
        -11    1    4    4    0    0  0.24106043799E+01  0.23078396800E+02 -0.40855779082E-01  0.23203988489E+02  0.51100000000E-03 0.  1.
         12    1    4    4    0    0 -0.71636933084E+01 -0.20374814156E+01 -0.43429808264E+01  0.86215610416E+01  0.00000000000E+00 0. -1.
</event>
<event>
 8    1  0.1212194E-006  0.9118800E+02  0.7816164E-02  0.1184000E+00
        -11   -1    0    0    0    0  0.00000000000E+00  0.00000000000E+00  0.45593999997E+02  0.45594000000E+02  0.51100000000E-03 0. -1.
         11   -1    0    0    0    0 -0.00000000000E+00 -0.00000000000E+00 -0.45593999997E+02  0.45594000000E+02  0.51100000000E-03 0.  1.
         23    2    1    2    0    0  0.00000000000E+00  0.00000000000E+00  0.88817841970E-15  0.91188000000E+02  0.91188000000E+02 0.  0.
    9900012    2    3    3    0    0 -0.27623687338E+02  0.23355040861E+02 -0.68745576572E+01  0.54367006277E+02  0.39999822409E+02 0.  0.
         12    1    3    3    0    0  0.27623687338E+02 -0.23355040861E+02  0.68745576572E+01  0.36820993723E+02  0.00000000000E+00 0. -1.
         11    1    4    4    0    0  0.55273938566E+00  0.20245031161E+01 -0.17602596042E+01  0.27390961704E+01  0.51100000000E-03 0.  1.
        -11    1    4    4    0    0 -0.34850743968E+02  0.70784354742E+01 -0.22634541131E+01  0.35634278843E+02  0.51100000000E-03 0. -1.
         12    1    4    4    0    0  0.66743172444E+01  0.14252102271E+02 -0.28508439400E+01  0.15993631264E+02  0.00000000000E+00 0. -1.
</event>
<event>
 8    1  0.1212194E-006  0.9118800E+02  0.7816164E-02  0.1184000E+00
        -11   -1    0    0    0    0  0.00000000000E+00  0.00000000000E+00  0.45593999997E+02  0.45594000000E+02  0.51100000000E-03 0.  1.
         11   -1    0    0    0    0 -0.00000000000E+00 -0.00000000000E+00 -0.45593999997E+02  0.45594000000E+02  0.51100000000E-03 0. -1.
         23    2    1    2    0    0  0.00000000000E+00  0.00000000000E+00  0.00000000000E+00  0.91188000000E+02  0.91188000000E+02 0.  0.
    9900012    2    3    3    0    0 -0.10218305470E+02  0.29556486353E+02 -0.19436227614E+02  0.54367264047E+02  0.40000410046E+02 0.  0.
        -12    1    3    3    0    0  0.10218305470E+02 -0.29556486353E+02  0.19436227614E+02  0.36820735953E+02  0.00000000000E+00 0.  1.
         11    1    4    4    0    0 -0.15167441840E+02  0.10453206082E+02 -0.24931985456E+02  0.30998785596E+02  0.51100000000E-03 0. -1.
        -11    1    4    4    0    0  0.30274870267E+01  0.14915246732E+02 -0.11708820336E+01  0.15264377739E+02  0.51100000000E-03 0.  1.
         12    1    4    4    0    0  0.19216493433E+01  0.41880335397E+01  0.66666398755E+01  0.81041007124E+01  0.00000000000E+00 0. -1.
</event>
<event>
 8    1  0.1212194E-006  0.9118800E+02  0.7816164E-02  0.1184000E+00
        -11   -1    0    0    0    0  0.00000000000E+00  0.00000000000E+00  0.45593999997E+02  0.45594000000E+02  0.51100000000E-03 0. -1.
         11   -1    0    0    0    0 -0.00000000000E+00 -0.00000000000E+00 -0.45593999997E+02  0.45594000000E+02  0.51100000000E-03 0.  1.
         23    2    1    2    0    0  0.00000000000E+00  0.00000000000E+00  0.17763568394E-14  0.91188000000E+02  0.91188000000E+02 0.  0.
    9900012    2    3    3    0    0  0.92390904422E+01 -0.32772995619E+02 -0.14012464668E+02  0.54367092893E+02  0.40000019869E+02 0.  0.
         12    1    3    3    0    0 -0.92390904422E+01  0.32772995619E+02  0.14012464668E+02  0.36820907107E+02  0.00000000000E+00 0. -1.
         11    1    4    4    0    0 -0.56735695840E+01 -0.36465102539E+01 -0.16506985153E+02  0.17831628864E+02  0.51100000000E-03 0. -1.
        -11    1    4    4    0    0  0.10465429754E+02 -0.22247210331E+02  0.88891575208E+01  0.26143463985E+02  0.51100000000E-03 0.  1.
        -12    1    4    4    0    0  0.44472302723E+01 -0.68792750348E+01 -0.63946370362E+01  0.10392000044E+02  0.00000000000E+00 0.  1.
</event>
<event>
 8    1  0.1212194E-006  0.9118800E+02  0.7816164E-02  0.1184000E+00
        -11   -1    0    0    0    0  0.00000000000E+00  0.00000000000E+00  0.45593999997E+02  0.45594000000E+02  0.51100000000E-03 0. -1.
         11   -1    0    0    0    0 -0.00000000000E+00 -0.00000000000E+00 -0.45593999997E+02  0.45594000000E+02  0.51100000000E-03 0.  1.
         23    2    1    2    0    0 -0.35527136788E-14  0.00000000000E+00 -0.35527136788E-14  0.91188000000E+02  0.91188000000E+02 0.  0.
    9900012    2    3    3    0    0  0.27045996205E+02 -0.12121530203E+02  0.21848650641E+02  0.54367069268E+02  0.39999966009E+02 0.  0.
        -12    1    3    3    0    0 -0.27045996205E+02  0.12121530203E+02 -0.21848650641E+02  0.36820930732E+02  0.00000000000E+00 0.  1.
         11    1    4    4    0    0  0.14968698575E+02 -0.61937256198E+01  0.18034343285E+02  0.24241734922E+02  0.51100000000E-03 0. -1.
        -11    1    4    4    0    0  0.98039620519E+01 -0.96779476862E+01 -0.90842692970E+01  0.16501645138E+02  0.51100000000E-03 0.  1.
         12    1    4    4    0    0  0.22733355781E+01  0.37501431031E+01  0.12898576653E+02  0.13623689207E+02  0.00000000000E+00 0. -1.
</event>
<event>
 8    1  0.1212194E-006  0.9118800E+02  0.7816164E-02  0.1184000E+00
        -11   -1    0    0    0    0  0.00000000000E+00  0.00000000000E+00  0.45593999997E+02  0.45594000000E+02  0.51100000000E-03 0.  1.
         11   -1    0    0    0    0 -0.00000000000E+00 -0.00000000000E+00 -0.45593999997E+02  0.45594000000E+02  0.51100000000E-03 0. -1.
         23    2    1    2    0    0  0.00000000000E+00  0.17763568394E-14 -0.71054273576E-14  0.91188000000E+02  0.91188000000E+02 0.  0.
    9900012    2    3    3    0    0  0.49378609160E+01 -0.96383827615E+01  0.35192287285E+02  0.54367109502E+02  0.40000057732E+02 0.  0.
         12    1    3    3    0    0 -0.49378609160E+01  0.96383827615E+01 -0.35192287285E+02  0.36820890498E+02  0.00000000000E+00 0. -1.
         11    1    4    4    0    0  0.62240358371E+01  0.72472295564E+01  0.18156520049E+02  0.20516339315E+02  0.51100000000E-03 0. -1.
        -11    1    4    4    0    0  0.37649963078E+01  0.39311303137E+01 -0.13650110188E+01  0.56117945510E+01  0.51100000000E-03 0.  1.
        -12    1    4    4    0    0 -0.50511712290E+01 -0.20816742632E+02  0.18400778255E+02  0.28238975636E+02  0.00000000000E+00 0.  1.
</event>
<event>
 8    1  0.1212194E-006  0.9118800E+02  0.7816164E-02  0.1184000E+00
        -11   -1    0    0    0    0  0.00000000000E+00  0.00000000000E+00  0.45593999997E+02  0.45594000000E+02  0.51100000000E-03 0. -1.
         11   -1    0    0    0    0 -0.00000000000E+00 -0.00000000000E+00 -0.45593999997E+02  0.45594000000E+02  0.51100000000E-03 0.  1.
         23    2    1    2    0    0  0.35527136788E-14  0.00000000000E+00 -0.53290705182E-14  0.91188000000E+02  0.91188000000E+02 0.  0.
    9900012    2    3    3    0    0  0.10926366815E+02  0.32522445991E+02 -0.13367288886E+02  0.54367090218E+02  0.40000013770E+02 0.  0.
        -12    1    3    3    0    0 -0.10926366815E+02 -0.32522445991E+02  0.13367288886E+02  0.36820909782E+02  0.00000000000E+00 0.  1.
         11    1    4    4    0    0  0.12578403917E+01  0.76538017160E+01  0.60889901766E+01  0.98609657129E+01  0.51100000000E-03 0. -1.
        -11    1    4    4    0    0 -0.97827538386E+01  0.40958228222E+01 -0.11481435565E+01  0.10667533508E+02  0.51100000000E-03 0.  1.
         12    1    4    4    0    0  0.19451280262E+02  0.20772821453E+02 -0.18308135506E+02  0.33838590997E+02  0.00000000000E+00 0. -1.
</event>
<event>
 8    1  0.1212194E-006  0.9118800E+02  0.7816164E-02  0.1184000E+00
        -11   -1    0    0    0    0  0.00000000000E+00  0.00000000000E+00  0.45593999997E+02  0.45594000000E+02  0.51100000000E-03 0.  1.
         11   -1    0    0    0    0 -0.00000000000E+00 -0.00000000000E+00 -0.45593999997E+02  0.45594000000E+02  0.51100000000E-03 0. -1.
         23    2    1    2    0    0  0.00000000000E+00  0.00000000000E+00  0.00000000000E+00  0.91188000000E+02  0.91188000000E+02 0.  0.
    9900012    2    3    3    0    0  0.25523245581E+02 -0.15457937660E+02  0.21573126728E+02  0.54367031809E+02  0.39999880614E+02 0.  0.
         12    1    3    3    0    0 -0.25523245581E+02  0.15457937660E+02 -0.21573126728E+02  0.36820968191E+02  0.00000000000E+00 0. -1.
         11    1    4    4    0    0 -0.26716961132E+01 -0.15445170387E+02 -0.67468244606E+00  0.15689054945E+02  0.51100000000E-03 0. -1.
        -11    1    4    4    0    0  0.20303604827E+02  0.53891106742E+01  0.19658765022E+02  0.28770573948E+02  0.51100000000E-03 0.  1.
        -12    1    4    4    0    0  0.78913368673E+01 -0.54018779475E+01  0.25890441522E+01  0.99074029158E+01  0.00000000000E+00 0.  1.
</event>
<event>
 8    1  0.1212194E-006  0.9118800E+02  0.7816164E-02  0.1184000E+00
        -11   -1    0    0    0    0  0.00000000000E+00  0.00000000000E+00  0.45593999997E+02  0.45594000000E+02  0.51100000000E-03 0. -1.
         11   -1    0    0    0    0 -0.00000000000E+00 -0.00000000000E+00 -0.45593999997E+02  0.45594000000E+02  0.51100000000E-03 0.  1.
         23    2    1    2    0    0  0.00000000000E+00  0.00000000000E+00  0.17763568394E-14  0.91188000000E+02  0.91188000000E+02 0.  0.
    9900012    2    3    3    0    0  0.24924056421E+01 -0.35402454406E+02  0.98100376638E+01  0.54367045330E+02  0.39999911439E+02 0.  0.
        -12    1    3    3    0    0 -0.24924056421E+01  0.35402454406E+02 -0.98100376638E+01  0.36820954670E+02  0.00000000000E+00 0.  1.
         11    1    4    4    0    0  0.30024594981E+01 -0.62651341711E+01  0.42789829119E+00  0.69605866440E+01  0.51100000000E-03 0. -1.
        -11    1    4    4    0    0  0.21355953602E+01 -0.20951227275E+02 -0.12084120475E+02  0.24280458393E+02  0.51100000000E-03 0.  1.
        -12    1    4    4    0    0 -0.26456492163E+01 -0.81860929592E+01  0.21466259847E+02  0.23126000293E+02  0.00000000000E+00 0.  1.
</event>
<event>
 8    1  0.1212194E-006  0.9118800E+02  0.7816164E-02  0.1184000E+00
        -11   -1    0    0    0    0  0.00000000000E+00  0.00000000000E+00  0.45593999997E+02  0.45594000000E+02  0.51100000000E-03 0.  1.
         11   -1    0    0    0    0 -0.00000000000E+00 -0.00000000000E+00 -0.45593999997E+02  0.45594000000E+02  0.51100000000E-03 0. -1.
         23    2    1    2    0    0  0.00000000000E+00 -0.13322676296E-14  0.00000000000E+00  0.91188000000E+02  0.91188000000E+02 0.  0.
    9900012    2    3    3    0    0  0.11435471046E+02 -0.38333461487E+01  0.34789585353E+02  0.54367084887E+02  0.40000001616E+02 0.  0.
         12    1    3    3    0    0 -0.11435471046E+02  0.38333461487E+01 -0.34789585353E+02  0.36820915113E+02  0.00000000000E+00 0. -1.
         11    1    4    4    0    0  0.67859030772E+01 -0.26188278654E+01 -0.37858040043E+01  0.81999422060E+01  0.51100000000E-03 0. -1.
        -11    1    4    4    0    0  0.70353722076E+00 -0.12620398312E+02  0.24921456332E+02  0.27943664830E+02  0.51100000000E-03 0.  1.
         12    1    4    4    0    0  0.39460307477E+01  0.11405880029E+02  0.13653933026E+02  0.18223477851E+02  0.00000000000E+00 0. -1.
</event>
<event>
 8    1  0.1212194E-006  0.9118800E+02  0.7816164E-02  0.1184000E+00
        -11   -1    0    0    0    0  0.00000000000E+00  0.00000000000E+00  0.45593999997E+02  0.45594000000E+02  0.51100000000E-03 0.  1.
         11   -1    0    0    0    0 -0.00000000000E+00 -0.00000000000E+00 -0.45593999997E+02  0.45594000000E+02  0.51100000000E-03 0. -1.
         23    2    1    2    0    0  0.00000000000E+00 -0.88817841970E-15  0.71054273576E-14  0.91188000000E+02  0.91188000000E+02 0.  0.
    9900012    2    3    3    0    0 -0.34393538558E+01  0.19847910581E+01  0.36606088860E+02  0.54367159540E+02  0.40000171804E+02 0.  0.
         12    1    3    3    0    0  0.34393538558E+01 -0.19847910581E+01 -0.36606088860E+02  0.36820840460E+02  0.00000000000E+00 0. -1.
         11    1    4    4    0    0  0.25653477097E+01 -0.55227842804E+01  0.86071749708E+01  0.10543510626E+02  0.51100000000E-03 0. -1.
        -11    1    4    4    0    0 -0.12647393874E+02 -0.57801401660E+01  0.25090201899E+02  0.28685969109E+02  0.51100000000E-03 0.  1.
        -12    1    4    4    0    0  0.66426923088E+01  0.13287715505E+02  0.29087119905E+01  0.15137679805E+02  0.00000000000E+00 0.  1.
</event>
<event>
 8    1  0.1212194E-006  0.9118800E+02  0.7816164E-02  0.1184000E+00
        -11   -1    0    0    0    0  0.00000000000E+00  0.00000000000E+00  0.45593999997E+02  0.45594000000E+02  0.51100000000E-03 0.  1.
         11   -1    0    0    0    0 -0.00000000000E+00 -0.00000000000E+00 -0.45593999997E+02  0.45594000000E+02  0.51100000000E-03 0. -1.
         23    2    1    2    0    0  0.17763568394E-14  0.35527136788E-14  0.35527136788E-14  0.91188000000E+02  0.91188000000E+02 0.  0.
    9900012    2    3    3    0    0 -0.14469917803E+02  0.17609697279E+02  0.28918852300E+02  0.54367082333E+02  0.39999995794E+02 0.  0.
         12    1    3    3    0    0  0.14469917803E+02 -0.17609697279E+02 -0.28918852300E+02  0.36820917667E+02  0.00000000000E+00 0. -1.
         11    1    4    4    0    0  0.39290905995E+01  0.18692407624E+02  0.19642882367E+02  0.27398662078E+02  0.51100000000E-03 0. -1.
        -11    1    4    4    0    0 -0.12344189947E+02 -0.82896862457E+01  0.93324673957E+01  0.17555422850E+02  0.51100000000E-03 0.  1.
        -12    1    4    4    0    0 -0.60548184558E+01  0.72069759009E+01 -0.56497462335E-01  0.94129974042E+01  0.00000000000E+00 0.  1.
</event>
<event>
 8    1  0.1212194E-006  0.9118800E+02  0.7816164E-02  0.1184000E+00
        -11   -1    0    0    0    0  0.00000000000E+00  0.00000000000E+00  0.45593999997E+02  0.45594000000E+02  0.51100000000E-03 0. -1.
         11   -1    0    0    0    0 -0.00000000000E+00 -0.00000000000E+00 -0.45593999997E+02  0.45594000000E+02  0.51100000000E-03 0.  1.
         23    2    1    2    0    0 -0.17763568394E-14  0.71054273576E-14  0.00000000000E+00  0.91188000000E+02  0.91188000000E+02 0.  0.
    9900012    2    3    3    0    0 -0.81934708412E+01  0.33993621429E+02  0.11536117421E+02  0.54367064821E+02  0.39999955872E+02 0.  0.
         12    1    3    3    0    0  0.81934708412E+01 -0.33993621429E+02 -0.11536117421E+02  0.36820935179E+02  0.00000000000E+00 0. -1.
         11    1    4    4    0    0 -0.36639998212E+00  0.67709092166E+00  0.13563014287E+02  0.13584846627E+02  0.51100000000E-03 0. -1.
        -11    1    4    4    0    0  0.51333009512E+01  0.14408409281E+02  0.60910566527E+01  0.16463717930E+02  0.51100000000E-03 0.  1.
        -12    1    4    4    0    0 -0.12960371810E+02  0.18908121227E+02 -0.81179535186E+01  0.24318500265E+02  0.00000000000E+00 0.  1.
</event>
<event>
 8    1  0.1212194E-006  0.9118800E+02  0.7816164E-02  0.1184000E+00
        -11   -1    0    0    0    0  0.00000000000E+00  0.00000000000E+00  0.45593999997E+02  0.45594000000E+02  0.51100000000E-03 0. -1.
         11   -1    0    0    0    0 -0.00000000000E+00 -0.00000000000E+00 -0.45593999997E+02  0.45594000000E+02  0.51100000000E-03 0.  1.
         23    2    1    2    0    0  0.00000000000E+00  0.00000000000E+00 -0.17763568394E-14  0.91188000000E+02  0.91188000000E+02 0.  0.
    9900012    2    3    3    0    0 -0.34042871937E+02  0.13161181908E+02  0.48628403820E+01  0.54367067699E+02  0.39999962434E+02 0.  0.
        -12    1    3    3    0    0  0.34042871937E+02 -0.13161181908E+02 -0.48628403820E+01  0.36820932301E+02  0.00000000000E+00 0.  1.
         11    1    4    4    0    0 -0.79247110948E+01  0.13864117549E+02  0.14367179916E+01  0.16033682054E+02  0.51100000000E-03 0. -1.
        -11    1    4    4    0    0 -0.19440709965E+02  0.36962090532E+01  0.14600805833E+02  0.24592411361E+02  0.51100000000E-03 0.  1.
        -12    1    4    4    0    0 -0.66774508768E+01 -0.43991446938E+01 -0.11174683443E+02  0.13740974285E+02  0.00000000000E+00 0.  1.
</event>
<event>
 8    1  0.1212194E-006  0.9118800E+02  0.7816164E-02  0.1184000E+00
        -11   -1    0    0    0    0  0.00000000000E+00  0.00000000000E+00  0.45593999997E+02  0.45594000000E+02  0.51100000000E-03 0.  1.
         11   -1    0    0    0    0 -0.00000000000E+00 -0.00000000000E+00 -0.45593999997E+02  0.45594000000E+02  0.51100000000E-03 0. -1.
         23    2    1    2    0    0  0.71054273576E-14 -0.35527136788E-14  0.00000000000E+00  0.91188000000E+02  0.91188000000E+02 0.  0.
    9900012    2    3    3    0    0 -0.35911132711E+02 -0.71740237355E+01 -0.38345743769E+01  0.54367081627E+02  0.39999994185E+02 0.  0.
        -12    1    3    3    0    0  0.35911132711E+02  0.71740237355E+01  0.38345743769E+01  0.36820918373E+02  0.00000000000E+00 0.  1.
         11    1    4    4    0    0 -0.15238083322E+02 -0.19967559971E+02  0.86229876894E+01  0.26556704455E+02  0.51100000000E-03 0. -1.
        -11    1    4    4    0    0 -0.17433811803E+02  0.10092174508E+02 -0.12273087326E+02  0.23588523758E+02  0.51100000000E-03 0.  1.
         12    1    4    4    0    0 -0.32392375868E+01  0.27013617274E+01 -0.18447473999E+00  0.42218534148E+01  0.00000000000E+00 0. -1.
</event>
<event>
 8    1  0.1212194E-006  0.9118800E+02  0.7816164E-02  0.1184000E+00
        -11   -1    0    0    0    0  0.00000000000E+00  0.00000000000E+00  0.45593999997E+02  0.45594000000E+02  0.51100000000E-03 0.  1.
         11   -1    0    0    0    0 -0.00000000000E+00 -0.00000000000E+00 -0.45593999997E+02  0.45594000000E+02  0.51100000000E-03 0. -1.
         23    2    1    2    0    0 -0.71054273576E-14  0.00000000000E+00  0.00000000000E+00  0.91188000000E+02  0.91188000000E+02 0.  0.
    9900012    2    3    3    0    0 -0.29834597260E+02  0.19902612948E+02 -0.83402640664E+01  0.54367120047E+02  0.40000081770E+02 0.  0.
        -12    1    3    3    0    0  0.29834597260E+02 -0.19902612948E+02  0.83402640664E+01  0.36820879953E+02  0.00000000000E+00 0.  1.
         11    1    4    4    0    0 -0.12594173938E+02  0.19981832928E+02 -0.40822592586E+01  0.23969808202E+02  0.51100000000E-03 0. -1.
        -11    1    4    4    0    0 -0.20915776754E+02 -0.64286699681E+01  0.65722273932E-01  0.21881540953E+02  0.51100000000E-03 0.  1.
         12    1    4    4    0    0  0.36753534320E+01  0.63494499883E+01 -0.43237270818E+01  0.85157708918E+01  0.00000000000E+00 0. -1.
</event>
<event>
 8    1  0.1212194E-006  0.9118800E+02  0.7816164E-02  0.1184000E+00
        -11   -1    0    0    0    0  0.00000000000E+00  0.00000000000E+00  0.45593999997E+02  0.45594000000E+02  0.51100000000E-03 0.  1.
         11   -1    0    0    0    0 -0.00000000000E+00 -0.00000000000E+00 -0.45593999997E+02  0.45594000000E+02  0.51100000000E-03 0. -1.
         23    2    1    2    0    0  0.00000000000E+00  0.00000000000E+00  0.88817841970E-15  0.91188000000E+02  0.91188000000E+02 0.  0.
    9900012    2    3    3    0    0  0.12170781610E+02 -0.34423334817E+02 -0.47630236013E+01  0.54367077975E+02  0.39999985860E+02 0.  0.
        -12    1    3    3    0    0 -0.12170781610E+02  0.34423334817E+02  0.47630236013E+01  0.36820922025E+02  0.00000000000E+00 0.  1.
         11    1    4    4    0    0  0.84360012629E+01 -0.23643609863E+02  0.16191199312E+02  0.29872082955E+02  0.51100000000E-03 0. -1.
        -11    1    4    4    0    0 -0.25255828605E+00 -0.25102548101E+01 -0.94263724999E+01  0.97581588257E+01  0.51100000000E-03 0.  1.
         12    1    4    4    0    0  0.39873386336E+01 -0.82694701443E+01 -0.11527850414E+02  0.14736836194E+02  0.00000000000E+00 0. -1.
</event>
<event>
 8    1  0.1212194E-006  0.9118800E+02  0.7816164E-02  0.1184000E+00
        -11   -1    0    0    0    0  0.00000000000E+00  0.00000000000E+00  0.45593999997E+02  0.45594000000E+02  0.51100000000E-03 0.  1.
         11   -1    0    0    0    0 -0.00000000000E+00 -0.00000000000E+00 -0.45593999997E+02  0.45594000000E+02  0.51100000000E-03 0. -1.
         23    2    1    2    0    0  0.00000000000E+00 -0.71054273576E-14  0.00000000000E+00  0.91188000000E+02  0.91188000000E+02 0.  0.
    9900012    2    3    3    0    0 -0.27582642934E+01 -0.36305640912E+02  0.54841032751E+01  0.54367041665E+02  0.39999903084E+02 0.  0.
        -12    1    3    3    0    0  0.27582642934E+01  0.36305640912E+02 -0.54841032751E+01  0.36820958335E+02  0.00000000000E+00 0.  1.
         11    1    4    4    0    0 -0.25223744744E+01  0.36535883411E+00 -0.63032232690E+01  0.67990060970E+01  0.51100000000E-03 0. -1.
        -11    1    4    4    0    0 -0.12281174453E+02 -0.78931358658E+01  0.62630555985E+01  0.15885676109E+02  0.51100000000E-03 0.  1.
        -12    1    4    4    0    0  0.12045284634E+02 -0.28777863880E+02  0.55242709457E+01  0.31682359459E+02  0.00000000000E+00 0.  1.
</event>
<event>
 8    1  0.1212194E-006  0.9118800E+02  0.7816164E-02  0.1184000E+00
        -11   -1    0    0    0    0  0.00000000000E+00  0.00000000000E+00  0.45593999997E+02  0.45594000000E+02  0.51100000000E-03 0.  1.
         11   -1    0    0    0    0 -0.00000000000E+00 -0.00000000000E+00 -0.45593999997E+02  0.45594000000E+02  0.51100000000E-03 0. -1.
         23    2    1    2    0    0  0.35527136788E-14 -0.35527136788E-14  0.00000000000E+00  0.91188000000E+02  0.91188000000E+02 0.  0.
    9900012    2    3    3    0    0  0.22782314992E+02  0.21186052357E+02 -0.19695053033E+02  0.54367111840E+02  0.40000063062E+02 0.  0.
        -12    1    3    3    0    0 -0.22782314992E+02 -0.21186052357E+02  0.19695053033E+02  0.36820888160E+02  0.00000000000E+00 0.  1.
         11    1    4    4    0    0  0.64428680844E+01 -0.49687452045E+01  0.35893161705E+00  0.81441887396E+01  0.51100000000E-03 0. -1.
        -11    1    4    4    0    0  0.21405978874E+02  0.21332357329E+02 -0.64136083952E+01  0.30893685013E+02  0.51100000000E-03 0.  1.
         12    1    4    4    0    0 -0.50665319662E+01  0.48224402325E+01 -0.13640376255E+02  0.15329238087E+02  0.00000000000E+00 0. -1.
</event>
<event>
 8    1  0.1212194E-006  0.9118800E+02  0.7816164E-02  0.1184000E+00
        -11   -1    0    0    0    0  0.00000000000E+00  0.00000000000E+00  0.45593999997E+02  0.45594000000E+02  0.51100000000E-03 0. -1.
         11   -1    0    0    0    0 -0.00000000000E+00 -0.00000000000E+00 -0.45593999997E+02  0.45594000000E+02  0.51100000000E-03 0.  1.
         23    2    1    2    0    0 -0.35527136788E-14  0.17763568394E-14 -0.35527136788E-14  0.91188000000E+02  0.91188000000E+02 0.  0.
    9900012    2    3    3    0    0 -0.16665700140E+02  0.14216928095E+02 -0.29595843023E+02  0.54367074837E+02  0.39999978706E+02 0.  0.
         12    1    3    3    0    0  0.16665700140E+02 -0.14216928095E+02  0.29595843023E+02  0.36820925163E+02  0.00000000000E+00 0. -1.
         11    1    4    4    0    0  0.84243598474E+01  0.15521011730E+01 -0.28760546495E+00  0.85709727601E+01  0.51100000000E-03 0. -1.
        -11    1    4    4    0    0 -0.45282181127E+01 -0.52332145610E+01 -0.19845198995E+01  0.71992786729E+01  0.51100000000E-03 0.  1.
        -12    1    4    4    0    0 -0.20561841875E+02  0.17898041483E+02 -0.27323717659E+02  0.38596823404E+02  0.00000000000E+00 0.  1.
</event>
<event>
 8    1  0.1212194E-006  0.9118800E+02  0.7816164E-02  0.1184000E+00
        -11   -1    0    0    0    0  0.00000000000E+00  0.00000000000E+00  0.45593999997E+02  0.45594000000E+02  0.51100000000E-03 0. -1.
         11   -1    0    0    0    0 -0.00000000000E+00 -0.00000000000E+00 -0.45593999997E+02  0.45594000000E+02  0.51100000000E-03 0.  1.
         23    2    1    2    0    0  0.00000000000E+00 -0.55511151231E-15  0.00000000000E+00  0.91188000000E+02  0.91188000000E+02 0.  0.
    9900012    2    3    3    0    0 -0.67711970993E+01  0.40605054908E+00 -0.36190688740E+02  0.54367082865E+02  0.39999997007E+02 0.  0.
         12    1    3    3    0    0  0.67711970993E+01 -0.40605054908E+00  0.36190688740E+02  0.36820917135E+02  0.00000000000E+00 0. -1.
         11    1    4    4    0    0 -0.11334483419E+02  0.85533115388E+01  0.20226540654E+01  0.14342969789E+02  0.51100000000E-03 0. -1.
        -11    1    4    4    0    0  0.10514805559E+01 -0.27884762120E+01 -0.26551121186E+02  0.26717845112E+02  0.51100000000E-03 0.  1.
         12    1    4    4    0    0  0.35118057635E+01 -0.53587847777E+01 -0.11662221619E+02  0.13306267963E+02  0.00000000000E+00 0. -1.
</event>
<event>
 8    1  0.1212194E-006  0.9118800E+02  0.7816164E-02  0.1184000E+00
        -11   -1    0    0    0    0  0.00000000000E+00  0.00000000000E+00  0.45593999997E+02  0.45594000000E+02  0.51100000000E-03 0. -1.
         11   -1    0    0    0    0 -0.00000000000E+00 -0.00000000000E+00 -0.45593999997E+02  0.45594000000E+02  0.51100000000E-03 0.  1.
         23    2    1    2    0    0  0.00000000000E+00  0.00000000000E+00  0.00000000000E+00  0.91188000000E+02  0.91188000000E+02 0.  0.
    9900012    2    3    3    0    0  0.20248634308E+02 -0.26766082114E+02 -0.15144292282E+02  0.54367082959E+02  0.39999997221E+02 0.  0.
        -12    1    3    3    0    0 -0.20248634308E+02  0.26766082114E+02  0.15144292282E+02  0.36820917041E+02  0.00000000000E+00 0.  1.
         11    1    4    4    0    0 -0.11840801355E+01 -0.70431325332E+01  0.40518847847E+01  0.82113051470E+01  0.51100000000E-03 0. -1.
        -11    1    4    4    0    0  0.25556507722E+01  0.24884823098E+00  0.74483566394E+01  0.78785336961E+01  0.51100000000E-03 0.  1.
        -12    1    4    4    0    0  0.18877063671E+02 -0.19971797811E+02 -0.26644533706E+02  0.38277244116E+02  0.00000000000E+00 0.  1.
</event>
<event>
 8    1  0.1212194E-006  0.9118800E+02  0.7816164E-02  0.1184000E+00
        -11   -1    0    0    0    0  0.00000000000E+00  0.00000000000E+00  0.45593999997E+02  0.45594000000E+02  0.51100000000E-03 0.  1.
         11   -1    0    0    0    0 -0.00000000000E+00 -0.00000000000E+00 -0.45593999997E+02  0.45594000000E+02  0.51100000000E-03 0. -1.
         23    2    1    2    0    0  0.00000000000E+00  0.00000000000E+00  0.00000000000E+00  0.91188000000E+02  0.91188000000E+02 0.  0.
    9900012    2    3    3    0    0 -0.22697813248E+02 -0.13292734000E+02  0.25766120760E+02  0.54367075481E+02  0.39999980173E+02 0.  0.
         12    1    3    3    0    0  0.22697813248E+02  0.13292734000E+02 -0.25766120760E+02  0.36820924519E+02  0.00000000000E+00 0. -1.
         11    1    4    4    0    0 -0.10700009925E+02 -0.10181445176E+02 -0.66326527638E+00  0.14784855744E+02  0.51100000000E-03 0. -1.
        -11    1    4    4    0    0 -0.62972962938E+01  0.15757339844E+01  0.30480077620E+02  0.31163664903E+02  0.51100000000E-03 0.  1.
        -12    1    4    4    0    0 -0.57005070288E+01 -0.46870228083E+01 -0.40506915834E+01  0.84185548341E+01  0.00000000000E+00 0.  1.
</event>
<event>
 8    1  0.1212194E-006  0.9118800E+02  0.7816164E-02  0.1184000E+00
        -11   -1    0    0    0    0  0.00000000000E+00  0.00000000000E+00  0.45593999997E+02  0.45594000000E+02  0.51100000000E-03 0. -1.
         11   -1    0    0    0    0 -0.00000000000E+00 -0.00000000000E+00 -0.45593999997E+02  0.45594000000E+02  0.51100000000E-03 0.  1.
         23    2    1    2    0    0  0.00000000000E+00  0.72164496601E-15  0.35527136788E-14  0.91188000000E+02  0.91188000000E+02 0.  0.
    9900012    2    3    3    0    0 -0.20953091587E+02 -0.45818943323E+00  0.30274358493E+02  0.54367098779E+02  0.40000033286E+02 0.  0.
        -12    1    3    3    0    0  0.20953091587E+02  0.45818943323E+00 -0.30274358493E+02  0.36820901221E+02  0.00000000000E+00 0.  1.
         11    1    4    4    0    0 -0.48752830460E+01  0.67837359989E+01  0.29086030424E+01  0.88457577856E+01  0.51100000000E-03 0. -1.
        -11    1    4    4    0    0 -0.18487586708E+02 -0.75940715491E+01  0.20529769763E+01  0.20091677374E+02  0.51100000000E-03 0.  1.
        -12    1    4    4    0    0  0.24097781675E+01  0.35214611701E+00  0.25312778474E+02  0.25429663619E+02  0.00000000000E+00 0.  1.
</event>
<event>
 8    1  0.1212194E-006  0.9118800E+02  0.7816164E-02  0.1184000E+00
        -11   -1    0    0    0    0  0.00000000000E+00  0.00000000000E+00  0.45593999997E+02  0.45594000000E+02  0.51100000000E-03 0. -1.
         11   -1    0    0    0    0 -0.00000000000E+00 -0.00000000000E+00 -0.45593999997E+02  0.45594000000E+02  0.51100000000E-03 0.  1.
         23    2    1    2    0    0 -0.13322676296E-14  0.00000000000E+00  0.00000000000E+00  0.91188000000E+02  0.91188000000E+02 0.  0.
    9900012    2    3    3    0    0 -0.13177754520E+01 -0.17483425445E+02  0.32378579518E+02  0.54367094131E+02  0.40000022690E+02 0.  0.
        -12    1    3    3    0    0  0.13177754520E+01  0.17483425445E+02 -0.32378579518E+02  0.36820905869E+02  0.00000000000E+00 0.  1.
         11    1    4    4    0    0  0.91684537626E+01 -0.95732718089E+01  0.54039721298E+01  0.14314712451E+02  0.51100000000E-03 0. -1.
        -11    1    4    4    0    0 -0.13058239699E+02  0.67550076166E+01  0.14057558435E+02  0.20341157817E+02  0.51100000000E-03 0.  1.
        -12    1    4    4    0    0  0.25720104844E+01 -0.14665161252E+02  0.12917048954E+02  0.19711223862E+02  0.00000000000E+00 0.  1.
</event>
<event>
 8    1  0.1212194E-006  0.9118800E+02  0.7816164E-02  0.1184000E+00
        -11   -1    0    0    0    0  0.00000000000E+00  0.00000000000E+00  0.45593999997E+02  0.45594000000E+02  0.51100000000E-03 0.  1.
         11   -1    0    0    0    0 -0.00000000000E+00 -0.00000000000E+00 -0.45593999997E+02  0.45594000000E+02  0.51100000000E-03 0. -1.
         23    2    1    2    0    0  0.00000000000E+00 -0.35527136788E-14  0.00000000000E+00  0.91188000000E+02  0.91188000000E+02 0.  0.
    9900012    2    3    3    0    0  0.17632653816E+02  0.22845788767E+02  0.22867852219E+02  0.54367092758E+02  0.40000019561E+02 0.  0.
         12    1    3    3    0    0 -0.17632653816E+02 -0.22845788767E+02 -0.22867852219E+02  0.36820907242E+02  0.00000000000E+00 0. -1.
         11    1    4    4    0    0  0.43898163038E+01 -0.45042175415E+01  0.98747574102E+01  0.11707659758E+02  0.51100000000E-03 0. -1.
        -11    1    4    4    0    0  0.37348586086E+01  0.10707502002E+02  0.19381899260E+02  0.22455684963E+02  0.51100000000E-03 0.  1.
         12    1    4    4    0    0  0.95079789034E+01  0.16642504307E+02 -0.63888044511E+01  0.20203748037E+02  0.00000000000E+00 0. -1.
</event>
<event>
 8    1  0.1212194E-006  0.9118800E+02  0.7816164E-02  0.1184000E+00
        -11   -1    0    0    0    0  0.00000000000E+00  0.00000000000E+00  0.45593999997E+02  0.45594000000E+02  0.51100000000E-03 0.  1.
         11   -1    0    0    0    0 -0.00000000000E+00 -0.00000000000E+00 -0.45593999997E+02  0.45594000000E+02  0.51100000000E-03 0. -1.
         23    2    1    2    0    0  0.00000000000E+00 -0.13322676296E-14  0.00000000000E+00  0.91188000000E+02  0.91188000000E+02 0.  0.
    9900012    2    3    3    0    0  0.36130084724E+02 -0.21330495809E+01 -0.67712037828E+01  0.54367053199E+02  0.39999929377E+02 0.  0.
        -12    1    3    3    0    0 -0.36130084724E+02  0.21330495809E+01  0.67712037828E+01  0.36820946801E+02  0.00000000000E+00 0.  1.
         11    1    4    4    0    0  0.21599152862E+02  0.10126877356E+02 -0.68184171588E+01  0.24810640099E+02  0.51100000000E-03 0. -1.
        -11    1    4    4    0    0  0.11929873674E+02 -0.10711026062E+02  0.10172958244E+02  0.18987813062E+02  0.51100000000E-03 0.  1.
         12    1    4    4    0    0  0.26010581881E+01 -0.15489008745E+01 -0.10125744868E+02  0.10568600038E+02  0.00000000000E+00 0. -1.
</event>
<event>
 8    1  0.1212194E-006  0.9118800E+02  0.7816164E-02  0.1184000E+00
        -11   -1    0    0    0    0  0.00000000000E+00  0.00000000000E+00  0.45593999997E+02  0.45594000000E+02  0.51100000000E-03 0.  1.
         11   -1    0    0    0    0 -0.00000000000E+00 -0.00000000000E+00 -0.45593999997E+02  0.45594000000E+02  0.51100000000E-03 0. -1.
         23    2    1    2    0    0  0.00000000000E+00  0.00000000000E+00  0.00000000000E+00  0.91188000000E+02  0.91188000000E+02 0.  0.
    9900012    2    3    3    0    0 -0.12394527696E+02 -0.34361834725E+02 -0.46281929099E+01  0.54367079695E+02  0.39999989782E+02 0.  0.
        -12    1    3    3    0    0  0.12394527696E+02  0.34361834725E+02  0.46281929099E+01  0.36820920305E+02  0.00000000000E+00 0.  1.
         11    1    4    4    0    0 -0.31770256888E+01 -0.12576344340E+02  0.86712723682E+01  0.15602848904E+02  0.51100000000E-03 0. -1.
        -11    1    4    4    0    0 -0.18897455303E+02 -0.14511375169E+02 -0.58022028661E+01  0.24522630050E+02  0.51100000000E-03 0.  1.
         12    1    4    4    0    0  0.96799532961E+01 -0.72741152167E+01 -0.74972624121E+01  0.14241600741E+02  0.00000000000E+00 0. -1.
</event>
<event>
 8    1  0.1212194E-006  0.9118800E+02  0.7816164E-02  0.1184000E+00
        -11   -1    0    0    0    0  0.00000000000E+00  0.00000000000E+00  0.45593999997E+02  0.45594000000E+02  0.51100000000E-03 0.  1.
         11   -1    0    0    0    0 -0.00000000000E+00 -0.00000000000E+00 -0.45593999997E+02  0.45594000000E+02  0.51100000000E-03 0. -1.
         23    2    1    2    0    0  0.35527136788E-14  0.00000000000E+00 -0.33306690739E-15  0.91188000000E+02  0.91188000000E+02 0.  0.
    9900012    2    3    3    0    0 -0.25949211422E+02  0.26112198702E+02  0.75557380646E+00  0.54367090366E+02  0.40000014108E+02 0.  0.
        -12    1    3    3    0    0  0.25949211422E+02 -0.26112198702E+02 -0.75557380646E+00  0.36820909634E+02  0.00000000000E+00 0.  1.
         11    1    4    4    0    0 -0.48658774537E+01  0.11994110424E+02  0.79328207371E+01  0.15181076818E+02  0.51100000000E-03 0. -1.
        -11    1    4    4    0    0  0.18689327591E+01  0.15066737390E+02 -0.22027807018E+00  0.15183807425E+02  0.51100000000E-03 0.  1.
         12    1    4    4    0    0 -0.22952266727E+02 -0.94864911111E+00 -0.69569688605E+01  0.24002206123E+02  0.00000000000E+00 0. -1.
</event>
<event>
 8    1  0.1212194E-006  0.9118800E+02  0.7816164E-02  0.1184000E+00
        -11   -1    0    0    0    0  0.00000000000E+00  0.00000000000E+00  0.45593999997E+02  0.45594000000E+02  0.51100000000E-03 0. -1.
         11   -1    0    0    0    0 -0.00000000000E+00 -0.00000000000E+00 -0.45593999997E+02  0.45594000000E+02  0.51100000000E-03 0.  1.
         23    2    1    2    0    0  0.88817841970E-15  0.35527136788E-14  0.00000000000E+00  0.91188000000E+02  0.91188000000E+02 0.  0.
    9900012    2    3    3    0    0 -0.72331108074E+01  0.27109625351E+02 -0.23843907577E+02  0.54367060208E+02  0.39999945356E+02 0.  0.
         12    1    3    3    0    0  0.72331108074E+01 -0.27109625351E+02  0.23843907577E+02  0.36820939792E+02  0.00000000000E+00 0. -1.
         11    1    4    4    0    0 -0.37434839843E+01 -0.12460816248E+01 -0.20084225493E+01  0.44272060212E+01  0.51100000000E-03 0. -1.
        -11    1    4    4    0    0  0.13807597603E+02  0.12373811801E+02 -0.11191083665E+01  0.18574535629E+02  0.51100000000E-03 0.  1.
        -12    1    4    4    0    0 -0.17297224426E+02  0.15981895175E+02 -0.20716376661E+02  0.31365318557E+02  0.00000000000E+00 0.  1.
</event>
<event>
 8    1  0.1212194E-006  0.9118800E+02  0.7816164E-02  0.1184000E+00
        -11   -1    0    0    0    0  0.00000000000E+00  0.00000000000E+00  0.45593999997E+02  0.45594000000E+02  0.51100000000E-03 0.  1.
         11   -1    0    0    0    0 -0.00000000000E+00 -0.00000000000E+00 -0.45593999997E+02  0.45594000000E+02  0.51100000000E-03 0. -1.
         23    2    1    2    0    0  0.00000000000E+00  0.00000000000E+00  0.00000000000E+00  0.91188000000E+02  0.91188000000E+02 0.  0.
    9900012    2    3    3    0    0 -0.20763852253E+02 -0.19823297510E+02  0.23058206588E+02  0.54367060637E+02  0.39999946333E+02 0.  0.
         12    1    3    3    0    0  0.20763852253E+02  0.19823297510E+02 -0.23058206588E+02  0.36820939363E+02  0.00000000000E+00 0. -1.
         11    1    4    4    0    0 -0.23018061347E+00 -0.69019060159E+00  0.17681696208E+02  0.17696658646E+02  0.51100000000E-03 0.  1.
        -11    1    4    4    0    0 -0.93235792903E+01 -0.12103101120E+02 -0.85108112826E+01  0.17488513272E+02  0.51100000000E-03 0. -1.
        -12    1    4    4    0    0 -0.11210092350E+02 -0.70300057884E+01  0.13887321662E+02  0.19181888719E+02  0.00000000000E+00 0.  1.
</event>
<event>
 8    1  0.1212194E-006  0.9118800E+02  0.7816164E-02  0.1184000E+00
        -11   -1    0    0    0    0  0.00000000000E+00  0.00000000000E+00  0.45593999997E+02  0.45594000000E+02  0.51100000000E-03 0. -1.
         11   -1    0    0    0    0 -0.00000000000E+00 -0.00000000000E+00 -0.45593999997E+02  0.45594000000E+02  0.51100000000E-03 0.  1.
         23    2    1    2    0    0  0.71054273576E-14  0.44408920985E-15 -0.22204460493E-15  0.91188000000E+02  0.91188000000E+02 0.  0.
    9900012    2    3    3    0    0 -0.36581801723E+02  0.39772078452E+01  0.13156597080E+01  0.54367117881E+02  0.40000076834E+02 0.  0.
        -12    1    3    3    0    0  0.36581801723E+02 -0.39772078452E+01 -0.13156597080E+01  0.36820882119E+02  0.00000000000E+00 0.  1.
         11    1    4    4    0    0 -0.13232425468E+02 -0.44640305189E+01  0.22027875084E+01  0.14137783606E+02  0.51100000000E-03 0. -1.
        -11    1    4    4    0    0  0.30137526020E+01  0.33861377292E+01  0.10218870032E+02  0.11179174320E+02  0.51100000000E-03 0.  1.
         12    1    4    4    0    0 -0.26363128857E+02  0.50551006349E+01 -0.11105997833E+02  0.29050159955E+02  0.00000000000E+00 0. -1.
</event>
<event>
 8    1  0.1212194E-006  0.9118800E+02  0.7816164E-02  0.1184000E+00
        -11   -1    0    0    0    0  0.00000000000E+00  0.00000000000E+00  0.45593999997E+02  0.45594000000E+02  0.51100000000E-03 0.  1.
         11   -1    0    0    0    0 -0.00000000000E+00 -0.00000000000E+00 -0.45593999997E+02  0.45594000000E+02  0.51100000000E-03 0. -1.
         23    2    1    2    0    0  0.35527136788E-14  0.17763568394E-14  0.35527136788E-14  0.91188000000E+02  0.91188000000E+02 0.  0.
    9900012    2    3    3    0    0  0.26304504242E+02  0.65470095792E+01  0.24919658240E+02  0.54367086858E+02  0.40000006110E+02 0.  0.
         12    1    3    3    0    0 -0.26304504242E+02 -0.65470095792E+01 -0.24919658240E+02  0.36820913142E+02  0.00000000000E+00 0. -1.
         11    1    4    4    0    0  0.92491353333E+01 -0.81841967721E+01  0.74103975281E+01  0.14402832117E+02  0.51100000000E-03 0. -1.
        -11    1    4    4    0    0  0.22819811060E+02  0.10810808787E+02  0.51446800203E+01  0.25769848587E+02  0.51100000000E-03 0.  1.
         12    1    4    4    0    0 -0.57644421515E+01  0.39203975646E+01  0.12364580691E+02  0.14194406154E+02  0.00000000000E+00 0. -1.
</event>
<event>
 8    1  0.1212194E-006  0.9118800E+02  0.7816164E-02  0.1184000E+00
        -11   -1    0    0    0    0  0.00000000000E+00  0.00000000000E+00  0.45593999997E+02  0.45594000000E+02  0.51100000000E-03 0.  1.
         11   -1    0    0    0    0 -0.00000000000E+00 -0.00000000000E+00 -0.45593999997E+02  0.45594000000E+02  0.51100000000E-03 0. -1.
         23    2    1    2    0    0  0.17763568394E-14  0.00000000000E+00  0.00000000000E+00  0.91188000000E+02  0.91188000000E+02 0.  0.
    9900012    2    3    3    0    0 -0.15904400934E+02 -0.75618129126E+01 -0.32336496025E+02  0.54367082592E+02  0.39999996384E+02 0.  0.
        -12    1    3    3    0    0  0.15904400934E+02  0.75618129126E+01  0.32336496025E+02  0.36820917408E+02  0.00000000000E+00 0.  1.
         11    1    4    4    0    0  0.17225321302E+01 -0.97507944520E+01 -0.34558365937E+01  0.10487512394E+02  0.51100000000E-03 0. -1.
        -11    1    4    4    0    0 -0.80643807832E+01  0.62449441935E+01  0.27691094523E+01  0.10568894588E+02  0.51100000000E-03 0.  1.
         12    1    4    4    0    0 -0.95625522808E+01 -0.40559626540E+01 -0.31649768884E+02  0.33310675610E+02  0.00000000000E+00 0. -1.
</event>
<event>
 8    1  0.1212194E-006  0.9118800E+02  0.7816164E-02  0.1184000E+00
        -11   -1    0    0    0    0  0.00000000000E+00  0.00000000000E+00  0.45593999997E+02  0.45594000000E+02  0.51100000000E-03 0.  1.
         11   -1    0    0    0    0 -0.00000000000E+00 -0.00000000000E+00 -0.45593999997E+02  0.45594000000E+02  0.51100000000E-03 0. -1.
         23    2    1    2    0    0  0.00000000000E+00  0.44408920985E-15  0.00000000000E+00  0.91188000000E+02  0.91188000000E+02 0.  0.
    9900012    2    3    3    0    0 -0.18725268212E+02  0.33350571291E+01 -0.31528109094E+02  0.54367082864E+02  0.39999997006E+02 0.  0.
        -12    1    3    3    0    0  0.18725268212E+02 -0.33350571291E+01  0.31528109094E+02  0.36820917136E+02  0.00000000000E+00 0.  1.
         11    1    4    4    0    0 -0.41915861918E+01  0.74977504190E+01 -0.91224010567E+01  0.12530118014E+02  0.51100000000E-03 0. -1.
        -11    1    4    4    0    0  0.39214091919E+00  0.12539106732E+02 -0.11077443316E+02  0.16735970926E+02  0.51100000000E-03 0.  1.
        -12    1    4    4    0    0 -0.14925822940E+02 -0.16701800022E+02 -0.11328264721E+02  0.25100993924E+02  0.00000000000E+00 0.  1.
</event>
<event>
 8    1  0.1212194E-006  0.9118800E+02  0.7816164E-02  0.1184000E+00
        -11   -1    0    0    0    0  0.00000000000E+00  0.00000000000E+00  0.45593999997E+02  0.45594000000E+02  0.51100000000E-03 0.  1.
         11   -1    0    0    0    0 -0.00000000000E+00 -0.00000000000E+00 -0.45593999997E+02  0.45594000000E+02  0.51100000000E-03 0. -1.
         23    2    1    2    0    0  0.00000000000E+00  0.00000000000E+00  0.35527136788E-14  0.91188000000E+02  0.91188000000E+02 0.  0.
    9900012    2    3    3    0    0 -0.32503166194E+02 -0.44315045742E+01 -0.16723793557E+02  0.54367091315E+02  0.40000016271E+02 0.  0.
        -12    1    3    3    0    0  0.32503166194E+02  0.44315045742E+01  0.16723793557E+02  0.36820908685E+02  0.00000000000E+00 0.  1.
         11    1    4    4    0    0 -0.16658292693E+02  0.13652296899E+02 -0.59346699276E+01  0.22340640847E+02  0.51100000000E-03 0. -1.
        -11    1    4    4    0    0 -0.82136213934E+01 -0.26121455174E+01  0.38131442990E+01  0.94248050539E+01  0.51100000000E-03 0.  1.
        -12    1    4    4    0    0 -0.76312521081E+01 -0.15471655956E+02 -0.14602267929E+02  0.22601645414E+02  0.00000000000E+00 0.  1.
</event>
<event>
 8    1  0.1212194E-006  0.9118800E+02  0.7816164E-02  0.1184000E+00
        -11   -1    0    0    0    0  0.00000000000E+00  0.00000000000E+00  0.45593999997E+02  0.45594000000E+02  0.51100000000E-03 0. -1.
         11   -1    0    0    0    0 -0.00000000000E+00 -0.00000000000E+00 -0.45593999997E+02  0.45594000000E+02  0.51100000000E-03 0.  1.
         23    2    1    2    0    0 -0.88817841970E-15  0.00000000000E+00 -0.35527136788E-14  0.91188000000E+02  0.91188000000E+02 0.  0.
    9900012    2    3    3    0    0 -0.41497040368E+01 -0.27272740743E+02  0.24387682809E+02  0.54367061609E+02  0.39999948549E+02 0.  0.
        -12    1    3    3    0    0  0.41497040368E+01  0.27272740743E+02 -0.24387682809E+02  0.36820938391E+02  0.00000000000E+00 0.  1.
         11    1    4    4    0    0  0.76031650011E+01 -0.26765603171E+01  0.65203127964E+01  0.10367573120E+02  0.51100000000E-03 0. -1.
        -11    1    4    4    0    0 -0.16213979601E+02 -0.20182145573E+02  0.23944152863E+02  0.35263785829E+02  0.51100000000E-03 0.  1.
        -12    1    4    4    0    0  0.44611105633E+01 -0.44140348532E+01 -0.60767828506E+01  0.87357026596E+01  0.00000000000E+00 0.  1.
</event>
<event>
 8    1  0.1212194E-006  0.9118800E+02  0.7816164E-02  0.1184000E+00
        -11   -1    0    0    0    0  0.00000000000E+00  0.00000000000E+00  0.45593999997E+02  0.45594000000E+02  0.51100000000E-03 0.  1.
         11   -1    0    0    0    0 -0.00000000000E+00 -0.00000000000E+00 -0.45593999997E+02  0.45594000000E+02  0.51100000000E-03 0. -1.
         23    2    1    2    0    0  0.00000000000E+00  0.00000000000E+00  0.00000000000E+00  0.91188000000E+02  0.91188000000E+02 0.  0.
    9900012    2    3    3    0    0 -0.31479556576E+02 -0.86128259408E+01 -0.17048046909E+02  0.54367093489E+02  0.40000021227E+02 0.  0.
        -12    1    3    3    0    0  0.31479556576E+02  0.86128259408E+01  0.17048046909E+02  0.36820906511E+02  0.00000000000E+00 0.  1.
         11    1    4    4    0    0 -0.67666033321E+01 -0.65528026951E+01  0.80357417642E+01  0.12381409038E+02  0.51100000000E-03 0.  1.
        -11    1    4    4    0    0  0.32646422415E+01  0.19960222747E+01 -0.82221342310E+01  0.90689296755E+01  0.51100000000E-03 0. -1.
         12    1    4    4    0    0 -0.27977595485E+02 -0.40560455205E+01 -0.16861654442E+02  0.32916754775E+02  0.00000000000E+00 0. -1.
</event>
<event>
 8    1  0.1212194E-006  0.9118800E+02  0.7816164E-02  0.1184000E+00
        -11   -1    0    0    0    0  0.00000000000E+00  0.00000000000E+00  0.45593999997E+02  0.45594000000E+02  0.51100000000E-03 0. -1.
         11   -1    0    0    0    0 -0.00000000000E+00 -0.00000000000E+00 -0.45593999997E+02  0.45594000000E+02  0.51100000000E-03 0.  1.
         23    2    1    2    0    0  0.17763568394E-14  0.00000000000E+00  0.44408920985E-14  0.91188000000E+02  0.91188000000E+02 0.  0.
    9900012    2    3    3    0    0  0.10799535288E+02 -0.34674117546E+02  0.60708535467E+01  0.54367086747E+02  0.40000005857E+02 0.  0.
        -12    1    3    3    0    0 -0.10799535288E+02  0.34674117546E+02 -0.60708535467E+01  0.36820913253E+02  0.00000000000E+00 0.  1.
         11    1    4    4    0    0  0.21056831261E+01 -0.48616604054E+01 -0.13343583731E+02  0.14356910196E+02  0.51100000000E-03 0. -1.
        -11    1    4    4    0    0  0.52692491103E+01 -0.38078639113E+01  0.10419977416E+02  0.12281723957E+02  0.51100000000E-03 0.  1.
         12    1    4    4    0    0  0.34246030511E+01 -0.26004593229E+02  0.89944598614E+01  0.27728452594E+02  0.00000000000E+00 0. -1.
</event>
<event>
 8    1  0.1212194E-006  0.9118800E+02  0.7816164E-02  0.1184000E+00
        -11   -1    0    0    0    0  0.00000000000E+00  0.00000000000E+00  0.45593999997E+02  0.45594000000E+02  0.51100000000E-03 0.  1.
         11   -1    0    0    0    0 -0.00000000000E+00 -0.00000000000E+00 -0.45593999997E+02  0.45594000000E+02  0.51100000000E-03 0. -1.
         23    2    1    2    0    0  0.00000000000E+00 -0.11102230246E-14  0.35527136788E-14  0.91188000000E+02  0.91188000000E+02 0.  0.
    9900012    2    3    3    0    0 -0.28434090984E+02  0.95331479349E+00 -0.23374614627E+02  0.54367096316E+02  0.40000027672E+02 0.  0.
        -12    1    3    3    0    0  0.28434090984E+02 -0.95331479349E+00  0.23374614627E+02  0.36820903684E+02  0.00000000000E+00 0.  1.
         11    1    4    4    0    0 -0.19918525013E+02 -0.75531222644E+01 -0.82311990424E+01  0.22837467736E+02  0.51100000000E-03 0. -1.
        -11    1    4    4    0    0  0.73268318940E+01  0.91548370899E+01 -0.53082989528E+01  0.12871345920E+02  0.51100000000E-03 0.  1.
        -12    1    4    4    0    0 -0.15842397864E+02 -0.64840003199E+00 -0.98351166314E+01  0.18658282661E+02  0.00000000000E+00 0.  1.
</event>
<event>
 8    1  0.1212194E-006  0.9118800E+02  0.7816164E-02  0.1184000E+00
        -11   -1    0    0    0    0  0.00000000000E+00  0.00000000000E+00  0.45593999997E+02  0.45594000000E+02  0.51100000000E-03 0.  1.
         11   -1    0    0    0    0 -0.00000000000E+00 -0.00000000000E+00 -0.45593999997E+02  0.45594000000E+02  0.51100000000E-03 0. -1.
         23    2    1    2    0    0  0.00000000000E+00 -0.13322676296E-14  0.00000000000E+00  0.91188000000E+02  0.91188000000E+02 0.  0.
    9900012    2    3    3    0    0  0.16470291222E+02  0.16081370730E+01 -0.32892593236E+02  0.54367091707E+02  0.40000017164E+02 0.  0.
        -12    1    3    3    0    0 -0.16470291222E+02 -0.16081370730E+01  0.32892593236E+02  0.36820908293E+02  0.00000000000E+00 0.  1.
         11    1    4    4    0    0  0.37434751349E+01 -0.36380809344E+01 -0.13000033238E+00  0.52216988919E+01  0.51100000000E-03 0. -1.
        -11    1    4    4    0    0  0.94279215597E+01 -0.11578709086E+02 -0.36692241396E+01  0.15375806160E+02  0.51100000000E-03 0.  1.
        -12    1    4    4    0    0  0.32988945274E+01  0.16824927093E+02 -0.29093368764E+02  0.33769586655E+02  0.00000000000E+00 0.  1.
</event>
<event>
 8    1  0.1212194E-006  0.9118800E+02  0.7816164E-02  0.1184000E+00
        -11   -1    0    0    0    0  0.00000000000E+00  0.00000000000E+00  0.45593999997E+02  0.45594000000E+02  0.51100000000E-03 0.  1.
         11   -1    0    0    0    0 -0.00000000000E+00 -0.00000000000E+00 -0.45593999997E+02  0.45594000000E+02  0.51100000000E-03 0. -1.
         23    2    1    2    0    0  0.35527136788E-14  0.00000000000E+00  0.00000000000E+00  0.91188000000E+02  0.91188000000E+02 0.  0.
    9900012    2    3    3    0    0 -0.28121800927E+02  0.24426452448E+01  0.23642614836E+02  0.54367143961E+02  0.40000136288E+02 0.  0.
         12    1    3    3    0    0  0.28121800927E+02 -0.24426452448E+01 -0.23642614836E+02  0.36820856039E+02  0.00000000000E+00 0. -1.
         11    1    4    4    0    0 -0.29900261121E+02  0.64952828293E+01  0.38040179055E+01  0.30833178017E+02  0.51100000000E-03 0. -1.
        -11    1    4    4    0    0  0.18769592016E+01 -0.57877086517E+01  0.33337906591E+01  0.69379181101E+01  0.51100000000E-03 0.  1.
         12    1    4    4    0    0 -0.98499007122E-01  0.17350710673E+01  0.16504806271E+02  0.16596047834E+02  0.00000000000E+00 0. -1.
</event>
<event>
 8    1  0.1212194E-006  0.9118800E+02  0.7816164E-02  0.1184000E+00
        -11   -1    0    0    0    0  0.00000000000E+00  0.00000000000E+00  0.45593999997E+02  0.45594000000E+02  0.51100000000E-03 0.  1.
         11   -1    0    0    0    0 -0.00000000000E+00 -0.00000000000E+00 -0.45593999997E+02  0.45594000000E+02  0.51100000000E-03 0. -1.
         23    2    1    2    0    0  0.00000000000E+00 -0.22204460493E-15  0.00000000000E+00  0.91188000000E+02  0.91188000000E+02 0.  0.
    9900012    2    3    3    0    0 -0.17834764331E+02  0.16136451915E+01  0.32172958909E+02  0.54367055492E+02  0.39999934604E+02 0.  0.
         12    1    3    3    0    0  0.17834764331E+02 -0.16136451915E+01 -0.32172958909E+02  0.36820944508E+02  0.00000000000E+00 0. -1.
         11    1    4    4    0    0 -0.10913117535E+02 -0.64542789531E+01 -0.12386938928E+01  0.12739239143E+02  0.51100000000E-03 0. -1.
        -11    1    4    4    0    0  0.39476956877E+01 -0.58623213924E+01  0.11232036202E+02  0.13270634908E+02  0.51100000000E-03 0.  1.
         12    1    4    4    0    0 -0.10869342484E+02  0.13930245537E+02  0.22179616599E+02  0.28357181440E+02  0.00000000000E+00 0. -1.
</event>
<event>
 8    1  0.1212194E-006  0.9118800E+02  0.7816164E-02  0.1184000E+00
        -11   -1    0    0    0    0  0.00000000000E+00  0.00000000000E+00  0.45593999997E+02  0.45594000000E+02  0.51100000000E-03 0.  1.
         11   -1    0    0    0    0 -0.00000000000E+00 -0.00000000000E+00 -0.45593999997E+02  0.45594000000E+02  0.51100000000E-03 0. -1.
         23    2    1    2    0    0  0.14210854715E-13  0.00000000000E+00  0.88817841970E-15  0.91188000000E+02  0.91188000000E+02 0.  0.
    9900012    2    3    3    0    0 -0.32461239458E+02 -0.16173249656E+02 -0.63620112739E+01  0.54367064935E+02  0.39999956133E+02 0.  0.
        -12    1    3    3    0    0  0.32461239458E+02  0.16173249656E+02  0.63620112739E+01  0.36820935065E+02  0.00000000000E+00 0.  1.
         11    1    4    4    0    0  0.78259845414E+00 -0.22683520366E+01 -0.58641099432E+01  0.63360608417E+01  0.51100000000E-03 0. -1.
        -11    1    4    4    0    0 -0.24113654229E+01 -0.14408626072E+02 -0.74818319082E+01  0.16413439537E+02  0.51100000000E-03 0.  1.
         12    1    4    4    0    0 -0.30832472489E+02  0.50372845236E+00  0.69839305776E+01  0.31617564556E+02  0.00000000000E+00 0. -1.
</event>
<event>
 8    1  0.1212194E-006  0.9118800E+02  0.7816164E-02  0.1184000E+00
        -11   -1    0    0    0    0  0.00000000000E+00  0.00000000000E+00  0.45593999997E+02  0.45594000000E+02  0.51100000000E-03 0.  1.
         11   -1    0    0    0    0 -0.00000000000E+00 -0.00000000000E+00 -0.45593999997E+02  0.45594000000E+02  0.51100000000E-03 0. -1.
         23    2    1    2    0    0  0.00000000000E+00  0.00000000000E+00  0.00000000000E+00  0.91188000000E+02  0.91188000000E+02 0.  0.
    9900012    2    3    3    0    0 -0.14729514003E+02 -0.25169151821E+02 -0.22479708417E+02  0.54367053833E+02  0.39999930823E+02 0.  0.
        -12    1    3    3    0    0  0.14729514003E+02  0.25169151821E+02  0.22479708417E+02  0.36820946167E+02  0.00000000000E+00 0.  1.
         11    1    4    4    0    0 -0.84697258417E+01 -0.40696277630E+00 -0.14788060896E+02  0.17046660080E+02  0.51100000000E-03 0. -1.
        -11    1    4    4    0    0 -0.84333353505E+01  0.12277505907E+01  0.31367033940E+01  0.90811576954E+01  0.51100000000E-03 0.  1.
         12    1    4    4    0    0  0.21735471887E+01 -0.25989939635E+02 -0.10828350914E+02  0.28239236058E+02  0.00000000000E+00 0. -1.
</event>
<event>
 8    1  0.1212194E-006  0.9118800E+02  0.7816164E-02  0.1184000E+00
        -11   -1    0    0    0    0  0.00000000000E+00  0.00000000000E+00  0.45593999997E+02  0.45594000000E+02  0.51100000000E-03 0.  1.
         11   -1    0    0    0    0 -0.00000000000E+00 -0.00000000000E+00 -0.45593999997E+02  0.45594000000E+02  0.51100000000E-03 0. -1.
         23    2    1    2    0    0 -0.35527136788E-14  0.00000000000E+00  0.00000000000E+00  0.91188000000E+02  0.91188000000E+02 0.  0.
    9900012    2    3    3    0    0 -0.25284916613E+02  0.26539923508E+02  0.34763179493E+01  0.54367091070E+02  0.40000015712E+02 0.  0.
         12    1    3    3    0    0  0.25284916613E+02 -0.26539923508E+02 -0.34763179493E+01  0.36820908930E+02  0.00000000000E+00 0. -1.
         11    1    4    4    0    0 -0.16308677688E+02  0.11122869487E+02  0.73173593576E+00  0.19754154785E+02  0.51100000000E-03 0. -1.
        -11    1    4    4    0    0 -0.13611820774E+02  0.21139875312E+02  0.70101825948E+01  0.26102081397E+02  0.51100000000E-03 0.  1.
         12    1    4    4    0    0  0.46355818480E+01 -0.57228212907E+01 -0.42656005812E+01  0.85108548873E+01  0.00000000000E+00 0. -1.
</event>
<event>
 8    1  0.1212194E-006  0.9118800E+02  0.7816164E-02  0.1184000E+00
        -11   -1    0    0    0    0  0.00000000000E+00  0.00000000000E+00  0.45593999997E+02  0.45594000000E+02  0.51100000000E-03 0.  1.
         11   -1    0    0    0    0 -0.00000000000E+00 -0.00000000000E+00 -0.45593999997E+02  0.45594000000E+02  0.51100000000E-03 0. -1.
         23    2    1    2    0    0 -0.35527136788E-14  0.27755575616E-15 -0.35527136788E-14  0.91188000000E+02  0.91188000000E+02 0.  0.
    9900012    2    3    3    0    0  0.27591991076E+02 -0.22966025746E+00  0.24380514640E+02  0.54367079188E+02  0.39999988624E+02 0.  0.
         12    1    3    3    0    0 -0.27591991076E+02  0.22966025746E+00 -0.24380514640E+02  0.36820920812E+02  0.00000000000E+00 0. -1.
         11    1    4    4    0    0  0.21218180909E+02 -0.58921979544E+01 -0.41074822766E+01  0.22400906426E+02  0.51100000000E-03 0. -1.
        -11    1    4    4    0    0  0.11129538485E+01 -0.27419194155E+01  0.14630443954E+02  0.14926710251E+02  0.51100000000E-03 0.  1.
        -12    1    4    4    0    0  0.52608563188E+01  0.84044571125E+01  0.13857552962E+02  0.17039462511E+02  0.00000000000E+00 0.  1.
</event>
<event>
 8    1  0.1212194E-006  0.9118800E+02  0.7816164E-02  0.1184000E+00
        -11   -1    0    0    0    0  0.00000000000E+00  0.00000000000E+00  0.45593999997E+02  0.45594000000E+02  0.51100000000E-03 0.  1.
         11   -1    0    0    0    0 -0.00000000000E+00 -0.00000000000E+00 -0.45593999997E+02  0.45594000000E+02  0.51100000000E-03 0. -1.
         23    2    1    2    0    0  0.35527136788E-14 -0.17763568394E-14 -0.17763568394E-14  0.91188000000E+02  0.91188000000E+02 0.  0.
    9900012    2    3    3    0    0 -0.31204650719E+02  0.11934781954E+02 -0.15479368282E+02  0.54367080821E+02  0.39999992347E+02 0.  0.
        -12    1    3    3    0    0  0.31204650719E+02 -0.11934781954E+02  0.15479368282E+02  0.36820919179E+02  0.00000000000E+00 0.  1.
         11    1    4    4    0    0 -0.42629390824E+01 -0.85251866771E-01 -0.63157230877E+01  0.76202543188E+01  0.51100000000E-03 0. -1.
        -11    1    4    4    0    0  0.36364697430E+01 -0.32785389705E+01  0.73062872477E+01  0.87951443183E+01  0.51100000000E-03 0.  1.
        -12    1    4    4    0    0 -0.30578181380E+02  0.15298572791E+02 -0.16469932442E+02  0.37951682184E+02  0.00000000000E+00 0.  1.
</event>
<event>
 8    1  0.1212194E-006  0.9118800E+02  0.7816164E-02  0.1184000E+00
        -11   -1    0    0    0    0  0.00000000000E+00  0.00000000000E+00  0.45593999997E+02  0.45594000000E+02  0.51100000000E-03 0. -1.
         11   -1    0    0    0    0 -0.00000000000E+00 -0.00000000000E+00 -0.45593999997E+02  0.45594000000E+02  0.51100000000E-03 0.  1.
         23    2    1    2    0    0  0.00000000000E+00  0.00000000000E+00  0.88817841970E-15  0.91188000000E+02  0.91188000000E+02 0.  0.
    9900012    2    3    3    0    0 -0.31862095751E+02 -0.18252613075E+02 -0.27255766000E+01  0.54367084781E+02  0.40000001376E+02 0.  0.
        -12    1    3    3    0    0  0.31862095751E+02  0.18252613075E+02  0.27255766000E+01  0.36820915219E+02  0.00000000000E+00 0.  1.
         11    1    4    4    0    0 -0.18491633255E+01 -0.14406666145E+02  0.73182476173E+01  0.16264322392E+02  0.51100000000E-03 0. -1.
        -11    1    4    4    0    0 -0.18251245472E+02 -0.22371155447E+01 -0.16398384237E+02  0.24637768833E+02  0.51100000000E-03 0.  1.
        -12    1    4    4    0    0 -0.11761686954E+02 -0.16088313857E+01  0.63545600198E+01  0.13464993557E+02  0.00000000000E+00 0.  1.
</event>
<event>
 8    1  0.1212194E-006  0.9118800E+02  0.7816164E-02  0.1184000E+00
        -11   -1    0    0    0    0  0.00000000000E+00  0.00000000000E+00  0.45593999997E+02  0.45594000000E+02  0.51100000000E-03 0.  1.
         11   -1    0    0    0    0 -0.00000000000E+00 -0.00000000000E+00 -0.45593999997E+02  0.45594000000E+02  0.51100000000E-03 0. -1.
         23    2    1    2    0    0  0.00000000000E+00  0.35527136788E-14 -0.35527136788E-14  0.91188000000E+02  0.91188000000E+02 0.  0.
    9900012    2    3    3    0    0 -0.30553469586E+01  0.28095390095E+02 -0.23602827848E+02  0.54367087843E+02  0.40000008357E+02 0.  0.
         12    1    3    3    0    0  0.30553469586E+01 -0.28095390095E+02  0.23602827848E+02  0.36820912157E+02  0.00000000000E+00 0. -1.
         11    1    4    4    0    0 -0.65559727643E+01  0.18594337562E+02 -0.13410278834E+02  0.23844616729E+02  0.51100000000E-03 0. -1.
        -11    1    4    4    0    0 -0.42203265773E+01  0.79003334574E+01 -0.17571829420E+02  0.19722971748E+02  0.51100000000E-03 0.  1.
        -12    1    4    4    0    0  0.77209523830E+01  0.16007190753E+01  0.73792804060E+01  0.10799499367E+02  0.00000000000E+00 0.  1.
</event>
<event>
 8    1  0.1212194E-006  0.9118800E+02  0.7816164E-02  0.1184000E+00
        -11   -1    0    0    0    0  0.00000000000E+00  0.00000000000E+00  0.45593999997E+02  0.45594000000E+02  0.51100000000E-03 0. -1.
         11   -1    0    0    0    0 -0.00000000000E+00 -0.00000000000E+00 -0.45593999997E+02  0.45594000000E+02  0.51100000000E-03 0.  1.
         23    2    1    2    0    0  0.00000000000E+00  0.14210854715E-13  0.88817841970E-15  0.91188000000E+02  0.91188000000E+02 0.  0.
    9900012    2    3    3    0    0  0.19573104158E+02 -0.30360772141E+02 -0.71342918538E+01  0.54367068294E+02  0.39999963791E+02 0.  0.
        -12    1    3    3    0    0 -0.19573104158E+02  0.30360772141E+02  0.71342918538E+01  0.36820931706E+02  0.00000000000E+00 0.  1.
         11    1    4    4    0    0  0.64144573077E+01 -0.18296918569E+00  0.61147694867E+01  0.88639238722E+01  0.51100000000E-03 0. -1.
        -11    1    4    4    0    0  0.80779442183E+01  0.19179168626E+01 -0.97712482982E+01  0.12822202676E+02  0.51100000000E-03 0.  1.
        -12    1    4    4    0    0  0.50807026321E+01 -0.32095719818E+02 -0.34778130423E+01  0.32680941747E+02  0.00000000000E+00 0.  1.
</event>
<event>
 8    1  0.1212194E-006  0.9118800E+02  0.7816164E-02  0.1184000E+00
        -11   -1    0    0    0    0  0.00000000000E+00  0.00000000000E+00  0.45593999997E+02  0.45594000000E+02  0.51100000000E-03 0. -1.
         11   -1    0    0    0    0 -0.00000000000E+00 -0.00000000000E+00 -0.45593999997E+02  0.45594000000E+02  0.51100000000E-03 0.  1.
         23    2    1    2    0    0  0.00000000000E+00  0.00000000000E+00  0.00000000000E+00  0.91188000000E+02  0.91188000000E+02 0.  0.
    9900012    2    3    3    0    0 -0.23347503026E+02 -0.68942062006E+01  0.27624970040E+02  0.54367150656E+02  0.40000151550E+02 0.  0.
        -12    1    3    3    0    0  0.23347503026E+02  0.68942062006E+01 -0.27624970040E+02  0.36820849344E+02  0.00000000000E+00 0.  1.
         11    1    4    4    0    0 -0.21877043388E+02  0.32426906468E+01  0.23273965509E+02  0.32106035894E+02  0.51100000000E-03 0. -1.
        -11    1    4    4    0    0  0.71016215828E+01 -0.13053750618E+01 -0.31174078921E+01  0.78648118467E+01  0.51100000000E-03 0.  1.
         12    1    4    4    0    0 -0.85720812205E+01 -0.88315217856E+01  0.74684124239E+01  0.14396302916E+02  0.00000000000E+00 0. -1.
</event>
<event>
 8    1  0.1212194E-006  0.9118800E+02  0.7816164E-02  0.1184000E+00
        -11   -1    0    0    0    0  0.00000000000E+00  0.00000000000E+00  0.45593999997E+02  0.45594000000E+02  0.51100000000E-03 0. -1.
         11   -1    0    0    0    0 -0.00000000000E+00 -0.00000000000E+00 -0.45593999997E+02  0.45594000000E+02  0.51100000000E-03 0.  1.
         23    2    1    2    0    0 -0.88817841970E-15  0.71054273576E-14 -0.11102230246E-14  0.91188000000E+02  0.91188000000E+02 0.  0.
    9900012    2    3    3    0    0 -0.76952171173E+01 -0.35959960886E+02  0.18561628625E+01  0.54367075325E+02  0.39999979817E+02 0.  0.
        -12    1    3    3    0    0  0.76952171173E+01  0.35959960886E+02 -0.18561628625E+01  0.36820924675E+02  0.00000000000E+00 0.  1.
         11    1    4    4    0    0 -0.12195802140E+02 -0.12427755269E+02  0.10385035605E+02  0.20274014295E+02  0.51100000000E-03 0. -1.
        -11    1    4    4    0    0  0.97151544807E+01 -0.53579169357E+01  0.35592499726E+01  0.11651599079E+02  0.51100000000E-03 0.  1.
        -12    1    4    4    0    0 -0.52145694579E+01 -0.18174288681E+02 -0.12088122715E+02  0.22441461950E+02  0.00000000000E+00 0.  1.
</event>
<event>
 8    1  0.1212194E-006  0.9118800E+02  0.7816164E-02  0.1184000E+00
        -11   -1    0    0    0    0  0.00000000000E+00  0.00000000000E+00  0.45593999997E+02  0.45594000000E+02  0.51100000000E-03 0. -1.
         11   -1    0    0    0    0 -0.00000000000E+00 -0.00000000000E+00 -0.45593999997E+02  0.45594000000E+02  0.51100000000E-03 0.  1.
         23    2    1    2    0    0  0.00000000000E+00 -0.35527136788E-14  0.00000000000E+00  0.91188000000E+02  0.91188000000E+02 0.  0.
    9900012    2    3    3    0    0 -0.19946124559E+02  0.30492032306E+02 -0.53076665190E+01  0.54367037995E+02  0.39999894718E+02 0.  0.
         12    1    3    3    0    0  0.19946124559E+02 -0.30492032306E+02  0.53076665190E+01  0.36820962005E+02  0.00000000000E+00 0. -1.
         11    1    4    4    0    0  0.47579694359E+01  0.68634408781E+01  0.30699666010E+00  0.83569935413E+01  0.51100000000E-03 0. -1.
        -11    1    4    4    0    0 -0.75546688031E+01 -0.67593540482E+01  0.19081734893E+01  0.10315183673E+02  0.51100000000E-03 0.  1.
        -12    1    4    4    0    0 -0.17149425191E+02  0.30387945476E+02 -0.75228366684E+01  0.35694860781E+02  0.00000000000E+00 0.  1.
</event>
<event>
 8    1  0.1212194E-006  0.9118800E+02  0.7816164E-02  0.1184000E+00
        -11   -1    0    0    0    0  0.00000000000E+00  0.00000000000E+00  0.45593999997E+02  0.45594000000E+02  0.51100000000E-03 0.  1.
         11   -1    0    0    0    0 -0.00000000000E+00 -0.00000000000E+00 -0.45593999997E+02  0.45594000000E+02  0.51100000000E-03 0. -1.
         23    2    1    2    0    0  0.35527136788E-14  0.17763568394E-14 -0.35527136788E-14  0.91188000000E+02  0.91188000000E+02 0.  0.
    9900012    2    3    3    0    0  0.22822487457E+02  0.10285028637E+02 -0.27002440434E+02  0.54367088317E+02  0.40000009436E+02 0.  0.
        -12    1    3    3    0    0 -0.22822487457E+02 -0.10285028637E+02  0.27002440434E+02  0.36820911683E+02  0.00000000000E+00 0.  1.
         11    1    4    4    0    0 -0.13524281069E+01 -0.12584056631E+02 -0.75807848356E+01  0.14753163798E+02  0.51100000000E-03 0. -1.
        -11    1    4    4    0    0  0.17938165181E+02  0.10838474956E+02 -0.11188931083E+02  0.23757998411E+02  0.51100000000E-03 0.  1.
         12    1    4    4    0    0  0.62367503832E+01  0.12030610311E+02 -0.82327245151E+01  0.15855926108E+02  0.00000000000E+00 0. -1.
</event>
<event>
 8    1  0.1212194E-006  0.9118800E+02  0.7816164E-02  0.1184000E+00
        -11   -1    0    0    0    0  0.00000000000E+00  0.00000000000E+00  0.45593999997E+02  0.45594000000E+02  0.51100000000E-03 0.  1.
         11   -1    0    0    0    0 -0.00000000000E+00 -0.00000000000E+00 -0.45593999997E+02  0.45594000000E+02  0.51100000000E-03 0. -1.
         23    2    1    2    0    0  0.35527136788E-14  0.13322676296E-14 -0.35527136788E-14  0.91188000000E+02  0.91188000000E+02 0.  0.
    9900012    2    3    3    0    0  0.27239596195E+02  0.30898346873E+01  0.24581216801E+02  0.54367096987E+02  0.40000029202E+02 0.  0.
         12    1    3    3    0    0 -0.27239596195E+02 -0.30898346873E+01 -0.24581216801E+02  0.36820903013E+02  0.00000000000E+00 0. -1.
         11    1    4    4    0    0 -0.70969059201E+00 -0.28395664614E+01  0.14769409284E+02  0.15056634726E+02  0.51100000000E-03 0. -1.
        -11    1    4    4    0    0 -0.40988309994E+01  0.90275123560E+00  0.49798812740E+01  0.65126487023E+01  0.51100000000E-03 0.  1.
         12    1    4    4    0    0  0.32048117786E+02  0.50266499131E+01  0.48319262431E+01  0.32797813559E+02  0.00000000000E+00 0. -1.
</event>
<event>
 8    1  0.1212194E-006  0.9118800E+02  0.7816164E-02  0.1184000E+00
        -11   -1    0    0    0    0  0.00000000000E+00  0.00000000000E+00  0.45593999997E+02  0.45594000000E+02  0.51100000000E-03 0. -1.
         11   -1    0    0    0    0 -0.00000000000E+00 -0.00000000000E+00 -0.45593999997E+02  0.45594000000E+02  0.51100000000E-03 0.  1.
         23    2    1    2    0    0 -0.17763568394E-14 -0.17763568394E-14 -0.71054273576E-14  0.91188000000E+02  0.91188000000E+02 0.  0.
    9900012    2    3    3    0    0 -0.13991726750E+02  0.10246539994E+02  0.32481132118E+02  0.54367028490E+02  0.39999873049E+02 0.  0.
        -12    1    3    3    0    0  0.13991726750E+02 -0.10246539994E+02 -0.32481132118E+02  0.36820971510E+02  0.00000000000E+00 0.  1.
         11    1    4    4    0    0  0.80734156265E+01 -0.64605829741E+01  0.11149202625E+02  0.15206047865E+02  0.51100000000E-03 0. -1.
        -11    1    4    4    0    0 -0.12089092386E+02  0.48547008931E+01  0.28929565428E+00  0.13030654923E+02  0.51100000000E-03 0.  1.
         12    1    4    4    0    0 -0.99760499895E+01  0.11852422075E+02  0.21042633839E+02  0.26130325702E+02  0.00000000000E+00 0. -1.
</event>
<event>
 8    1  0.1212194E-006  0.9118800E+02  0.7816164E-02  0.1184000E+00
        -11   -1    0    0    0    0  0.00000000000E+00  0.00000000000E+00  0.45593999997E+02  0.45594000000E+02  0.51100000000E-03 0.  1.
         11   -1    0    0    0    0 -0.00000000000E+00 -0.00000000000E+00 -0.45593999997E+02  0.45594000000E+02  0.51100000000E-03 0. -1.
         23    2    1    2    0    0  0.35527136788E-14  0.16653345369E-15 -0.14210854715E-13  0.91188000000E+02  0.91188000000E+02 0.  0.
    9900012    2    3    3    0    0 -0.13201214792E+02  0.49662890750E+00  0.34369485193E+02  0.54367078981E+02  0.39999988153E+02 0.  0.
         12    1    3    3    0    0  0.13201214792E+02 -0.49662890750E+00 -0.34369485193E+02  0.36820921019E+02  0.00000000000E+00 0. -1.
         11    1    4    4    0    0 -0.16321930769E+02  0.39617798688E+01  0.27370458181E+01  0.17017418835E+02  0.51100000000E-03 0. -1.
        -11    1    4    4    0    0 -0.31328523110E+01  0.25594626833E+01 -0.48928144579E+00  0.40749244686E+01  0.51100000000E-03 0.  1.
        -12    1    4    4    0    0  0.62535682880E+01 -0.60246136446E+01  0.32121720821E+02  0.33274735677E+02  0.00000000000E+00 0.  1.
</event>
<event>
 8    1  0.1212194E-006  0.9118800E+02  0.7816164E-02  0.1184000E+00
        -11   -1    0    0    0    0  0.00000000000E+00  0.00000000000E+00  0.45593999997E+02  0.45594000000E+02  0.51100000000E-03 0.  1.
         11   -1    0    0    0    0 -0.00000000000E+00 -0.00000000000E+00 -0.45593999997E+02  0.45594000000E+02  0.51100000000E-03 0. -1.
         23    2    1    2    0    0 -0.35527136788E-14  0.00000000000E+00  0.00000000000E+00  0.91188000000E+02  0.91188000000E+02 0.  0.
    9900012    2    3    3    0    0 -0.26714820562E+02  0.22887027589E+02 -0.10875707210E+02  0.54367099999E+02  0.40000036069E+02 0.  0.
         12    1    3    3    0    0  0.26714820562E+02 -0.22887027589E+02  0.10875707210E+02  0.36820900001E+02  0.00000000000E+00 0. -1.
         11    1    4    4    0    0  0.53589196490E+01  0.47276192444E+01  0.89288903319E+01  0.11436497993E+02  0.51100000000E-03 0. -1.
        -11    1    4    4    0    0 -0.20447492369E+02  0.11837163896E+02 -0.73137619650E+01  0.24732761828E+02  0.51100000000E-03 0.  1.
        -12    1    4    4    0    0 -0.11626247842E+02  0.63222444484E+01 -0.12490835577E+02  0.18197840178E+02  0.00000000000E+00 0.  1.
</event>
<event>
 8    1  0.1212194E-006  0.9118800E+02  0.7816164E-02  0.1184000E+00
        -11   -1    0    0    0    0  0.00000000000E+00  0.00000000000E+00  0.45593999997E+02  0.45594000000E+02  0.51100000000E-03 0. -1.
         11   -1    0    0    0    0 -0.00000000000E+00 -0.00000000000E+00 -0.45593999997E+02  0.45594000000E+02  0.51100000000E-03 0.  1.
         23    2    1    2    0    0  0.00000000000E+00  0.00000000000E+00 -0.35527136788E-14  0.91188000000E+02  0.91188000000E+02 0.  0.
    9900012    2    3    3    0    0 -0.13492202661E+02  0.28013619999E+02 -0.19722497740E+02  0.54367090788E+02  0.40000015070E+02 0.  0.
        -12    1    3    3    0    0  0.13492202661E+02 -0.28013619999E+02  0.19722497740E+02  0.36820909212E+02  0.00000000000E+00 0.  1.
         11    1    4    4    0    0 -0.75794242137E+01  0.12706234461E+01  0.49227381991E+00  0.77009407950E+01  0.51100000000E-03 0. -1.
        -11    1    4    4    0    0  0.19521979632E+00  0.12546358156E+02 -0.27010788287E+02  0.29783080732E+02  0.51100000000E-03 0.  1.
        -12    1    4    4    0    0 -0.61079982437E+01  0.14196638397E+02  0.67960167272E+01  0.16883069261E+02  0.00000000000E+00 0.  1.
</event>
<event>
 8    1  0.1212194E-006  0.9118800E+02  0.7816164E-02  0.1184000E+00
        -11   -1    0    0    0    0  0.00000000000E+00  0.00000000000E+00  0.45593999997E+02  0.45594000000E+02  0.51100000000E-03 0.  1.
         11   -1    0    0    0    0 -0.00000000000E+00 -0.00000000000E+00 -0.45593999997E+02  0.45594000000E+02  0.51100000000E-03 0. -1.
         23    2    1    2    0    0  0.17763568394E-14  0.00000000000E+00  0.00000000000E+00  0.91188000000E+02  0.91188000000E+02 0.  0.
    9900012    2    3    3    0    0  0.10390661563E+02  0.46894564544E+01 -0.35011744682E+02  0.54367094046E+02  0.40000022497E+02 0.  0.
        -12    1    3    3    0    0 -0.10390661563E+02 -0.46894564544E+01  0.35011744682E+02  0.36820905954E+02  0.00000000000E+00 0.  1.
         11    1    4    4    0    0  0.49322753187E+01  0.71763137479E+01 -0.16215959070E+02  0.18406089961E+02  0.51100000000E-03 0. -1.
        -11    1    4    4    0    0 -0.11956311787E+02  0.16577385527E+01 -0.39367629329E+01  0.12696440104E+02  0.51100000000E-03 0.  1.
         12    1    4    4    0    0  0.17414698031E+02 -0.41445958463E+01 -0.14859022680E+02  0.23264563981E+02  0.00000000000E+00 0. -1.
</event>
<event>
 8    1  0.1212194E-006  0.9118800E+02  0.7816164E-02  0.1184000E+00
        -11   -1    0    0    0    0  0.00000000000E+00  0.00000000000E+00  0.45593999997E+02  0.45594000000E+02  0.51100000000E-03 0.  1.
         11   -1    0    0    0    0 -0.00000000000E+00 -0.00000000000E+00 -0.45593999997E+02  0.45594000000E+02  0.51100000000E-03 0. -1.
         23    2    1    2    0    0 -0.17763568394E-14  0.35527136788E-14  0.00000000000E+00  0.91188000000E+02  0.91188000000E+02 0.  0.
    9900012    2    3    3    0    0  0.13617621456E+02 -0.31426525380E+02  0.13517136283E+02  0.54367094459E+02  0.40000023437E+02 0.  0.
         12    1    3    3    0    0 -0.13617621456E+02  0.31426525380E+02 -0.13517136283E+02  0.36820905541E+02  0.00000000000E+00 0. -1.
         11    1    4    4    0    0  0.32960747432E+01 -0.10527623363E+02  0.64319861838E+01  0.12769706689E+02  0.51100000000E-03 0.  1.
        -11    1    4    4    0    0  0.16351035639E+02 -0.18033396187E+02 -0.75707707699E+01  0.25492671787E+02  0.51100000000E-03 0. -1.
         12    1    4    4    0    0 -0.60294889268E+01 -0.28655058305E+01  0.14655920869E+02  0.16104715983E+02  0.00000000000E+00 0. -1.
</event>
<event>
 8    1  0.1212194E-006  0.9118800E+02  0.7816164E-02  0.1184000E+00
        -11   -1    0    0    0    0  0.00000000000E+00  0.00000000000E+00  0.45593999997E+02  0.45594000000E+02  0.51100000000E-03 0.  1.
         11   -1    0    0    0    0 -0.00000000000E+00 -0.00000000000E+00 -0.45593999997E+02  0.45594000000E+02  0.51100000000E-03 0. -1.
         23    2    1    2    0    0  0.00000000000E+00  0.00000000000E+00 -0.17763568394E-14  0.91188000000E+02  0.91188000000E+02 0.  0.
    9900012    2    3    3    0    0  0.93062039074E+01  0.34340690964E+02 -0.94810749407E+01  0.54367091958E+02  0.40000017736E+02 0.  0.
        -12    1    3    3    0    0 -0.93062039074E+01 -0.34340690964E+02  0.94810749407E+01  0.36820908042E+02  0.00000000000E+00 0.  1.
         11    1    4    4    0    0  0.73759986097E+01  0.92028464199E+01 -0.12190982801E+02  0.16962246303E+02  0.51100000000E-03 0. -1.
        -11    1    4    4    0    0 -0.12270817817E+02  0.10898824493E+02  0.50193806756E+01  0.17162503543E+02  0.51100000000E-03 0.  1.
        -12    1    4    4    0    0  0.14201023114E+02  0.14239020051E+02 -0.23094728151E+01  0.20242342112E+02  0.00000000000E+00 0.  1.
</event>
<event>
 8    1  0.1212194E-006  0.9118800E+02  0.7816164E-02  0.1184000E+00
        -11   -1    0    0    0    0  0.00000000000E+00  0.00000000000E+00  0.45593999997E+02  0.45594000000E+02  0.51100000000E-03 0.  1.
         11   -1    0    0    0    0 -0.00000000000E+00 -0.00000000000E+00 -0.45593999997E+02  0.45594000000E+02  0.51100000000E-03 0. -1.
         23    2    1    2    0    0  0.00000000000E+00  0.35527136788E-14  0.17763568394E-14  0.91188000000E+02  0.91188000000E+02 0.  0.
    9900012    2    3    3    0    0 -0.23462253688E+02 -0.24283096081E+02  0.14684476391E+02  0.54367082707E+02  0.39999996648E+02 0.  0.
        -12    1    3    3    0    0  0.23462253688E+02  0.24283096081E+02 -0.14684476391E+02  0.36820917293E+02  0.00000000000E+00 0.  1.
         11    1    4    4    0    0 -0.26867630540E+02 -0.16341140687E+02  0.10211748303E+02  0.33063306753E+02  0.51100000000E-03 0. -1.
        -11    1    4    4    0    0 -0.16539820714E+01 -0.65582075828E+01 -0.63498130830E+01  0.92771692796E+01  0.51100000000E-03 0.  1.
        -12    1    4    4    0    0  0.50593589228E+01 -0.13837478106E+01  0.10822541171E+02  0.12026606675E+02  0.00000000000E+00 0.  1.
</event>
<event>
 8    1  0.1212194E-006  0.9118800E+02  0.7816164E-02  0.1184000E+00
        -11   -1    0    0    0    0  0.00000000000E+00  0.00000000000E+00  0.45593999997E+02  0.45594000000E+02  0.51100000000E-03 0.  1.
         11   -1    0    0    0    0 -0.00000000000E+00 -0.00000000000E+00 -0.45593999997E+02  0.45594000000E+02  0.51100000000E-03 0. -1.
         23    2    1    2    0    0 -0.88817841970E-15  0.00000000000E+00 -0.44408920985E-15  0.91188000000E+02  0.91188000000E+02 0.  0.
    9900012    2    3    3    0    0 -0.43836554688E+01 -0.36487403290E+02 -0.22872543049E+01  0.54367101500E+02  0.40000039489E+02 0.  0.
        -12    1    3    3    0    0  0.43836554688E+01  0.36487403290E+02  0.22872543049E+01  0.36820898500E+02  0.00000000000E+00 0.  1.
         11    1    4    4    0    0 -0.28165813753E+01 -0.10591152726E+02 -0.11204682330E+02  0.15673243222E+02  0.51100000000E-03 0. -1.
        -11    1    4    4    0    0 -0.13369767398E+02 -0.12435016899E+02 -0.89073696824E+00  0.18280419529E+02  0.51100000000E-03 0.  1.
         12    1    4    4    0    0  0.11802693304E+02 -0.13461233665E+02  0.98081649934E+01  0.20413438749E+02  0.00000000000E+00 0. -1.
</event>
<event>
 8    1  0.1212194E-006  0.9118800E+02  0.7816164E-02  0.1184000E+00
        -11   -1    0    0    0    0  0.00000000000E+00  0.00000000000E+00  0.45593999997E+02  0.45594000000E+02  0.51100000000E-03 0. -1.
         11   -1    0    0    0    0 -0.00000000000E+00 -0.00000000000E+00 -0.45593999997E+02  0.45594000000E+02  0.51100000000E-03 0.  1.
         23    2    1    2    0    0 -0.35527136788E-14  0.00000000000E+00  0.00000000000E+00  0.91188000000E+02  0.91188000000E+02 0.  0.
    9900012    2    3    3    0    0 -0.29467695605E+02 -0.16318324228E+02  0.14870966419E+02  0.54367103323E+02  0.40000043645E+02 0.  0.
        -12    1    3    3    0    0  0.29467695605E+02  0.16318324228E+02 -0.14870966419E+02  0.36820896677E+02  0.00000000000E+00 0.  1.
         11    1    4    4    0    0 -0.31401118351E+01 -0.13932365316E+02  0.42417616952E+01  0.14898444488E+02  0.51100000000E-03 0. -1.
        -11    1    4    4    0    0 -0.68023224876E+01 -0.13108679009E+02 -0.42323708885E-01  0.14768576375E+02  0.51100000000E-03 0.  1.
        -12    1    4    4    0    0 -0.19525261282E+02  0.10722720097E+02  0.10671528433E+02  0.24700082459E+02  0.00000000000E+00 0.  1.
</event>
<event>
 8    1  0.1212194E-006  0.9118800E+02  0.7816164E-02  0.1184000E+00
        -11   -1    0    0    0    0  0.00000000000E+00  0.00000000000E+00  0.45593999997E+02  0.45594000000E+02  0.51100000000E-03 0.  1.
         11   -1    0    0    0    0 -0.00000000000E+00 -0.00000000000E+00 -0.45593999997E+02  0.45594000000E+02  0.51100000000E-03 0. -1.
         23    2    1    2    0    0  0.14224732503E-14  0.00000000000E+00  0.00000000000E+00  0.91188000000E+02  0.91188000000E+02 0.  0.
    9900012    2    3    3    0    0  0.37159662222E-01 -0.36452471465E+02 -0.51957381457E+01  0.54367085405E+02  0.40000002797E+02 0.  0.
         12    1    3    3    0    0 -0.37159662222E-01  0.36452471465E+02  0.51957381457E+01  0.36820914595E+02  0.00000000000E+00 0. -1.
         11    1    4    4    0    0 -0.39052915986E+01  0.31706582049E+01 -0.17742583447E+01  0.53340761953E+01  0.51100000000E-03 0. -1.
        -11    1    4    4    0    0  0.14019093975E+02 -0.34951128578E+02 -0.42401082656E+01  0.37895842821E+02  0.51100000000E-03 0.  1.
        -12    1    4    4    0    0 -0.10076642714E+02 -0.46720010923E+01  0.81862846461E+00  0.11137166388E+02  0.00000000000E+00 0.  1.
</event>
<event>
 8    1  0.1212194E-006  0.9118800E+02  0.7816164E-02  0.1184000E+00
        -11   -1    0    0    0    0  0.00000000000E+00  0.00000000000E+00  0.45593999997E+02  0.45594000000E+02  0.51100000000E-03 0.  1.
         11   -1    0    0    0    0 -0.00000000000E+00 -0.00000000000E+00 -0.45593999997E+02  0.45594000000E+02  0.51100000000E-03 0. -1.
         23    2    1    2    0    0  0.88817841970E-15 -0.22204460493E-15 -0.71054273576E-14  0.91188000000E+02  0.91188000000E+02 0.  0.
    9900012    2    3    3    0    0 -0.52924282626E+01  0.14603848110E+01  0.36409287676E+02  0.54367099009E+02  0.40000033811E+02 0.  0.
         12    1    3    3    0    0  0.52924282626E+01 -0.14603848110E+01 -0.36409287676E+02  0.36820900991E+02  0.00000000000E+00 0. -1.
         11    1    4    4    0    0 -0.43151303763E+01  0.14135768090E+01  0.26026015652E+02  0.26419160481E+02  0.51100000000E-03 0. -1.
        -11    1    4    4    0    0  0.10175916865E+02  0.51632076803E+01  0.10742480789E+02  0.15671914094E+02  0.51100000000E-03 0.  1.
         12    1    4    4    0    0 -0.11153214752E+02 -0.51163996783E+01 -0.35920876551E+00  0.12276024434E+02  0.00000000000E+00 0. -1.
</event>
<event>
 8    1  0.1212194E-006  0.9118800E+02  0.7816164E-02  0.1184000E+00
        -11   -1    0    0    0    0  0.00000000000E+00  0.00000000000E+00  0.45593999997E+02  0.45594000000E+02  0.51100000000E-03 0.  1.
         11   -1    0    0    0    0 -0.00000000000E+00 -0.00000000000E+00 -0.45593999997E+02  0.45594000000E+02  0.51100000000E-03 0. -1.
         23    2    1    2    0    0 -0.17763568394E-14  0.00000000000E+00 -0.33306690739E-15  0.91188000000E+02  0.91188000000E+02 0.  0.
    9900012    2    3    3    0    0  0.15892941079E+02 -0.33206312421E+02  0.73384731281E+00  0.54367037321E+02  0.39999893181E+02 0.  0.
        -12    1    3    3    0    0 -0.15892941079E+02  0.33206312421E+02 -0.73384731281E+00  0.36820962679E+02  0.00000000000E+00 0.  1.
         11    1    4    4    0    0  0.27355190781E+01 -0.69695537564E+01  0.16607455452E+01  0.76691472940E+01  0.51100000000E-03 0. -1.
        -11    1    4    4    0    0 -0.28703708016E+01 -0.21610753916E+02  0.12636184200E+02  0.25197953582E+02  0.51100000000E-03 0.  1.
         12    1    4    4    0    0  0.16027792802E+02 -0.46260047486E+01 -0.13563082433E+02  0.21499936445E+02  0.00000000000E+00 0. -1.
</event>
<event>
 8    1  0.1212194E-006  0.9118800E+02  0.7816164E-02  0.1184000E+00
        -11   -1    0    0    0    0  0.00000000000E+00  0.00000000000E+00  0.45593999997E+02  0.45594000000E+02  0.51100000000E-03 0.  1.
         11   -1    0    0    0    0 -0.00000000000E+00 -0.00000000000E+00 -0.45593999997E+02  0.45594000000E+02  0.51100000000E-03 0. -1.
         23    2    1    2    0    0  0.00000000000E+00  0.00000000000E+00 -0.17763568394E-14  0.91188000000E+02  0.91188000000E+02 0.  0.
    9900012    2    3    3    0    0  0.30943555314E+02  0.14821683321E+02 -0.13363885385E+02  0.54367090933E+02  0.40000015401E+02 0.  0.
        -12    1    3    3    0    0 -0.30943555314E+02 -0.14821683321E+02  0.13363885385E+02  0.36820909067E+02  0.00000000000E+00 0.  1.
         11    1    4    4    0    0 -0.19421089147E+01 -0.85376179918E+01 -0.71607357720E+00  0.87849570084E+01  0.51100000000E-03 0.  1.
        -11    1    4    4    0    0  0.10189189802E+02  0.17274108133E+02 -0.81995684263E+01  0.21666733101E+02  0.51100000000E-03 0. -1.
        -12    1    4    4    0    0  0.22696474426E+02  0.60851931803E+01 -0.44482433811E+01  0.23915400824E+02  0.00000000000E+00 0.  1.
</event>
<event>
 8    1  0.1212194E-006  0.9118800E+02  0.7816164E-02  0.1184000E+00
        -11   -1    0    0    0    0  0.00000000000E+00  0.00000000000E+00  0.45593999997E+02  0.45594000000E+02  0.51100000000E-03 0. -1.
         11   -1    0    0    0    0 -0.00000000000E+00 -0.00000000000E+00 -0.45593999997E+02  0.45594000000E+02  0.51100000000E-03 0.  1.
         23    2    1    2    0    0  0.00000000000E+00  0.00000000000E+00  0.00000000000E+00  0.91188000000E+02  0.91188000000E+02 0.  0.
    9900012    2    3    3    0    0  0.45020277073E+00  0.55021758278E+01 -0.36404710304E+02  0.54367088092E+02  0.40000008924E+02 0.  0.
         12    1    3    3    0    0 -0.45020277073E+00 -0.55021758278E+01  0.36404710304E+02  0.36820911908E+02  0.00000000000E+00 0. -1.
         11    1    4    4    0    0  0.25536606255E+01 -0.43617321648E+01 -0.25768407164E+02  0.26259411610E+02  0.51100000000E-03 0. -1.
        -11    1    4    4    0    0 -0.13750656476E+01  0.13757593753E+02 -0.16187265342E+02  0.21288253825E+02  0.51100000000E-03 0.  1.
         12    1    4    4    0    0 -0.72839220723E+00 -0.38936857604E+01  0.55509622021E+01  0.68194226572E+01  0.00000000000E+00 0. -1.
</event>
<event>
 8    1  0.1212194E-006  0.9118800E+02  0.7816164E-02  0.1184000E+00
        -11   -1    0    0    0    0  0.00000000000E+00  0.00000000000E+00  0.45593999997E+02  0.45594000000E+02  0.51100000000E-03 0.  1.
         11   -1    0    0    0    0 -0.00000000000E+00 -0.00000000000E+00 -0.45593999997E+02  0.45594000000E+02  0.51100000000E-03 0. -1.
         23    2    1    2    0    0  0.00000000000E+00  0.00000000000E+00  0.00000000000E+00  0.91188000000E+02  0.91188000000E+02 0.  0.
    9900012    2    3    3    0    0  0.18211696001E+01  0.13511298501E+02 -0.34203869224E+02  0.54367129345E+02  0.40000102967E+02 0.  0.
        -12    1    3    3    0    0 -0.18211696001E+01 -0.13511298501E+02  0.34203869224E+02  0.36820870655E+02  0.00000000000E+00 0.  1.
         11    1    4    4    0    0  0.61716398566E+01  0.19574962060E+01 -0.82070440347E+01  0.10453540164E+02  0.51100000000E-03 0.  1.
        -11    1    4    4    0    0 -0.15083599998E+02  0.11782899690E+02 -0.27038589769E+02  0.33127587460E+02  0.51100000000E-03 0. -1.
        -12    1    4    4    0    0  0.10733129742E+02 -0.22909739436E+00  0.10417645791E+01  0.10786001720E+02  0.00000000000E+00 0.  1.
</event>
<event>
 8    1  0.1212194E-006  0.9118800E+02  0.7816164E-02  0.1184000E+00
        -11   -1    0    0    0    0  0.00000000000E+00  0.00000000000E+00  0.45593999997E+02  0.45594000000E+02  0.51100000000E-03 0.  1.
         11   -1    0    0    0    0 -0.00000000000E+00 -0.00000000000E+00 -0.45593999997E+02  0.45594000000E+02  0.51100000000E-03 0. -1.
         23    2    1    2    0    0  0.88817841970E-15  0.00000000000E+00  0.35527136788E-14  0.91188000000E+02  0.91188000000E+02 0.  0.
    9900012    2    3    3    0    0  0.66052284673E+01  0.30506219201E+02 -0.19533066282E+02  0.54366822243E+02  0.39999402862E+02 0.  0.
        -12    1    3    3    0    0 -0.66052284673E+01 -0.30506219201E+02  0.19533066282E+02  0.36821177757E+02  0.00000000000E+00 0.  1.
         11    1    4    4    0    0  0.11221054914E+02  0.23056083871E+02 -0.25411250409E+02  0.36100231640E+02  0.51100000000E-03 0. -1.
        -11    1    4    4    0    0  0.33364202595E+01 -0.27696737514E+01  0.12138056268E+01  0.45029009758E+01  0.51100000000E-03 0.  1.
        -12    1    4    4    0    0 -0.79522467064E+01  0.10219809082E+02  0.46643785008E+01  0.13763689627E+02  0.00000000000E+00 0.  1.
</event>
<event>
 8    1  0.1212194E-006  0.9118800E+02  0.7816164E-02  0.1184000E+00
        -11   -1    0    0    0    0  0.00000000000E+00  0.00000000000E+00  0.45593999997E+02  0.45594000000E+02  0.51100000000E-03 0.  1.
         11   -1    0    0    0    0 -0.00000000000E+00 -0.00000000000E+00 -0.45593999997E+02  0.45594000000E+02  0.51100000000E-03 0. -1.
         23    2    1    2    0    0 -0.71054273576E-14  0.00000000000E+00  0.44408920985E-15  0.91188000000E+02  0.91188000000E+02 0.  0.
    9900012    2    3    3    0    0  0.35477928200E+02  0.96229688293E+01  0.21196972509E+01  0.54367108716E+02  0.40000055941E+02 0.  0.
         12    1    3    3    0    0 -0.35477928200E+02 -0.96229688293E+01 -0.21196972509E+01  0.36820891284E+02  0.00000000000E+00 0. -1.
         11    1    4    4    0    0  0.72891046034E+01  0.95641048914E-01 -0.39615509458E+01  0.82966305984E+01  0.51100000000E-03 0. -1.
        -11    1    4    4    0    0  0.13646273245E+02 -0.65948457984E+01  0.16140793179E+02  0.22141318148E+02  0.51100000000E-03 0.  1.
         12    1    4    4    0    0  0.14542550352E+02  0.16122173579E+02 -0.10059544983E+02  0.23929159971E+02  0.00000000000E+00 0. -1.
</event>
<event>
 8    1  0.1212194E-006  0.9118800E+02  0.7816164E-02  0.1184000E+00
        -11   -1    0    0    0    0  0.00000000000E+00  0.00000000000E+00  0.45593999997E+02  0.45594000000E+02  0.51100000000E-03 0.  1.
         11   -1    0    0    0    0 -0.00000000000E+00 -0.00000000000E+00 -0.45593999997E+02  0.45594000000E+02  0.51100000000E-03 0. -1.
         23    2    1    2    0    0  0.00000000000E+00  0.71054273576E-14  0.00000000000E+00  0.91188000000E+02  0.91188000000E+02 0.  0.
    9900012    2    3    3    0    0 -0.13461450255E+02 -0.33858941387E+02 -0.53050148827E+01  0.54367058435E+02  0.39999941314E+02 0.  0.
         12    1    3    3    0    0  0.13461450255E+02  0.33858941387E+02  0.53050148827E+01  0.36820941565E+02  0.00000000000E+00 0. -1.
         11    1    4    4    0    0 -0.19073498208E+01 -0.20015430109E+02  0.51826395939E+00  0.20112782591E+02  0.51100000000E-03 0.  1.
        -11    1    4    4    0    0 -0.70557827953E+01 -0.95878451685E+01  0.11073627375E+02  0.16258415339E+02  0.51100000000E-03 0. -1.
         12    1    4    4    0    0 -0.44983176387E+01 -0.42556661102E+01 -0.16896906217E+02  0.17995860505E+02  0.00000000000E+00 0. -1.
</event>
<event>
 8    1  0.1212194E-006  0.9118800E+02  0.7816164E-02  0.1184000E+00
        -11   -1    0    0    0    0  0.00000000000E+00  0.00000000000E+00  0.45593999997E+02  0.45594000000E+02  0.51100000000E-03 0. -1.
         11   -1    0    0    0    0 -0.00000000000E+00 -0.00000000000E+00 -0.45593999997E+02  0.45594000000E+02  0.51100000000E-03 0.  1.
         23    2    1    2    0    0 -0.17763568394E-14  0.00000000000E+00  0.00000000000E+00  0.91188000000E+02  0.91188000000E+02 0.  0.
    9900012    2    3    3    0    0 -0.11110014811E+02 -0.90950576728E+01  0.33906090834E+02  0.54367143155E+02  0.40000134449E+02 0.  0.
        -12    1    3    3    0    0  0.11110014811E+02  0.90950576728E+01 -0.33906090834E+02  0.36820856845E+02  0.00000000000E+00 0.  1.
         11    1    4    4    0    0  0.44652111473E+01 -0.93980043905E+01  0.36970078557E+01  0.11042122281E+02  0.51100000000E-03 0. -1.
        -11    1    4    4    0    0 -0.87427812190E+01  0.53850521019E+01  0.32843769282E+02  0.34411454350E+02  0.51100000000E-03 0.  1.
        -12    1    4    4    0    0 -0.68324447397E+01 -0.50821053843E+01 -0.26346863036E+01  0.89135665239E+01  0.00000000000E+00 0.  1.
</event>
<event>
 8    1  0.1212194E-006  0.9118800E+02  0.7816164E-02  0.1184000E+00
        -11   -1    0    0    0    0  0.00000000000E+00  0.00000000000E+00  0.45593999997E+02  0.45594000000E+02  0.51100000000E-03 0. -1.
         11   -1    0    0    0    0 -0.00000000000E+00 -0.00000000000E+00 -0.45593999997E+02  0.45594000000E+02  0.51100000000E-03 0.  1.
         23    2    1    2    0    0  0.71054273576E-14  0.00000000000E+00 -0.88817841970E-15  0.91188000000E+02  0.91188000000E+02 0.  0.
    9900012    2    3    3    0    0 -0.26446899218E+02 -0.24962616483E+02  0.57626863069E+01  0.54367092170E+02  0.40000018220E+02 0.  0.
        -12    1    3    3    0    0  0.26446899218E+02  0.24962616483E+02 -0.57626863069E+01  0.36820907830E+02  0.00000000000E+00 0.  1.
         11    1    4    4    0    0 -0.18322092853E+02 -0.21046095011E+02  0.19434961445E+02  0.34005219134E+02  0.51100000000E-03 0. -1.
        -11    1    4    4    0    0  0.12322718542E+01  0.26445670338E+01 -0.56438743115E+00  0.29716598312E+01  0.51100000000E-03 0.  1.
        -12    1    4    4    0    0 -0.93570782199E+01 -0.65610885054E+01 -0.13107887707E+02  0.17390213205E+02  0.00000000000E+00 0.  1.
</event>
<event>
 8    1  0.1212194E-006  0.9118800E+02  0.7816164E-02  0.1184000E+00
        -11   -1    0    0    0    0  0.00000000000E+00  0.00000000000E+00  0.45593999997E+02  0.45594000000E+02  0.51100000000E-03 0. -1.
         11   -1    0    0    0    0 -0.00000000000E+00 -0.00000000000E+00 -0.45593999997E+02  0.45594000000E+02  0.51100000000E-03 0.  1.
         23    2    1    2    0    0 -0.17763568394E-14 -0.71054273576E-14  0.00000000000E+00  0.91188000000E+02  0.91188000000E+02 0.  0.
    9900012    2    3    3    0    0  0.11235189984E+02  0.33423949683E+02  0.10601393606E+02  0.54367089463E+02  0.40000012048E+02 0.  0.
        -12    1    3    3    0    0 -0.11235189984E+02 -0.33423949683E+02 -0.10601393606E+02  0.36820910537E+02  0.00000000000E+00 0.  1.
         11    1    4    4    0    0  0.16989036796E+02  0.12711907717E+02  0.58511851814E+01  0.22010368860E+02  0.51100000000E-03 0. -1.
        -11    1    4    4    0    0  0.33692262426E+01  0.58400053327E+01 -0.82092005578E+01  0.10623009076E+02  0.51100000000E-03 0.  1.
         12    1    4    4    0    0 -0.91230730540E+01  0.14872036633E+02  0.12959408982E+02  0.21733711527E+02  0.00000000000E+00 0. -1.
</event>
<event>
 8    1  0.1212194E-006  0.9118800E+02  0.7816164E-02  0.1184000E+00
        -11   -1    0    0    0    0  0.00000000000E+00  0.00000000000E+00  0.45593999997E+02  0.45594000000E+02  0.51100000000E-03 0.  1.
         11   -1    0    0    0    0 -0.00000000000E+00 -0.00000000000E+00 -0.45593999997E+02  0.45594000000E+02  0.51100000000E-03 0. -1.
         23    2    1    2    0    0 -0.17763568394E-14 -0.17763568394E-14  0.00000000000E+00  0.91188000000E+02  0.91188000000E+02 0.  0.
    9900012    2    3    3    0    0 -0.89762917427E+01 -0.11994541309E+02  0.33635351299E+02  0.54367086220E+02  0.40000004655E+02 0.  0.
         12    1    3    3    0    0  0.89762917427E+01  0.11994541309E+02 -0.33635351299E+02  0.36820913780E+02  0.00000000000E+00 0. -1.
         11    1    4    4    0    0 -0.59725994988E+01 -0.57183550378E+01  0.56755021101E+01  0.10029100337E+02  0.51100000000E-03 0. -1.
        -11    1    4    4    0    0 -0.13625909777E+02 -0.18756463003E+01 -0.37471380225E+00  0.13759501335E+02  0.51100000000E-03 0.  1.
        -12    1    4    4    0    0  0.10622217533E+02 -0.44005399706E+01  0.28334562991E+02  0.30578484547E+02  0.00000000000E+00 0.  1.
</event>
<event>
 8    1  0.1212194E-006  0.9118800E+02  0.7816164E-02  0.1184000E+00
        -11   -1    0    0    0    0  0.00000000000E+00  0.00000000000E+00  0.45593999997E+02  0.45594000000E+02  0.51100000000E-03 0. -1.
         11   -1    0    0    0    0 -0.00000000000E+00 -0.00000000000E+00 -0.45593999997E+02  0.45594000000E+02  0.51100000000E-03 0.  1.
         23    2    1    2    0    0 -0.44408920985E-15  0.00000000000E+00 -0.35527136788E-14  0.91188000000E+02  0.91188000000E+02 0.  0.
    9900012    2    3    3    0    0  0.37371905505E+01 -0.29248174480E+02  0.22053508007E+02  0.54367088563E+02  0.40000009998E+02 0.  0.
        -12    1    3    3    0    0 -0.37371905505E+01  0.29248174480E+02 -0.22053508007E+02  0.36820911437E+02  0.00000000000E+00 0.  1.
         11    1    4    4    0    0 -0.54257843749E+01 -0.74834040298E+01 -0.39268573887E+01  0.10042941858E+02  0.51100000000E-03 0. -1.
        -11    1    4    4    0    0 -0.65129631525E+01  0.14818011866E+01  0.96490635235E+00  0.67487382756E+01  0.51100000000E-03 0.  1.
         12    1    4    4    0    0  0.15675938078E+02 -0.23246571636E+02  0.25015459044E+02  0.37575408429E+02  0.00000000000E+00 0. -1.
</event>
<event>
 8    1  0.1212194E-006  0.9118800E+02  0.7816164E-02  0.1184000E+00
        -11   -1    0    0    0    0  0.00000000000E+00  0.00000000000E+00  0.45593999997E+02  0.45594000000E+02  0.51100000000E-03 0.  1.
         11   -1    0    0    0    0 -0.00000000000E+00 -0.00000000000E+00 -0.45593999997E+02  0.45594000000E+02  0.51100000000E-03 0. -1.
         23    2    1    2    0    0  0.00000000000E+00  0.00000000000E+00  0.00000000000E+00  0.91188000000E+02  0.91188000000E+02 0.  0.
    9900012    2    3    3    0    0  0.24059856776E+02 -0.16401621659E+02 -0.22536416720E+02  0.54367082308E+02  0.39999995738E+02 0.  0.
        -12    1    3    3    0    0 -0.24059856776E+02  0.16401621659E+02  0.22536416720E+02  0.36820917692E+02  0.00000000000E+00 0.  1.
         11    1    4    4    0    0 -0.91461569332E+01 -0.70052263437E+01 -0.80616666676E+01  0.14061146912E+02  0.51100000000E-03 0. -1.
        -11    1    4    4    0    0  0.54365993760E+01 -0.26480376638E+00  0.30337485799E+01  0.62314014890E+01  0.51100000000E-03 0.  1.
        -12    1    4    4    0    0  0.27769414333E+02 -0.91315915491E+01 -0.17508498632E+02  0.34074533907E+02  0.00000000000E+00 0.  1.
</event>
<event>
 8    1  0.1212194E-006  0.9118800E+02  0.7816164E-02  0.1184000E+00
        -11   -1    0    0    0    0  0.00000000000E+00  0.00000000000E+00  0.45593999997E+02  0.45594000000E+02  0.51100000000E-03 0.  1.
         11   -1    0    0    0    0 -0.00000000000E+00 -0.00000000000E+00 -0.45593999997E+02  0.45594000000E+02  0.51100000000E-03 0. -1.
         23    2    1    2    0    0  0.00000000000E+00  0.00000000000E+00  0.35527136788E-14  0.91188000000E+02  0.91188000000E+02 0.  0.
    9900012    2    3    3    0    0  0.15300630779E+02 -0.20131375785E+02 -0.26765617458E+02  0.54367083782E+02  0.39999999097E+02 0.  0.
        -12    1    3    3    0    0 -0.15300630779E+02  0.20131375785E+02  0.26765617458E+02  0.36820916218E+02  0.00000000000E+00 0.  1.
         11    1    4    4    0    0 -0.75015517243E+01 -0.13665010113E+02 -0.81529236030E+01  0.17591928354E+02  0.51100000000E-03 0. -1.
        -11    1    4    4    0    0  0.79827300030E+01 -0.11981379508E+02 -0.14506965094E+02  0.20438431195E+02  0.51100000000E-03 0.  1.
        -12    1    4    4    0    0  0.14819452500E+02  0.55150138357E+01 -0.41057287611E+01  0.16336724233E+02  0.00000000000E+00 0.  1.
</event>
<event>
 8    1  0.1212194E-006  0.9118800E+02  0.7816164E-02  0.1184000E+00
        -11   -1    0    0    0    0  0.00000000000E+00  0.00000000000E+00  0.45593999997E+02  0.45594000000E+02  0.51100000000E-03 0. -1.
         11   -1    0    0    0    0 -0.00000000000E+00 -0.00000000000E+00 -0.45593999997E+02  0.45594000000E+02  0.51100000000E-03 0.  1.
         23    2    1    2    0    0  0.00000000000E+00 -0.17763568394E-14  0.00000000000E+00  0.91188000000E+02  0.91188000000E+02 0.  0.
    9900012    2    3    3    0    0  0.71034838562E+01 -0.10837997461E+02  0.34465318125E+02  0.54367084404E+02  0.40000000515E+02 0.  0.
        -12    1    3    3    0    0 -0.71034838562E+01  0.10837997461E+02 -0.34465318125E+02  0.36820915596E+02  0.00000000000E+00 0.  1.
         11    1    4    4    0    0 -0.51798481729E+01  0.18658319084E+01  0.69970706240E+00  0.55499320752E+01  0.51100000000E-03 0. -1.
        -11    1    4    4    0    0 -0.25644411583E+01 -0.14142151659E+02  0.30250476372E+02  0.33491314292E+02  0.51100000000E-03 0.  1.
        -12    1    4    4    0    0  0.14847773187E+02  0.14383222895E+01  0.35151346910E+01  0.15325838037E+02  0.00000000000E+00 0.  1.
</event>
<event>
 8    1  0.1212194E-006  0.9118800E+02  0.7816164E-02  0.1184000E+00
        -11   -1    0    0    0    0  0.00000000000E+00  0.00000000000E+00  0.45593999997E+02  0.45594000000E+02  0.51100000000E-03 0. -1.
         11   -1    0    0    0    0 -0.00000000000E+00 -0.00000000000E+00 -0.45593999997E+02  0.45594000000E+02  0.51100000000E-03 0.  1.
         23    2    1    2    0    0 -0.66613381478E-15  0.00000000000E+00  0.00000000000E+00  0.91188000000E+02  0.91188000000E+02 0.  0.
    9900012    2    3    3    0    0 -0.17304089585E+01 -0.29856902783E+02  0.21479149408E+02  0.54367043762E+02  0.39999907864E+02 0.  0.
        -12    1    3    3    0    0  0.17304089585E+01  0.29856902783E+02 -0.21479149408E+02  0.36820956238E+02  0.00000000000E+00 0.  1.
         11    1    4    4    0    0 -0.82163788845E+01  0.50963221020E+01  0.52804323244E+01  0.11016548767E+02  0.51100000000E-03 0. -1.
        -11    1    4    4    0    0 -0.31567129225E+01 -0.12334976799E+02 -0.18269992642E+01  0.12862908523E+02  0.51100000000E-03 0.  1.
         12    1    4    4    0    0  0.96426828485E+01 -0.22618248087E+02  0.18025716348E+02  0.30487586472E+02  0.00000000000E+00 0. -1.
</event>
<event>
 8    1  0.1212194E-006  0.9118800E+02  0.7816164E-02  0.1184000E+00
        -11   -1    0    0    0    0  0.00000000000E+00  0.00000000000E+00  0.45593999997E+02  0.45594000000E+02  0.51100000000E-03 0. -1.
         11   -1    0    0    0    0 -0.00000000000E+00 -0.00000000000E+00 -0.45593999997E+02  0.45594000000E+02  0.51100000000E-03 0.  1.
         23    2    1    2    0    0  0.35527136788E-14 -0.81185058676E-15  0.00000000000E+00  0.91188000000E+02  0.91188000000E+02 0.  0.
    9900012    2    3    3    0    0 -0.16752475523E+02  0.60565534564E-01 -0.32789185172E+02  0.54367085175E+02  0.40000002273E+02 0.  0.
         12    1    3    3    0    0  0.16752475523E+02 -0.60565534564E-01  0.32789185172E+02  0.36820914825E+02  0.00000000000E+00 0. -1.
         11    1    4    4    0    0 -0.31762398973E+01 -0.10416170191E+02 -0.10087018413E+02  0.14843619574E+02  0.51100000000E-03 0. -1.
        -11    1    4    4    0    0  0.28181836711E+01 -0.59209251852E+01 -0.12654582878E+02  0.14252648257E+02  0.51100000000E-03 0.  1.
        -12    1    4    4    0    0 -0.16394419297E+02  0.16397660910E+02 -0.10047583881E+02  0.25270817345E+02  0.00000000000E+00 0.  1.
</event>
<event>
 8    1  0.1212194E-006  0.9118800E+02  0.7816164E-02  0.1184000E+00
        -11   -1    0    0    0    0  0.00000000000E+00  0.00000000000E+00  0.45593999997E+02  0.45594000000E+02  0.51100000000E-03 0.  1.
         11   -1    0    0    0    0 -0.00000000000E+00 -0.00000000000E+00 -0.45593999997E+02  0.45594000000E+02  0.51100000000E-03 0. -1.
         23    2    1    2    0    0  0.35527136788E-14  0.00000000000E+00 -0.71054273576E-14  0.91188000000E+02  0.91188000000E+02 0.  0.
    9900012    2    3    3    0    0  0.21181113072E+02 -0.17484078300E+02 -0.24524422447E+02  0.54367084187E+02  0.40000000021E+02 0.  0.
        -12    1    3    3    0    0 -0.21181113072E+02  0.17484078300E+02  0.24524422447E+02  0.36820915813E+02  0.00000000000E+00 0.  1.
         11    1    4    4    0    0  0.17220733514E+01 -0.15214468507E+01  0.59676308237E+00  0.23741237509E+01  0.51100000000E-03 0. -1.
        -11    1    4    4    0    0  0.23778357748E+01 -0.18946703697E+02  0.26241853736E+01  0.19274803062E+02  0.51100000000E-03 0.  1.
         12    1    4    4    0    0  0.17081203946E+02  0.29840722478E+01 -0.27745370903E+02  0.32718157374E+02  0.00000000000E+00 0. -1.
</event>
<event>
 8    1  0.1212194E-006  0.9118800E+02  0.7816164E-02  0.1184000E+00
        -11   -1    0    0    0    0  0.00000000000E+00  0.00000000000E+00  0.45593999997E+02  0.45594000000E+02  0.51100000000E-03 0.  1.
         11   -1    0    0    0    0 -0.00000000000E+00 -0.00000000000E+00 -0.45593999997E+02  0.45594000000E+02  0.51100000000E-03 0. -1.
         23    2    1    2    0    0  0.44408920985E-15  0.00000000000E+00  0.71054273576E-14  0.91188000000E+02  0.91188000000E+02 0.  0.
    9900012    2    3    3    0    0  0.28157090452E+01  0.13137849187E+02 -0.34281897936E+02  0.54367084411E+02  0.40000000532E+02 0.  0.
        -12    1    3    3    0    0 -0.28157090452E+01 -0.13137849187E+02  0.34281897936E+02  0.36820915589E+02  0.00000000000E+00 0.  1.
         11    1    4    4    0    0 -0.10487310142E+01 -0.27538369353E+01 -0.30433146199E+02  0.30575477795E+02  0.51100000000E-03 0. -1.
        -11    1    4    4    0    0  0.88186014041E+01  0.14202547495E+02  0.87566688569E+00  0.16740575821E+02  0.51100000000E-03 0.  1.
         12    1    4    4    0    0 -0.49541613448E+01  0.16891386271E+01 -0.47244186236E+01  0.70510307943E+01  0.00000000000E+00 0. -1.
</event>
<event>
 8    1  0.1212194E-006  0.9118800E+02  0.7816164E-02  0.1184000E+00
        -11   -1    0    0    0    0  0.00000000000E+00  0.00000000000E+00  0.45593999997E+02  0.45594000000E+02  0.51100000000E-03 0. -1.
         11   -1    0    0    0    0 -0.00000000000E+00 -0.00000000000E+00 -0.45593999997E+02  0.45594000000E+02  0.51100000000E-03 0.  1.
         23    2    1    2    0    0  0.00000000000E+00  0.00000000000E+00  0.44408920985E-15  0.91188000000E+02  0.91188000000E+02 0.  0.
    9900012    2    3    3    0    0  0.33808853751E+02 -0.14393869386E+02 -0.23560601938E+01  0.54367175899E+02  0.40000209096E+02 0.  0.
        -12    1    3    3    0    0 -0.33808853751E+02  0.14393869386E+02  0.23560601938E+01  0.36820824101E+02  0.00000000000E+00 0.  1.
         11    1    4    4    0    0  0.90228534494E+01 -0.22033813317E+02 -0.86549943320E+01  0.25333964175E+02  0.51100000000E-03 0. -1.
        -11    1    4    4    0    0  0.21794889079E+00  0.10655121579E+00 -0.20112275695E+01  0.20258063773E+01  0.51100000000E-03 0.  1.
         12    1    4    4    0    0  0.24568051411E+02  0.75333927160E+01  0.83101617078E+01  0.27007405347E+02  0.00000000000E+00 0. -1.
</event>
<event>
 8    1  0.1212194E-006  0.9118800E+02  0.7816164E-02  0.1184000E+00
        -11   -1    0    0    0    0  0.00000000000E+00  0.00000000000E+00  0.45593999997E+02  0.45594000000E+02  0.51100000000E-03 0. -1.
         11   -1    0    0    0    0 -0.00000000000E+00 -0.00000000000E+00 -0.45593999997E+02  0.45594000000E+02  0.51100000000E-03 0.  1.
         23    2    1    2    0    0  0.00000000000E+00  0.00000000000E+00  0.00000000000E+00  0.91188000000E+02  0.91188000000E+02 0.  0.
    9900012    2    3    3    0    0  0.14373723247E+02 -0.45065138677E+01 -0.33598639467E+02  0.54367066263E+02  0.39999959160E+02 0.  0.
         12    1    3    3    0    0 -0.14373723247E+02  0.45065138677E+01  0.33598639467E+02  0.36820933737E+02  0.00000000000E+00 0. -1.
         11    1    4    4    0    0 -0.10177313492E+02 -0.10292735351E+02 -0.19218252110E+02  0.24059495535E+02  0.51100000000E-03 0. -1.
        -11    1    4    4    0    0  0.59749575238E+01 -0.21246214520E+01 -0.21212191599E+01  0.66868306926E+01  0.51100000000E-03 0.  1.
         12    1    4    4    0    0  0.18576079215E+02  0.79108429357E+01 -0.12259168197E+02  0.23620740036E+02  0.00000000000E+00 0. -1.
</event>
<event>
 8    1  0.1212194E-006  0.9118800E+02  0.7816164E-02  0.1184000E+00
        -11   -1    0    0    0    0  0.00000000000E+00  0.00000000000E+00  0.45593999997E+02  0.45594000000E+02  0.51100000000E-03 0.  1.
         11   -1    0    0    0    0 -0.00000000000E+00 -0.00000000000E+00 -0.45593999997E+02  0.45594000000E+02  0.51100000000E-03 0. -1.
         23    2    1    2    0    0  0.00000000000E+00 -0.35527136788E-14  0.00000000000E+00  0.91188000000E+02  0.91188000000E+02 0.  0.
    9900012    2    3    3    0    0 -0.18571330677E+02  0.26405131469E+02  0.17710305090E+02  0.54367079351E+02  0.39999988997E+02 0.  0.
        -12    1    3    3    0    0  0.18571330677E+02 -0.26405131469E+02 -0.17710305090E+02  0.36820920649E+02  0.00000000000E+00 0.  1.
         11    1    4    4    0    0 -0.69639484578E+01 -0.46365204616E+01  0.13820966530E+01  0.84796280304E+01  0.51100000000E-03 0. -1.
        -11    1    4    4    0    0 -0.77469504260E+00  0.28877975257E+02  0.18930517959E+02  0.34538415103E+02  0.51100000000E-03 0.  1.
        -12    1    4    4    0    0 -0.10832687177E+02  0.21636766734E+01 -0.26023095219E+01  0.11349036218E+02  0.00000000000E+00 0.  1.
</event>
<event>
 8    1  0.1212194E-006  0.9118800E+02  0.7816164E-02  0.1184000E+00
        -11   -1    0    0    0    0  0.00000000000E+00  0.00000000000E+00  0.45593999997E+02  0.45594000000E+02  0.51100000000E-03 0. -1.
         11   -1    0    0    0    0 -0.00000000000E+00 -0.00000000000E+00 -0.45593999997E+02  0.45594000000E+02  0.51100000000E-03 0.  1.
         23    2    1    2    0    0 -0.17763568394E-14  0.00000000000E+00  0.71054273576E-14  0.91188000000E+02  0.91188000000E+02 0.  0.
    9900012    2    3    3    0    0 -0.11520342952E+02 -0.68277764382E+01  0.34299320828E+02  0.54367078745E+02  0.39999987616E+02 0.  0.
        -12    1    3    3    0    0  0.11520342952E+02  0.68277764382E+01 -0.34299320828E+02  0.36820921255E+02  0.00000000000E+00 0.  1.
         11    1    4    4    0    0 -0.57991313686E+01 -0.55436275756E+01  0.94679722020E+01  0.12409844044E+02  0.51100000000E-03 0. -1.
        -11    1    4    4    0    0 -0.59295925142E+01 -0.75578381596E+01 -0.54415150819E+01  0.11040428963E+02  0.51100000000E-03 0.  1.
        -12    1    4    4    0    0  0.20838093132E+00  0.62736892970E+01  0.30272863707E+02  0.30916805738E+02  0.00000000000E+00 0.  1.
</event>
<event>
 8    1  0.1212194E-006  0.9118800E+02  0.7816164E-02  0.1184000E+00
        -11   -1    0    0    0    0  0.00000000000E+00  0.00000000000E+00  0.45593999997E+02  0.45594000000E+02  0.51100000000E-03 0. -1.
         11   -1    0    0    0    0 -0.00000000000E+00 -0.00000000000E+00 -0.45593999997E+02  0.45594000000E+02  0.51100000000E-03 0.  1.
         23    2    1    2    0    0  0.00000000000E+00  0.35527136788E-14  0.17763568394E-14  0.91188000000E+02  0.91188000000E+02 0.  0.
    9900012    2    3    3    0    0 -0.27573362300E+02 -0.20888562792E+02 -0.12615811192E+02  0.54367067691E+02  0.39999962415E+02 0.  0.
        -12    1    3    3    0    0  0.27573362300E+02  0.20888562792E+02  0.12615811192E+02  0.36820932309E+02  0.00000000000E+00 0.  1.
         11    1    4    4    0    0 -0.13879434767E+02 -0.11736931331E+02  0.85434784933E+01  0.20084453976E+02  0.51100000000E-03 0. -1.
        -11    1    4    4    0    0 -0.13387079809E+02 -0.13770852334E+01 -0.22663441551E+02  0.26357956156E+02  0.51100000000E-03 0.  1.
        -12    1    4    4    0    0 -0.30684772424E+00 -0.77745462282E+01  0.15041518654E+01  0.79246575582E+01  0.00000000000E+00 0.  1.
</event>
<event>
 8    1  0.1212194E-006  0.9118800E+02  0.7816164E-02  0.1184000E+00
        -11   -1    0    0    0    0  0.00000000000E+00  0.00000000000E+00  0.45593999997E+02  0.45594000000E+02  0.51100000000E-03 0. -1.
         11   -1    0    0    0    0 -0.00000000000E+00 -0.00000000000E+00 -0.45593999997E+02  0.45594000000E+02  0.51100000000E-03 0.  1.
         23    2    1    2    0    0  0.00000000000E+00 -0.35527136788E-14  0.00000000000E+00  0.91188000000E+02  0.91188000000E+02 0.  0.
    9900012    2    3    3    0    0  0.10912577775E+02 -0.21072089622E+02 -0.28154262309E+02  0.54367084736E+02  0.40000001273E+02 0.  0.
         12    1    3    3    0    0 -0.10912577775E+02  0.21072089622E+02  0.28154262309E+02  0.36820915264E+02  0.00000000000E+00 0. -1.
         11    1    4    4    0    0  0.46186875724E+01 -0.16380549454E+02 -0.44706671662E+01  0.17596634351E+02  0.51100000000E-03 0. -1.
        -11    1    4    4    0    0  0.15248285104E+02 -0.86733872469E+01 -0.19157554454E+02  0.25975945370E+02  0.51100000000E-03 0.  1.
        -12    1    4    4    0    0 -0.89543949015E+01  0.39818470786E+01 -0.45260406881E+01  0.10794505015E+02  0.00000000000E+00 0.  1.
</event>
<event>
 8    1  0.1212194E-006  0.9118800E+02  0.7816164E-02  0.1184000E+00
        -11   -1    0    0    0    0  0.00000000000E+00  0.00000000000E+00  0.45593999997E+02  0.45594000000E+02  0.51100000000E-03 0.  1.
         11   -1    0    0    0    0 -0.00000000000E+00 -0.00000000000E+00 -0.45593999997E+02  0.45594000000E+02  0.51100000000E-03 0. -1.
         23    2    1    2    0    0  0.00000000000E+00  0.00000000000E+00 -0.13322676296E-14  0.91188000000E+02  0.91188000000E+02 0.  0.
    9900012    2    3    3    0    0 -0.52547669671E+01 -0.36392732878E+02 -0.19330515974E+01  0.54367078356E+02  0.39999986729E+02 0.  0.
        -12    1    3    3    0    0  0.52547669671E+01  0.36392732878E+02  0.19330515974E+01  0.36820921644E+02  0.00000000000E+00 0.  1.
         11    1    4    4    0    0 -0.54621816540E+01 -0.11230073373E+02 -0.34017588013E+01  0.12943026678E+02  0.51100000000E-03 0. -1.
        -11    1    4    4    0    0 -0.38105992861E+01 -0.14796642650E+02  0.16655816757E+02  0.22602600132E+02  0.51100000000E-03 0.  1.
        -12    1    4    4    0    0  0.40180139730E+01 -0.10366016855E+02 -0.15187109553E+02  0.18821451546E+02  0.00000000000E+00 0.  1.
</event>
<event>
 8    1  0.1212194E-006  0.9118800E+02  0.7816164E-02  0.1184000E+00
        -11   -1    0    0    0    0  0.00000000000E+00  0.00000000000E+00  0.45593999997E+02  0.45594000000E+02  0.51100000000E-03 0.  1.
         11   -1    0    0    0    0 -0.00000000000E+00 -0.00000000000E+00 -0.45593999997E+02  0.45594000000E+02  0.51100000000E-03 0. -1.
         23    2    1    2    0    0  0.00000000000E+00  0.00000000000E+00  0.00000000000E+00  0.91188000000E+02  0.91188000000E+02 0.  0.
    9900012    2    3    3    0    0  0.11172628455E+02 -0.85454964496E+01  0.34028313188E+02  0.54367092426E+02  0.40000018803E+02 0.  0.
         12    1    3    3    0    0 -0.11172628455E+02  0.85454964496E+01 -0.34028313188E+02  0.36820907574E+02  0.00000000000E+00 0. -1.
         11    1    4    4    0    0  0.99580444300E+01  0.39022036619E+01  0.11280709858E+02  0.15544910982E+02  0.51100000000E-03 0. -1.
        -11    1    4    4    0    0  0.14341938397E+02 -0.30758529363E+01  0.14813809210E+02  0.20847086411E+02  0.51100000000E-03 0.  1.
        -12    1    4    4    0    0 -0.13127354372E+02 -0.93718471753E+01  0.79337941201E+01  0.17975095032E+02  0.00000000000E+00 0.  1.
</event>
<event>
 8    1  0.1212194E-006  0.9118800E+02  0.7816164E-02  0.1184000E+00
        -11   -1    0    0    0    0  0.00000000000E+00  0.00000000000E+00  0.45593999997E+02  0.45594000000E+02  0.51100000000E-03 0. -1.
         11   -1    0    0    0    0 -0.00000000000E+00 -0.00000000000E+00 -0.45593999997E+02  0.45594000000E+02  0.51100000000E-03 0.  1.
         23    2    1    2    0    0  0.35527136788E-14  0.35527136788E-14  0.00000000000E+00  0.91188000000E+02  0.91188000000E+02 0.  0.
    9900012    2    3    3    0    0 -0.20526502195E+02 -0.26944394273E+02  0.14437526973E+02  0.54367083931E+02  0.39999999438E+02 0.  0.
        -12    1    3    3    0    0  0.20526502195E+02  0.26944394273E+02 -0.14437526973E+02  0.36820916069E+02  0.00000000000E+00 0.  1.
         11    1    4    4    0    0 -0.18901436631E+02 -0.25442443763E+02 -0.72444689940E+01  0.32512529625E+02  0.51100000000E-03 0. -1.
        -11    1    4    4    0    0 -0.84990533544E+00  0.18396367986E+00  0.80547586775E+01  0.81015627708E+01  0.51100000000E-03 0.  1.
         12    1    4    4    0    0 -0.77516022852E+00 -0.16859141896E+01  0.13627237289E+02  0.13752991536E+02  0.00000000000E+00 0. -1.
</event>
<event>
 8    1  0.1212194E-006  0.9118800E+02  0.7816164E-02  0.1184000E+00
        -11   -1    0    0    0    0  0.00000000000E+00  0.00000000000E+00  0.45593999997E+02  0.45594000000E+02  0.51100000000E-03 0. -1.
         11   -1    0    0    0    0 -0.00000000000E+00 -0.00000000000E+00 -0.45593999997E+02  0.45594000000E+02  0.51100000000E-03 0.  1.
         23    2    1    2    0    0  0.00000000000E+00  0.00000000000E+00  0.00000000000E+00  0.91188000000E+02  0.91188000000E+02 0.  0.
    9900012    2    3    3    0    0  0.32570964641E+02 -0.29882586224E+01  0.16911068409E+02  0.54367059464E+02  0.39999943659E+02 0.  0.
        -12    1    3    3    0    0 -0.32570964641E+02  0.29882586224E+01 -0.16911068409E+02  0.36820940536E+02  0.00000000000E+00 0.  1.
         11    1    4    4    0    0  0.21855576079E+02 -0.81137490191E+00  0.76385545194E+01  0.23166183337E+02  0.51100000000E-03 0. -1.
        -11    1    4    4    0    0  0.13492435942E+02 -0.48431496065E+01 -0.59337319725E+01  0.15514867101E+02  0.51100000000E-03 0.  1.
         12    1    4    4    0    0 -0.27770473808E+01  0.26662658859E+01  0.15206245862E+02  0.15686009026E+02  0.00000000000E+00 0. -1.
</event>
<event>
 8    1  0.1212194E-006  0.9118800E+02  0.7816164E-02  0.1184000E+00
        -11   -1    0    0    0    0  0.00000000000E+00  0.00000000000E+00  0.45593999997E+02  0.45594000000E+02  0.51100000000E-03 0.  1.
         11   -1    0    0    0    0 -0.00000000000E+00 -0.00000000000E+00 -0.45593999997E+02  0.45594000000E+02  0.51100000000E-03 0. -1.
         23    2    1    2    0    0 -0.17763568394E-14  0.35527136788E-14  0.00000000000E+00  0.91188000000E+02  0.91188000000E+02 0.  0.
    9900012    2    3    3    0    0  0.14075219832E+02  0.29702170934E+02 -0.16596638394E+02  0.54367093201E+02  0.40000020570E+02 0.  0.
        -12    1    3    3    0    0 -0.14075219832E+02 -0.29702170934E+02  0.16596638394E+02  0.36820906799E+02  0.00000000000E+00 0.  1.
         11    1    4    4    0    0 -0.34483915479E+01  0.73792341380E+01 -0.15410749694E+02  0.17430883716E+02  0.51100000000E-03 0. -1.
        -11    1    4    4    0    0 -0.47898253350E+01  0.37814910280E+01  0.42274704808E+01  0.74238539898E+01  0.51100000000E-03 0.  1.
        -12    1    4    4    0    0  0.22313436715E+02  0.18541445768E+02 -0.54133591808E+01  0.29512355494E+02  0.00000000000E+00 0.  1.
</event>
<event>
 8    1  0.1212194E-006  0.9118800E+02  0.7816164E-02  0.1184000E+00
        -11   -1    0    0    0    0  0.00000000000E+00  0.00000000000E+00  0.45593999997E+02  0.45594000000E+02  0.51100000000E-03 0.  1.
         11   -1    0    0    0    0 -0.00000000000E+00 -0.00000000000E+00 -0.45593999997E+02  0.45594000000E+02  0.51100000000E-03 0. -1.
         23    2    1    2    0    0 -0.17763568394E-14  0.00000000000E+00  0.00000000000E+00  0.91188000000E+02  0.91188000000E+02 0.  0.
    9900012    2    3    3    0    0 -0.12105828052E+02 -0.34679257116E+02  0.25647772400E+01  0.54367081635E+02  0.39999994204E+02 0.  0.
         12    1    3    3    0    0  0.12105828052E+02  0.34679257116E+02 -0.25647772400E+01  0.36820918365E+02  0.00000000000E+00 0. -1.
         11    1    4    4    0    0 -0.85379411960E+01 -0.27157327615E+02 -0.38369717806E+01  0.28725236914E+02  0.51100000000E-03 0. -1.
        -11    1    4    4    0    0 -0.12293447967E+00 -0.14675266155E+02 -0.11023565210E+01  0.14717124032E+02  0.51100000000E-03 0.  1.
        -12    1    4    4    0    0 -0.34449523765E+01  0.71533366540E+01  0.75041055417E+01  0.10924720689E+02  0.00000000000E+00 0.  1.
</event>
<event>
 8    1  0.1212194E-006  0.9118800E+02  0.7816164E-02  0.1184000E+00
        -11   -1    0    0    0    0  0.00000000000E+00  0.00000000000E+00  0.45593999997E+02  0.45594000000E+02  0.51100000000E-03 0. -1.
         11   -1    0    0    0    0 -0.00000000000E+00 -0.00000000000E+00 -0.45593999997E+02  0.45594000000E+02  0.51100000000E-03 0.  1.
         23    2    1    2    0    0  0.00000000000E+00  0.35527136788E-14 -0.35527136788E-14  0.91188000000E+02  0.91188000000E+02 0.  0.
    9900012    2    3    3    0    0 -0.22090867365E+02  0.24319326240E+02 -0.16623618501E+02  0.54367071960E+02  0.39999972147E+02 0.  0.
         12    1    3    3    0    0  0.22090867365E+02 -0.24319326240E+02  0.16623618501E+02  0.36820928040E+02  0.00000000000E+00 0. -1.
         11    1    4    4    0    0 -0.13718896870E+02  0.79390475320E+01  0.76185909695E+01  0.17586345148E+02  0.51100000000E-03 0. -1.
        -11    1    4    4    0    0 -0.15057422715E+02  0.13366808615E+02 -0.15766994637E+02  0.25573339077E+02  0.51100000000E-03 0.  1.
         12    1    4    4    0    0  0.66854522201E+01  0.30134700927E+01 -0.84752148328E+01  0.11207387735E+02  0.00000000000E+00 0. -1.
</event>
<event>
 8    1  0.1212194E-006  0.9118800E+02  0.7816164E-02  0.1184000E+00
        -11   -1    0    0    0    0  0.00000000000E+00  0.00000000000E+00  0.45593999997E+02  0.45594000000E+02  0.51100000000E-03 0. -1.
         11   -1    0    0    0    0 -0.00000000000E+00 -0.00000000000E+00 -0.45593999997E+02  0.45594000000E+02  0.51100000000E-03 0.  1.
         23    2    1    2    0    0  0.22204460493E-15  0.00000000000E+00  0.00000000000E+00  0.91188000000E+02  0.91188000000E+02 0.  0.
    9900012    2    3    3    0    0 -0.16088846955E+01 -0.28973434730E+02  0.22665640952E+02  0.54367085973E+02  0.40000004093E+02 0.  0.
        -12    1    3    3    0    0  0.16088846955E+01  0.28973434730E+02 -0.22665640952E+02  0.36820914027E+02  0.00000000000E+00 0.  1.
         11    1    4    4    0    0 -0.11709446142E+01 -0.55556440032E+01  0.87978763313E+01  0.10470860508E+02  0.51100000000E-03 0. -1.
        -11    1    4    4    0    0  0.56093564617E+01 -0.20820036456E+02  0.23714894302E+02  0.32052067171E+02  0.51100000000E-03 0.  1.
        -12    1    4    4    0    0 -0.60472965430E+01 -0.25977542708E+01 -0.98471296812E+01  0.11844158294E+02  0.00000000000E+00 0.  1.
</event>
<event>
 8    1  0.1212194E-006  0.9118800E+02  0.7816164E-02  0.1184000E+00
        -11   -1    0    0    0    0  0.00000000000E+00  0.00000000000E+00  0.45593999997E+02  0.45594000000E+02  0.51100000000E-03 0.  1.
         11   -1    0    0    0    0 -0.00000000000E+00 -0.00000000000E+00 -0.45593999997E+02  0.45594000000E+02  0.51100000000E-03 0. -1.
         23    2    1    2    0    0 -0.17763568394E-14  0.00000000000E+00  0.00000000000E+00  0.91188000000E+02  0.91188000000E+02 0.  0.
    9900012    2    3    3    0    0 -0.86869548679E+01  0.32502654523E+02  0.14963204260E+02  0.54367038339E+02  0.39999895501E+02 0.  0.
         12    1    3    3    0    0  0.86869548679E+01 -0.32502654523E+02 -0.14963204260E+02  0.36820961661E+02  0.00000000000E+00 0. -1.
         11    1    4    4    0    0  0.16055723710E+01 -0.39388317987E+01 -0.61269206862E+01  0.74586470579E+01  0.51100000000E-03 0. -1.
        -11    1    4    4    0    0 -0.75236895765E+01  0.26819176328E+02  0.55192943705E+01  0.28396068995E+02  0.51100000000E-03 0.  1.
         12    1    4    4    0    0 -0.27688376623E+01  0.96223099942E+01  0.15570830575E+02  0.18512322286E+02  0.00000000000E+00 0. -1.
</event>
<event>
 8    1  0.1212194E-006  0.9118800E+02  0.7816164E-02  0.1184000E+00
        -11   -1    0    0    0    0  0.00000000000E+00  0.00000000000E+00  0.45593999997E+02  0.45594000000E+02  0.51100000000E-03 0.  1.
         11   -1    0    0    0    0 -0.00000000000E+00 -0.00000000000E+00 -0.45593999997E+02  0.45594000000E+02  0.51100000000E-03 0. -1.
         23    2    1    2    0    0  0.00000000000E+00  0.00000000000E+00  0.00000000000E+00  0.91188000000E+02  0.91188000000E+02 0.  0.
    9900012    2    3    3    0    0 -0.11700892652E+02 -0.19057036610E+02  0.29252266162E+02  0.54367128082E+02  0.40000100087E+02 0.  0.
         12    1    3    3    0    0  0.11700892652E+02  0.19057036610E+02 -0.29252266162E+02  0.36820871918E+02  0.00000000000E+00 0. -1.
         11    1    4    4    0    0  0.31856827298E+01 -0.14337845371E+02  0.12754092357E+02  0.19452230115E+02  0.51100000000E-03 0. -1.
        -11    1    4    4    0    0 -0.11079169056E+02 -0.15632779094E+02  0.11264250150E+02  0.22226450479E+02  0.51100000000E-03 0.  1.
         12    1    4    4    0    0 -0.38074063251E+01  0.10913587856E+02  0.52339236547E+01  0.12688447487E+02  0.00000000000E+00 0. -1.
</event>
<event>
 8    1  0.1212194E-006  0.9118800E+02  0.7816164E-02  0.1184000E+00
        -11   -1    0    0    0    0  0.00000000000E+00  0.00000000000E+00  0.45593999997E+02  0.45594000000E+02  0.51100000000E-03 0. -1.
         11   -1    0    0    0    0 -0.00000000000E+00 -0.00000000000E+00 -0.45593999997E+02  0.45594000000E+02  0.51100000000E-03 0.  1.
         23    2    1    2    0    0 -0.35527136788E-14  0.00000000000E+00  0.00000000000E+00  0.91188000000E+02  0.91188000000E+02 0.  0.
    9900012    2    3    3    0    0 -0.26098666003E+02  0.79234935188E+01 -0.24735759365E+02  0.54367083281E+02  0.39999997956E+02 0.  0.
         12    1    3    3    0    0  0.26098666003E+02 -0.79234935188E+01  0.24735759365E+02  0.36820916719E+02  0.00000000000E+00 0. -1.
         11    1    4    4    0    0 -0.99260516020E+01 -0.81188302524E+01 -0.74679044701E+01  0.14839525010E+02  0.51100000000E-03 0. -1.
        -11    1    4    4    0    0  0.33822340984E+01 -0.41154843052E+01 -0.86357460221E+01  0.10146567310E+02  0.51100000000E-03 0.  1.
         12    1    4    4    0    0 -0.19554848499E+02  0.20157808076E+02 -0.86321088726E+01  0.29380990961E+02  0.00000000000E+00 0. -1.
</event>
<event>
 8    1  0.1212194E-006  0.9118800E+02  0.7816164E-02  0.1184000E+00
        -11   -1    0    0    0    0  0.00000000000E+00  0.00000000000E+00  0.45593999997E+02  0.45594000000E+02  0.51100000000E-03 0. -1.
         11   -1    0    0    0    0 -0.00000000000E+00 -0.00000000000E+00 -0.45593999997E+02  0.45594000000E+02  0.51100000000E-03 0.  1.
         23    2    1    2    0    0  0.35527136788E-14  0.00000000000E+00 -0.35527136788E-14  0.91188000000E+02  0.91188000000E+02 0.  0.
    9900012    2    3    3    0    0  0.20851516827E+02 -0.11035560345E+02 -0.28270320298E+02  0.54367077200E+02  0.39999984093E+02 0.  0.
         12    1    3    3    0    0 -0.20851516827E+02  0.11035560345E+02  0.28270320298E+02  0.36820922800E+02  0.00000000000E+00 0. -1.
         11    1    4    4    0    0 -0.39024616605E+01  0.17118999545E+01  0.52864075223E+01  0.67901335200E+01  0.51100000000E-03 0. -1.
        -11    1    4    4    0    0 -0.28116290130E+01 -0.35769344096E+01 -0.60486993316E+01  0.75687833463E+01  0.51100000000E-03 0.  1.
        -12    1    4    4    0    0  0.27565607500E+02 -0.91705258894E+01 -0.27508028489E+02  0.40008160334E+02  0.00000000000E+00 0.  1.
</event>
<event>
 8    1  0.1212194E-006  0.9118800E+02  0.7816164E-02  0.1184000E+00
        -11   -1    0    0    0    0  0.00000000000E+00  0.00000000000E+00  0.45593999997E+02  0.45594000000E+02  0.51100000000E-03 0. -1.
         11   -1    0    0    0    0 -0.00000000000E+00 -0.00000000000E+00 -0.45593999997E+02  0.45594000000E+02  0.51100000000E-03 0.  1.
         23    2    1    2    0    0  0.00000000000E+00 -0.71054273576E-14  0.00000000000E+00  0.91188000000E+02  0.91188000000E+02 0.  0.
    9900012    2    3    3    0    0  0.90267821306E+01  0.34311505650E+02  0.98495636849E+01  0.54367134715E+02  0.40000115209E+02 0.  0.
        -12    1    3    3    0    0 -0.90267821306E+01 -0.34311505650E+02 -0.98495636849E+01  0.36820865285E+02  0.00000000000E+00 0.  1.
         11    1    4    4    0    0  0.13194839694E+02  0.58078132647E+01  0.81113373215E+01  0.16541713420E+02  0.51100000000E-03 0. -1.
        -11    1    4    4    0    0  0.10036956926E+02  0.82572334142E+01  0.15766156773E+01  0.13092292589E+02  0.51100000000E-03 0.  1.
         12    1    4    4    0    0 -0.14205014490E+02  0.20246458971E+02  0.16161068615E+00  0.24733128705E+02  0.00000000000E+00 0. -1.
</event>
<event>
 8    1  0.1212194E-006  0.9118800E+02  0.7816164E-02  0.1184000E+00
        -11   -1    0    0    0    0  0.00000000000E+00  0.00000000000E+00  0.45593999997E+02  0.45594000000E+02  0.51100000000E-03 0.  1.
         11   -1    0    0    0    0 -0.00000000000E+00 -0.00000000000E+00 -0.45593999997E+02  0.45594000000E+02  0.51100000000E-03 0. -1.
         23    2    1    2    0    0  0.00000000000E+00  0.00000000000E+00 -0.35527136788E-14  0.91188000000E+02  0.91188000000E+02 0.  0.
    9900012    2    3    3    0    0  0.19642203346E+02  0.10297450121E+02  0.29392621128E+02  0.54367084639E+02  0.40000001051E+02 0.  0.
         12    1    3    3    0    0 -0.19642203346E+02 -0.10297450121E+02 -0.29392621128E+02  0.36820915361E+02  0.00000000000E+00 0. -1.
         11    1    4    4    0    0  0.22958368823E+02  0.14330900863E+02  0.45259352523E+01  0.27439852564E+02  0.51100000000E-03 0. -1.
        -11    1    4    4    0    0 -0.51628049621E+01 -0.81762264722E+00  0.73308170666E+01  0.90035515767E+01  0.51100000000E-03 0.  1.
         12    1    4    4    0    0  0.18466394849E+01 -0.32158280950E+01  0.17535868809E+02  0.17923680499E+02  0.00000000000E+00 0. -1.
</event>
<event>
 8    1  0.1212194E-006  0.9118800E+02  0.7816164E-02  0.1184000E+00
        -11   -1    0    0    0    0  0.00000000000E+00  0.00000000000E+00  0.45593999997E+02  0.45594000000E+02  0.51100000000E-03 0.  1.
         11   -1    0    0    0    0 -0.00000000000E+00 -0.00000000000E+00 -0.45593999997E+02  0.45594000000E+02  0.51100000000E-03 0. -1.
         23    2    1    2    0    0  0.00000000000E+00 -0.35527136788E-14 -0.88817841970E-15  0.91188000000E+02  0.91188000000E+02 0.  0.
    9900012    2    3    3    0    0 -0.31783731952E+02  0.17268791114E+02 -0.68820463644E+01  0.54367091191E+02  0.40000015988E+02 0.  0.
         12    1    3    3    0    0  0.31783731952E+02 -0.17268791114E+02  0.68820463644E+01  0.36820908809E+02  0.00000000000E+00 0. -1.
         11    1    4    4    0    0 -0.11340700834E+02 -0.34613449610E+01  0.64736657110E+01  0.13509283932E+02  0.51100000000E-03 0. -1.
        -11    1    4    4    0    0 -0.22678754428E+02  0.17234204292E+02 -0.17559951260E+01  0.28538171264E+02  0.51100000000E-03 0.  1.
         12    1    4    4    0    0  0.22357233095E+01  0.34959317832E+01 -0.11599716949E+02  0.12319635995E+02  0.00000000000E+00 0. -1.
</event>
<event>
 8    1  0.1212194E-006  0.9118800E+02  0.7816164E-02  0.1184000E+00
        -11   -1    0    0    0    0  0.00000000000E+00  0.00000000000E+00  0.45593999997E+02  0.45594000000E+02  0.51100000000E-03 0. -1.
         11   -1    0    0    0    0 -0.00000000000E+00 -0.00000000000E+00 -0.45593999997E+02  0.45594000000E+02  0.51100000000E-03 0.  1.
         23    2    1    2    0    0  0.00000000000E+00  0.35527136788E-14  0.00000000000E+00  0.91188000000E+02  0.91188000000E+02 0.  0.
    9900012    2    3    3    0    0 -0.17743568089E+02 -0.17533261356E+02 -0.27083727855E+02  0.54367112221E+02  0.40000063930E+02 0.  0.
         12    1    3    3    0    0  0.17743568089E+02  0.17533261356E+02  0.27083727855E+02  0.36820887779E+02  0.00000000000E+00 0. -1.
         11    1    4    4    0    0  0.42770038381E+01 -0.14450423427E+02 -0.70327044906E+01  0.16630286581E+02  0.51100000000E-03 0. -1.
        -11    1    4    4    0    0 -0.26618338234E+02 -0.43045794073E+01 -0.15249430559E+02  0.30977580067E+02  0.51100000000E-03 0.  1.
        -12    1    4    4    0    0  0.45977663062E+01  0.12217414784E+01 -0.48015928056E+01  0.67592455730E+01  0.00000000000E+00 0.  1.
</event>
<event>
 8    1  0.1212194E-006  0.9118800E+02  0.7816164E-02  0.1184000E+00
        -11   -1    0    0    0    0  0.00000000000E+00  0.00000000000E+00  0.45593999997E+02  0.45594000000E+02  0.51100000000E-03 0.  1.
         11   -1    0    0    0    0 -0.00000000000E+00 -0.00000000000E+00 -0.45593999997E+02  0.45594000000E+02  0.51100000000E-03 0. -1.
         23    2    1    2    0    0 -0.35527136788E-14  0.00000000000E+00  0.00000000000E+00  0.91188000000E+02  0.91188000000E+02 0.  0.
    9900012    2    3    3    0    0  0.29395978293E+02  0.64046411296E+01  0.21228220052E+02  0.54367078034E+02  0.39999985994E+02 0.  0.
         12    1    3    3    0    0 -0.29395978293E+02 -0.64046411296E+01 -0.21228220052E+02  0.36820921966E+02  0.00000000000E+00 0. -1.
         11    1    4    4    0    0  0.90487110704E+01  0.31927648090E+01 -0.85849267799E+01  0.12875320860E+02  0.51100000000E-03 0. -1.
        -11    1    4    4    0    0  0.58384280255E+01 -0.82387933203E+00 -0.20552685902E+01  0.62442091734E+01  0.51100000000E-03 0.  1.
        -12    1    4    4    0    0  0.14508839197E+02  0.40357556527E+01  0.31868415422E+02  0.35247548001E+02  0.00000000000E+00 0.  1.
</event>
<event>
 8    1  0.1212194E-006  0.9118800E+02  0.7816164E-02  0.1184000E+00
        -11   -1    0    0    0    0  0.00000000000E+00  0.00000000000E+00  0.45593999997E+02  0.45594000000E+02  0.51100000000E-03 0. -1.
         11   -1    0    0    0    0 -0.00000000000E+00 -0.00000000000E+00 -0.45593999997E+02  0.45594000000E+02  0.51100000000E-03 0.  1.
         23    2    1    2    0    0 -0.17763568394E-14 -0.35527136788E-14  0.00000000000E+00  0.91188000000E+02  0.91188000000E+02 0.  0.
    9900012    2    3    3    0    0  0.15916791015E+02  0.25205295666E+02 -0.21613176751E+02  0.54367074223E+02  0.39999977305E+02 0.  0.
         12    1    3    3    0    0 -0.15916791015E+02 -0.25205295666E+02  0.21613176751E+02  0.36820925777E+02  0.00000000000E+00 0. -1.
         11    1    4    4    0    0  0.12273430865E+02  0.11761846847E+02  0.82740285772E+00  0.17019481255E+02  0.51100000000E-03 0. -1.
        -11    1    4    4    0    0  0.40603182337E+01 -0.20267692904E+01 -0.21357060156E+02  0.21833872691E+02  0.51100000000E-03 0.  1.
        -12    1    4    4    0    0 -0.41695808306E+00  0.15470218110E+02 -0.10835194520E+01  0.15513720277E+02  0.00000000000E+00 0.  1.
</event>
<event>
 8    1  0.1212194E-006  0.9118800E+02  0.7816164E-02  0.1184000E+00
        -11   -1    0    0    0    0  0.00000000000E+00  0.00000000000E+00  0.45593999997E+02  0.45594000000E+02  0.51100000000E-03 0.  1.
         11   -1    0    0    0    0 -0.00000000000E+00 -0.00000000000E+00 -0.45593999997E+02  0.45594000000E+02  0.51100000000E-03 0. -1.
         23    2    1    2    0    0 -0.35527136788E-14  0.17763568394E-14 -0.35527136788E-14  0.91188000000E+02  0.91188000000E+02 0.  0.
    9900012    2    3    3    0    0 -0.18614402837E+02  0.14212676735E+02 -0.28412745925E+02  0.54367077904E+02  0.39999985698E+02 0.  0.
        -12    1    3    3    0    0  0.18614402837E+02 -0.14212676735E+02  0.28412745925E+02  0.36820922096E+02  0.00000000000E+00 0.  1.
         11    1    4    4    0    0  0.39262746756E+01  0.12412587305E+02 -0.29630362071E+01  0.13351686795E+02  0.51100000000E-03 0. -1.
        -11    1    4    4    0    0 -0.22563388222E+02  0.40017108240E+01 -0.28924452381E+02  0.36901817345E+02  0.51100000000E-03 0.  1.
         12    1    4    4    0    0  0.22710709081E-01 -0.22016213939E+01  0.34747426632E+01  0.41135737642E+01  0.00000000000E+00 0. -1.
</event>
<event>
 8    1  0.1212194E-006  0.9118800E+02  0.7816164E-02  0.1184000E+00
        -11   -1    0    0    0    0  0.00000000000E+00  0.00000000000E+00  0.45593999997E+02  0.45594000000E+02  0.51100000000E-03 0.  1.
         11   -1    0    0    0    0 -0.00000000000E+00 -0.00000000000E+00 -0.45593999997E+02  0.45594000000E+02  0.51100000000E-03 0. -1.
         23    2    1    2    0    0  0.35527136788E-14 -0.35527136788E-14  0.00000000000E+00  0.91188000000E+02  0.91188000000E+02 0.  0.
    9900012    2    3    3    0    0  0.28511345275E+02 -0.20119959712E+02  0.11750292857E+02  0.54367096013E+02  0.40000026981E+02 0.  0.
        -12    1    3    3    0    0 -0.28511345275E+02  0.20119959712E+02 -0.11750292857E+02  0.36820903987E+02  0.00000000000E+00 0.  1.
         11    1    4    4    0    0  0.96694441008E+01  0.23810869834E+00 -0.17105950167E+01  0.98224732396E+01  0.51100000000E-03 0. -1.
        -11    1    4    4    0    0  0.17766612659E+01  0.83108272967E+01 -0.17915989208E+00  0.85004984640E+01  0.51100000000E-03 0.  1.
         12    1    4    4    0    0  0.17065239908E+02 -0.28668895707E+02  0.13640047766E+02  0.36044124309E+02  0.00000000000E+00 0. -1.
</event>
<event>
 8    1  0.1212194E-006  0.9118800E+02  0.7816164E-02  0.1184000E+00
        -11   -1    0    0    0    0  0.00000000000E+00  0.00000000000E+00  0.45593999997E+02  0.45594000000E+02  0.51100000000E-03 0.  1.
         11   -1    0    0    0    0 -0.00000000000E+00 -0.00000000000E+00 -0.45593999997E+02  0.45594000000E+02  0.51100000000E-03 0. -1.
         23    2    1    2    0    0 -0.35527136788E-14  0.00000000000E+00 -0.88817841970E-15  0.91188000000E+02  0.91188000000E+02 0.  0.
    9900012    2    3    3    0    0  0.31247651467E+02 -0.17800937614E+02  0.79051506626E+01  0.54367075118E+02  0.39999979347E+02 0.  0.
        -12    1    3    3    0    0 -0.31247651467E+02  0.17800937614E+02 -0.79051506626E+01  0.36820924882E+02  0.00000000000E+00 0.  1.
         11    1    4    4    0    0  0.15055489525E+02  0.14801762930E+01 -0.36427261888E+01  0.15560467250E+02  0.51100000000E-03 0. -1.
        -11    1    4    4    0    0  0.20491004231E+02 -0.11704402796E+02  0.16492130274E+02  0.28790009734E+02  0.51100000000E-03 0.  1.
        -12    1    4    4    0    0 -0.42988422889E+01 -0.75767111105E+01 -0.49442534227E+01  0.10016598134E+02  0.00000000000E+00 0.  1.
</event>
<event>
 8    1  0.1212194E-006  0.9118800E+02  0.7816164E-02  0.1184000E+00
        -11   -1    0    0    0    0  0.00000000000E+00  0.00000000000E+00  0.45593999997E+02  0.45594000000E+02  0.51100000000E-03 0.  1.
         11   -1    0    0    0    0 -0.00000000000E+00 -0.00000000000E+00 -0.45593999997E+02  0.45594000000E+02  0.51100000000E-03 0. -1.
         23    2    1    2    0    0 -0.88817841970E-15  0.71054273576E-14  0.17763568394E-14  0.91188000000E+02  0.91188000000E+02 0.  0.
    9900012    2    3    3    0    0  0.60535922621E+01  0.34782544382E+02  0.10455067269E+02  0.54367084686E+02  0.40000001158E+02 0.  0.
         12    1    3    3    0    0 -0.60535922621E+01 -0.34782544382E+02 -0.10455067269E+02  0.36820915314E+02  0.00000000000E+00 0. -1.
         11    1    4    4    0    0  0.54282840882E+01  0.70034698891E+01 -0.78572005444E+00  0.88956289769E+01  0.51100000000E-03 0. -1.
        -11    1    4    4    0    0 -0.99983785157E+01  0.19119999404E+02  0.19823448058E+02  0.29300359099E+02  0.51100000000E-03 0.  1.
        -12    1    4    4    0    0  0.10623686690E+02  0.86590750896E+01 -0.85826607348E+01  0.16171096610E+02  0.00000000000E+00 0.  1.
</event>
<event>
 8    1  0.1212194E-006  0.9118800E+02  0.7816164E-02  0.1184000E+00
        -11   -1    0    0    0    0  0.00000000000E+00  0.00000000000E+00  0.45593999997E+02  0.45594000000E+02  0.51100000000E-03 0.  1.
         11   -1    0    0    0    0 -0.00000000000E+00 -0.00000000000E+00 -0.45593999997E+02  0.45594000000E+02  0.51100000000E-03 0. -1.
         23    2    1    2    0    0  0.00000000000E+00  0.00000000000E+00  0.00000000000E+00  0.91188000000E+02  0.91188000000E+02 0.  0.
    9900012    2    3    3    0    0 -0.14336549002E+02 -0.28355506960E+02 -0.18606679881E+02  0.54367082732E+02  0.39999996704E+02 0.  0.
         12    1    3    3    0    0  0.14336549002E+02  0.28355506960E+02  0.18606679881E+02  0.36820917268E+02  0.00000000000E+00 0. -1.
         11    1    4    4    0    0  0.11224336516E+02 -0.46661017681E+01 -0.34049479392E+01  0.12623466508E+02  0.51100000000E-03 0. -1.
        -11    1    4    4    0    0 -0.26695990230E+02 -0.24200157357E+02 -0.16768161914E+02  0.39742858034E+02  0.51100000000E-03 0.  1.
        -12    1    4    4    0    0  0.11351047118E+01  0.51075216518E+00  0.15664299717E+01  0.20007581906E+01  0.00000000000E+00 0.  1.
</event>
<event>
 8    1  0.1212194E-006  0.9118800E+02  0.7816164E-02  0.1184000E+00
        -11   -1    0    0    0    0  0.00000000000E+00  0.00000000000E+00  0.45593999997E+02  0.45594000000E+02  0.51100000000E-03 0. -1.
         11   -1    0    0    0    0 -0.00000000000E+00 -0.00000000000E+00 -0.45593999997E+02  0.45594000000E+02  0.51100000000E-03 0.  1.
         23    2    1    2    0    0  0.35527136788E-14  0.00000000000E+00  0.11102230246E-14  0.91188000000E+02  0.91188000000E+02 0.  0.
    9900012    2    3    3    0    0 -0.19942559720E+02  0.30948062390E+02 -0.54479016372E+00  0.54367013454E+02  0.39999838771E+02 0.  0.
         12    1    3    3    0    0  0.19942559720E+02 -0.30948062390E+02  0.54479016372E+00  0.36820986546E+02  0.00000000000E+00 0. -1.
         11    1    4    4    0    0  0.17639151027E+01 -0.14870964993E+01 -0.55217085659E+01  0.59843227048E+01  0.51100000000E-03 0. -1.
        -11    1    4    4    0    0 -0.92336974896E+01  0.31556189252E+02  0.10775202851E+02  0.34599989106E+02  0.51100000000E-03 0.  1.
        -12    1    4    4    0    0 -0.12472777333E+02  0.87896963743E+00 -0.57982844484E+01  0.13782701643E+02  0.00000000000E+00 0.  1.
</event>
<event>
 8    1  0.1212194E-006  0.9118800E+02  0.7816164E-02  0.1184000E+00
        -11   -1    0    0    0    0  0.00000000000E+00  0.00000000000E+00  0.45593999997E+02  0.45594000000E+02  0.51100000000E-03 0. -1.
         11   -1    0    0    0    0 -0.00000000000E+00 -0.00000000000E+00 -0.45593999997E+02  0.45594000000E+02  0.51100000000E-03 0.  1.
         23    2    1    2    0    0 -0.35527136788E-14  0.00000000000E+00  0.00000000000E+00  0.91188000000E+02  0.91188000000E+02 0.  0.
    9900012    2    3    3    0    0 -0.11626105781E+02  0.32023353850E+02 -0.13968634040E+02  0.54367024125E+02  0.39999863098E+02 0.  0.
         12    1    3    3    0    0  0.11626105781E+02 -0.32023353850E+02  0.13968634040E+02  0.36820975875E+02  0.00000000000E+00 0. -1.
         11    1    4    4    0    0  0.51664193956E+01  0.21438981986E+02 -0.76640650443E+00  0.22066019513E+02  0.51100000000E-03 0. -1.
        -11    1    4    4    0    0 -0.36383962383E+01 -0.54891552842E+01 -0.89309911344E+01  0.11096456904E+02  0.51100000000E-03 0.  1.
         12    1    4    4    0    0 -0.13154128938E+02  0.16073527149E+02 -0.42712364008E+01  0.21204547708E+02  0.00000000000E+00 0. -1.
</event>
<event>
 8    1  0.1212194E-006  0.9118800E+02  0.7816164E-02  0.1184000E+00
        -11   -1    0    0    0    0  0.00000000000E+00  0.00000000000E+00  0.45593999997E+02  0.45594000000E+02  0.51100000000E-03 0.  1.
         11   -1    0    0    0    0 -0.00000000000E+00 -0.00000000000E+00 -0.45593999997E+02  0.45594000000E+02  0.51100000000E-03 0. -1.
         23    2    1    2    0    0 -0.17763568394E-14  0.00000000000E+00  0.71054273576E-14  0.91188000000E+02  0.91188000000E+02 0.  0.
    9900012    2    3    3    0    0 -0.15808353179E+02  0.42089238840E+01  0.32987280355E+02  0.54367085621E+02  0.40000003291E+02 0.  0.
         12    1    3    3    0    0  0.15808353179E+02 -0.42089238840E+01 -0.32987280355E+02  0.36820914379E+02  0.00000000000E+00 0. -1.
         11    1    4    4    0    0 -0.42429961633E+01  0.18421182197E+02  0.70602493952E+01  0.20178951702E+02  0.51100000000E-03 0. -1.
        -11    1    4    4    0    0 -0.17365924143E+01 -0.80735681670E+01  0.18925877715E+02  0.20649142929E+02  0.51100000000E-03 0.  1.
         12    1    4    4    0    0 -0.98287646010E+01 -0.61386901463E+01  0.70011532445E+01  0.13538990991E+02  0.00000000000E+00 0. -1.
</event>
<event>
 8    1  0.1212194E-006  0.9118800E+02  0.7816164E-02  0.1184000E+00
        -11   -1    0    0    0    0  0.00000000000E+00  0.00000000000E+00  0.45593999997E+02  0.45594000000E+02  0.51100000000E-03 0. -1.
         11   -1    0    0    0    0 -0.00000000000E+00 -0.00000000000E+00 -0.45593999997E+02  0.45594000000E+02  0.51100000000E-03 0.  1.
         23    2    1    2    0    0  0.00000000000E+00  0.00000000000E+00  0.00000000000E+00  0.91188000000E+02  0.91188000000E+02 0.  0.
    9900012    2    3    3    0    0  0.25281350005E+02  0.80936021614E+01  0.25517199802E+02  0.54367074702E+02  0.39999978399E+02 0.  0.
        -12    1    3    3    0    0 -0.25281350005E+02 -0.80936021614E+01 -0.25517199802E+02  0.36820925298E+02  0.00000000000E+00 0.  1.
         11    1    4    4    0    0  0.25502480766E+01 -0.68473374118E+01  0.19960031033E+01  0.75745510450E+01  0.51100000000E-03 0.  1.
        -11    1    4    4    0    0  0.17503689313E+02  0.49660060556E+01 -0.25695476889E+01  0.18375062757E+02  0.51100000000E-03 0. -1.
         12    1    4    4    0    0  0.52274126152E+01  0.99749335176E+01  0.26090744388E+02  0.28417460901E+02  0.00000000000E+00 0. -1.
</event>
<event>
 8    1  0.1212194E-006  0.9118800E+02  0.7816164E-02  0.1184000E+00
        -11   -1    0    0    0    0  0.00000000000E+00  0.00000000000E+00  0.45593999997E+02  0.45594000000E+02  0.51100000000E-03 0. -1.
         11   -1    0    0    0    0 -0.00000000000E+00 -0.00000000000E+00 -0.45593999997E+02  0.45594000000E+02  0.51100000000E-03 0.  1.
         23    2    1    2    0    0  0.35527136788E-14  0.00000000000E+00 -0.35527136788E-14  0.91188000000E+02  0.91188000000E+02 0.  0.
    9900012    2    3    3    0    0  0.30913517639E+02  0.52451857727E+01  0.19303678698E+02  0.54366952243E+02  0.39999699228E+02 0.  0.
        -12    1    3    3    0    0 -0.30913517639E+02 -0.52451857727E+01 -0.19303678698E+02  0.36821047757E+02  0.00000000000E+00 0.  1.
         11    1    4    4    0    0  0.21558197528E+02 -0.28581791530E+01  0.23734636763E+02  0.32190962260E+02  0.51100000000E-03 0. -1.
        -11    1    4    4    0    0  0.44051925119E+00  0.27231464284E+01 -0.99959880056E+01  0.10369636452E+02  0.51100000000E-03 0.  1.
        -12    1    4    4    0    0  0.89148008597E+01  0.53802184972E+01  0.55650299413E+01  0.11806353531E+02  0.00000000000E+00 0.  1.
</event>
<event>
 8    1  0.1212194E-006  0.9118800E+02  0.7816164E-02  0.1184000E+00
        -11   -1    0    0    0    0  0.00000000000E+00  0.00000000000E+00  0.45593999997E+02  0.45594000000E+02  0.51100000000E-03 0.  1.
         11   -1    0    0    0    0 -0.00000000000E+00 -0.00000000000E+00 -0.45593999997E+02  0.45594000000E+02  0.51100000000E-03 0. -1.
         23    2    1    2    0    0  0.00000000000E+00 -0.17763568394E-14  0.88817841970E-15  0.91188000000E+02  0.91188000000E+02 0.  0.
    9900012    2    3    3    0    0 -0.34901801479E+02  0.98645746525E+01 -0.63508256239E+01  0.54367101509E+02  0.40000039511E+02 0.  0.
        -12    1    3    3    0    0  0.34901801479E+02 -0.98645746525E+01  0.63508256239E+01  0.36820898491E+02  0.00000000000E+00 0.  1.
         11    1    4    4    0    0 -0.22674486167E+02  0.53851800515E+01  0.47202295619E+01  0.23778415727E+02  0.51100000000E-03 0. -1.
        -11    1    4    4    0    0 -0.17895399528E+02 -0.21978229177E+01 -0.22701191158E+01  0.18172209302E+02  0.51100000000E-03 0.  1.
        -12    1    4    4    0    0  0.56680842162E+01  0.66772175187E+01 -0.88009360700E+01  0.12416476480E+02  0.00000000000E+00 0.  1.
</event>
<event>
 8    1  0.1212194E-006  0.9118800E+02  0.7816164E-02  0.1184000E+00
        -11   -1    0    0    0    0  0.00000000000E+00  0.00000000000E+00  0.45593999997E+02  0.45594000000E+02  0.51100000000E-03 0. -1.
         11   -1    0    0    0    0 -0.00000000000E+00 -0.00000000000E+00 -0.45593999997E+02  0.45594000000E+02  0.51100000000E-03 0.  1.
         23    2    1    2    0    0  0.00000000000E+00  0.00000000000E+00 -0.35527136788E-14  0.91188000000E+02  0.91188000000E+02 0.  0.
    9900012    2    3    3    0    0  0.10960673147E+02 -0.26686526900E+02  0.22879194469E+02  0.54367290971E+02  0.40000471424E+02 0.  0.
         12    1    3    3    0    0 -0.10960673147E+02  0.26686526900E+02 -0.22879194469E+02  0.36820709029E+02  0.00000000000E+00 0. -1.
         11    1    4    4    0    0  0.84582506622E+01 -0.17153992238E+02  0.16563550471E+02  0.25301238279E+02  0.51100000000E-03 0. -1.
        -11    1    4    4    0    0  0.11572034918E+01  0.86301685377E+01 -0.21700703498E+01  0.89737469596E+01  0.51100000000E-03 0.  1.
        -12    1    4    4    0    0  0.13452189935E+01 -0.18162703200E+02  0.84857143476E+01  0.20092305733E+02  0.00000000000E+00 0.  1.
</event>
<event>
 8    1  0.1212194E-006  0.9118800E+02  0.7816164E-02  0.1184000E+00
        -11   -1    0    0    0    0  0.00000000000E+00  0.00000000000E+00  0.45593999997E+02  0.45594000000E+02  0.51100000000E-03 0. -1.
         11   -1    0    0    0    0 -0.00000000000E+00 -0.00000000000E+00 -0.45593999997E+02  0.45594000000E+02  0.51100000000E-03 0.  1.
         23    2    1    2    0    0  0.00000000000E+00  0.35527136788E-14  0.00000000000E+00  0.91188000000E+02  0.91188000000E+02 0.  0.
    9900012    2    3    3    0    0  0.10232462192E+02  0.17581236043E+02 -0.30691655460E+02  0.54367070378E+02  0.39999968542E+02 0.  0.
         12    1    3    3    0    0 -0.10232462192E+02 -0.17581236043E+02  0.30691655460E+02  0.36820929622E+02  0.00000000000E+00 0. -1.
         11    1    4    4    0    0 -0.14079870812E+01  0.39204966414E+01  0.18528321316E+01  0.45591346443E+01  0.51100000000E-03 0. -1.
        -11    1    4    4    0    0  0.10265767911E+02  0.23735049268E+02 -0.29422627521E+02  0.39171795530E+02  0.51100000000E-03 0.  1.
        -12    1    4    4    0    0  0.13746813622E+01 -0.10074309867E+02 -0.31218600708E+01  0.10636140204E+02  0.00000000000E+00 0.  1.
</event>
<event>
 8    1  0.1212194E-006  0.9118800E+02  0.7816164E-02  0.1184000E+00
        -11   -1    0    0    0    0  0.00000000000E+00  0.00000000000E+00  0.45593999997E+02  0.45594000000E+02  0.51100000000E-03 0. -1.
         11   -1    0    0    0    0 -0.00000000000E+00 -0.00000000000E+00 -0.45593999997E+02  0.45594000000E+02  0.51100000000E-03 0.  1.
         23    2    1    2    0    0  0.00000000000E+00  0.17763568394E-14  0.35527136788E-14  0.91188000000E+02  0.91188000000E+02 0.  0.
    9900012    2    3    3    0    0 -0.19096773067E+02 -0.46787009730E+01  0.31132033763E+02  0.54367075098E+02  0.39999979301E+02 0.  0.
        -12    1    3    3    0    0  0.19096773067E+02  0.46787009730E+01 -0.31132033763E+02  0.36820924902E+02  0.00000000000E+00 0.  1.
         11    1    4    4    0    0  0.63092563264E+00 -0.55953151752E+01  0.28435577298E+01  0.63080456472E+01  0.51100000000E-03 0. -1.
        -11    1    4    4    0    0 -0.63041534842E+01 -0.86738987824E+01 -0.42839773540E+01  0.11546918787E+02  0.51100000000E-03 0.  1.
         12    1    4    4    0    0 -0.13423545216E+02  0.95905129846E+01  0.32572453388E+02  0.36512110664E+02  0.00000000000E+00 0. -1.
</event>
<event>
 8    1  0.1212194E-006  0.9118800E+02  0.7816164E-02  0.1184000E+00
        -11   -1    0    0    0    0  0.00000000000E+00  0.00000000000E+00  0.45593999997E+02  0.45594000000E+02  0.51100000000E-03 0. -1.
         11   -1    0    0    0    0 -0.00000000000E+00 -0.00000000000E+00 -0.45593999997E+02  0.45594000000E+02  0.51100000000E-03 0.  1.
         23    2    1    2    0    0  0.35527136788E-14 -0.17763568394E-14  0.00000000000E+00  0.91188000000E+02  0.91188000000E+02 0.  0.
    9900012    2    3    3    0    0 -0.30665894884E+02 -0.13050850488E+02 -0.15654265149E+02  0.54367111569E+02  0.40000062444E+02 0.  0.
         12    1    3    3    0    0  0.30665894884E+02  0.13050850488E+02  0.15654265149E+02  0.36820888431E+02  0.00000000000E+00 0. -1.
         11    1    4    4    0    0 -0.22676575952E+02 -0.17312877666E+02 -0.10697957123E+02  0.30469806643E+02  0.51100000000E-03 0. -1.
        -11    1    4    4    0    0 -0.81665591611E+01 -0.60343664085E+01  0.33228561531E+01  0.10683989880E+02  0.51100000000E-03 0.  1.
         12    1    4    4    0    0  0.17724022943E+00  0.10296393587E+02 -0.82791641794E+01  0.13213315046E+02  0.00000000000E+00 0. -1.
</event>
<event>
 8    1  0.1212194E-006  0.9118800E+02  0.7816164E-02  0.1184000E+00
        -11   -1    0    0    0    0  0.00000000000E+00  0.00000000000E+00  0.45593999997E+02  0.45594000000E+02  0.51100000000E-03 0. -1.
         11   -1    0    0    0    0 -0.00000000000E+00 -0.00000000000E+00 -0.45593999997E+02  0.45594000000E+02  0.51100000000E-03 0.  1.
         23    2    1    2    0    0 -0.35527136788E-14  0.00000000000E+00  0.00000000000E+00  0.91188000000E+02  0.91188000000E+02 0.  0.
    9900012    2    3    3    0    0  0.30518183217E+02 -0.23616445886E+01  0.20465676328E+02  0.54367071445E+02  0.39999970974E+02 0.  0.
         12    1    3    3    0    0 -0.30518183217E+02  0.23616445886E+01 -0.20465676328E+02  0.36820928555E+02  0.00000000000E+00 0. -1.
         11    1    4    4    0    0  0.27096839058E+01 -0.56273684469E+01  0.11203414365E+02  0.12826774972E+02  0.51100000000E-03 0. -1.
        -11    1    4    4    0    0  0.10157677653E+02  0.94365545240E+01  0.16445099003E+02  0.21509724732E+02  0.51100000000E-03 0.  1.
        -12    1    4    4    0    0  0.17650821658E+02 -0.61708306656E+01 -0.71828370391E+01  0.20030571740E+02  0.00000000000E+00 0.  1.
</event>
<event>
 8    1  0.1212194E-006  0.9118800E+02  0.7816164E-02  0.1184000E+00
        -11   -1    0    0    0    0  0.00000000000E+00  0.00000000000E+00  0.45593999997E+02  0.45594000000E+02  0.51100000000E-03 0. -1.
         11   -1    0    0    0    0 -0.00000000000E+00 -0.00000000000E+00 -0.45593999997E+02  0.45594000000E+02  0.51100000000E-03 0.  1.
         23    2    1    2    0    0  0.00000000000E+00 -0.35527136788E-14  0.00000000000E+00  0.91188000000E+02  0.91188000000E+02 0.  0.
    9900012    2    3    3    0    0  0.26979539549E+02 -0.14546848110E+02 -0.20402771275E+02  0.54367089909E+02  0.40000013067E+02 0.  0.
         12    1    3    3    0    0 -0.26979539549E+02  0.14546848110E+02  0.20402771275E+02  0.36820910091E+02  0.00000000000E+00 0. -1.
         11    1    4    4    0    0  0.87980206226E+00 -0.97904342209E+01 -0.97178438977E+00  0.98778043645E+01  0.51100000000E-03 0. -1.
        -11    1    4    4    0    0 -0.34113236971E+01  0.29129129308E+01 -0.12415888857E+02  0.13201382029E+02  0.51100000000E-03 0.  1.
        -12    1    4    4    0    0  0.29511061184E+02 -0.76693268196E+01 -0.70150980278E+01  0.31287903516E+02  0.00000000000E+00 0.  1.
</event>
<event>
 8    1  0.1212194E-006  0.9118800E+02  0.7816164E-02  0.1184000E+00
        -11   -1    0    0    0    0  0.00000000000E+00  0.00000000000E+00  0.45593999997E+02  0.45594000000E+02  0.51100000000E-03 0.  1.
         11   -1    0    0    0    0 -0.00000000000E+00 -0.00000000000E+00 -0.45593999997E+02  0.45594000000E+02  0.51100000000E-03 0. -1.
         23    2    1    2    0    0 -0.17763568394E-14  0.35527136788E-14  0.00000000000E+00  0.91188000000E+02  0.91188000000E+02 0.  0.
    9900012    2    3    3    0    0 -0.86468016440E+01 -0.27285377285E+02  0.23162964690E+02  0.54367055886E+02  0.39999935502E+02 0.  0.
         12    1    3    3    0    0  0.86468016440E+01  0.27285377285E+02 -0.23162964690E+02  0.36820944114E+02  0.00000000000E+00 0. -1.
         11    1    4    4    0    0  0.51147396207E-02 -0.32219131732E+01  0.38081631703E+01  0.49882720103E+01  0.51100000000E-03 0. -1.
        -11    1    4    4    0    0  0.12698609158E+01 -0.25229354034E+02  0.26868255265E+02  0.36878665825E+02  0.51100000000E-03 0.  1.
         12    1    4    4    0    0 -0.99217772994E+01  0.11658899223E+01 -0.75134537461E+01  0.12500118051E+02  0.00000000000E+00 0. -1.
</event>
<event>
 8    1  0.1212194E-006  0.9118800E+02  0.7816164E-02  0.1184000E+00
        -11   -1    0    0    0    0  0.00000000000E+00  0.00000000000E+00  0.45593999997E+02  0.45594000000E+02  0.51100000000E-03 0.  1.
         11   -1    0    0    0    0 -0.00000000000E+00 -0.00000000000E+00 -0.45593999997E+02  0.45594000000E+02  0.51100000000E-03 0. -1.
         23    2    1    2    0    0  0.00000000000E+00  0.35527136788E-14  0.00000000000E+00  0.91188000000E+02  0.91188000000E+02 0.  0.
    9900012    2    3    3    0    0 -0.87937459992E+01  0.25762564582E+02 -0.24793950393E+02  0.54367086396E+02  0.40000005057E+02 0.  0.
        -12    1    3    3    0    0  0.87937459992E+01 -0.25762564582E+02  0.24793950393E+02  0.36820913604E+02  0.00000000000E+00 0.  1.
         11    1    4    4    0    0 -0.40117221986E+01  0.10338170188E+02 -0.13791084618E+01  0.11174686494E+02  0.51100000000E-03 0. -1.
        -11    1    4    4    0    0 -0.29614536676E+01  0.13420557981E+02  0.50180723188E+01  0.14630879481E+02  0.51100000000E-03 0.  1.
        -12    1    4    4    0    0 -0.18205701330E+01  0.20038364138E+01 -0.28432914250E+02  0.28561520420E+02  0.00000000000E+00 0.  1.
</event>
<event>
 8    1  0.1212194E-006  0.9118800E+02  0.7816164E-02  0.1184000E+00
        -11   -1    0    0    0    0  0.00000000000E+00  0.00000000000E+00  0.45593999997E+02  0.45594000000E+02  0.51100000000E-03 0.  1.
         11   -1    0    0    0    0 -0.00000000000E+00 -0.00000000000E+00 -0.45593999997E+02  0.45594000000E+02  0.51100000000E-03 0. -1.
         23    2    1    2    0    0 -0.35527136788E-14 -0.17763568394E-14  0.35527136788E-14  0.91188000000E+02  0.91188000000E+02 0.  0.
    9900012    2    3    3    0    0  0.20906583396E+02 -0.13439729958E+02  0.27167285086E+02  0.54367177771E+02  0.40000213365E+02 0.  0.
         12    1    3    3    0    0 -0.20906583396E+02  0.13439729958E+02 -0.27167285086E+02  0.36820822229E+02  0.00000000000E+00 0. -1.
         11    1    4    4    0    0  0.21391422456E+02  0.53870200849E+01  0.75290436227E+01  0.23308784572E+02  0.51100000000E-03 0. -1.
        -11    1    4    4    0    0  0.63770634550E+01 -0.10759939259E+02  0.14906596905E+02  0.19458927584E+02  0.51100000000E-03 0.  1.
         12    1    4    4    0    0 -0.68619025143E+01 -0.80668107844E+01  0.47316445578E+01  0.11599465616E+02  0.00000000000E+00 0. -1.
</event>
<event>
 8    1  0.1212194E-006  0.9118800E+02  0.7816164E-02  0.1184000E+00
        -11   -1    0    0    0    0  0.00000000000E+00  0.00000000000E+00  0.45593999997E+02  0.45594000000E+02  0.51100000000E-03 0.  1.
         11   -1    0    0    0    0 -0.00000000000E+00 -0.00000000000E+00 -0.45593999997E+02  0.45594000000E+02  0.51100000000E-03 0. -1.
         23    2    1    2    0    0  0.00000000000E+00 -0.15543122345E-14  0.00000000000E+00  0.91188000000E+02  0.91188000000E+02 0.  0.
    9900012    2    3    3    0    0 -0.26857769995E+02 -0.16593564930E+01 -0.25133326803E+02  0.54367117484E+02  0.40000075929E+02 0.  0.
        -12    1    3    3    0    0  0.26857769995E+02  0.16593564930E+01  0.25133326803E+02  0.36820882516E+02  0.00000000000E+00 0.  1.
         11    1    4    4    0    0 -0.13592763137E+01  0.44999068761E+01  0.25533233213E+01  0.53494162518E+01  0.51100000000E-03 0. -1.
        -11    1    4    4    0    0 -0.27470591174E+02 -0.14881018462E+02 -0.23764525638E+02  0.39253417290E+02  0.51100000000E-03 0.  1.
        -12    1    4    4    0    0  0.19720974926E+01  0.87217550928E+01 -0.39221244862E+01  0.97642839422E+01  0.00000000000E+00 0.  1.
</event>
<event>
 8    1  0.1212194E-006  0.9118800E+02  0.7816164E-02  0.1184000E+00
        -11   -1    0    0    0    0  0.00000000000E+00  0.00000000000E+00  0.45593999997E+02  0.45594000000E+02  0.51100000000E-03 0. -1.
         11   -1    0    0    0    0 -0.00000000000E+00 -0.00000000000E+00 -0.45593999997E+02  0.45594000000E+02  0.51100000000E-03 0.  1.
         23    2    1    2    0    0 -0.17763568394E-14  0.00000000000E+00 -0.71054273576E-14  0.91188000000E+02  0.91188000000E+02 0.  0.
    9900012    2    3    3    0    0 -0.51210035225E+01 -0.16062896685E+02 -0.32734333569E+02  0.54367110261E+02  0.40000059461E+02 0.  0.
         12    1    3    3    0    0  0.51210035225E+01  0.16062896685E+02  0.32734333569E+02  0.36820889739E+02  0.00000000000E+00 0. -1.
         11    1    4    4    0    0  0.49578927559E+01 -0.12111701594E+02 -0.17069118761E+02  0.21508808233E+02  0.51100000000E-03 0. -1.
        -11    1    4    4    0    0 -0.12056737114E+02 -0.12831542938E+02 -0.15947824079E+02  0.23755978135E+02  0.51100000000E-03 0.  1.
         12    1    4    4    0    0  0.19778408360E+01  0.88803478468E+01  0.28260927060E+00  0.91023238929E+01  0.00000000000E+00 0. -1.
</event>
<event>
 8    1  0.1212194E-006  0.9118800E+02  0.7816164E-02  0.1184000E+00
        -11   -1    0    0    0    0  0.00000000000E+00  0.00000000000E+00  0.45593999997E+02  0.45594000000E+02  0.51100000000E-03 0. -1.
         11   -1    0    0    0    0 -0.00000000000E+00 -0.00000000000E+00 -0.45593999997E+02  0.45594000000E+02  0.51100000000E-03 0.  1.
         23    2    1    2    0    0  0.00000000000E+00  0.00000000000E+00  0.00000000000E+00  0.91188000000E+02  0.91188000000E+02 0.  0.
    9900012    2    3    3    0    0 -0.30822043289E+02  0.10538271755E+02 -0.17167680263E+02  0.54367044422E+02  0.39999909368E+02 0.  0.
         12    1    3    3    0    0  0.30822043289E+02 -0.10538271755E+02  0.17167680263E+02  0.36820955578E+02  0.00000000000E+00 0. -1.
         11    1    4    4    0    0 -0.18500939719E+02  0.12647917767E+02  0.55693385429E+01  0.23092685561E+02  0.51100000000E-03 0. -1.
        -11    1    4    4    0    0 -0.39897155266E+01 -0.71807741494E+01 -0.21463043522E+01  0.84904634739E+01  0.51100000000E-03 0.  1.
        -12    1    4    4    0    0 -0.83313880435E+01  0.50711281369E+01 -0.20590714454E+02  0.22783895387E+02  0.00000000000E+00 0.  1.
</event>
<event>
 8    1  0.1212194E-006  0.9118800E+02  0.7816164E-02  0.1184000E+00
        -11   -1    0    0    0    0  0.00000000000E+00  0.00000000000E+00  0.45593999997E+02  0.45594000000E+02  0.51100000000E-03 0.  1.
         11   -1    0    0    0    0 -0.00000000000E+00 -0.00000000000E+00 -0.45593999997E+02  0.45594000000E+02  0.51100000000E-03 0. -1.
         23    2    1    2    0    0 -0.17763568394E-14  0.88817841970E-15 -0.71054273576E-14  0.91188000000E+02  0.91188000000E+02 0.  0.
    9900012    2    3    3    0    0  0.15185378941E+02  0.20082770268E+01  0.33483643379E+02  0.54367037436E+02  0.39999893444E+02 0.  0.
         12    1    3    3    0    0 -0.15185378941E+02 -0.20082770268E+01 -0.33483643379E+02  0.36820962564E+02  0.00000000000E+00 0. -1.
         11    1    4    4    0    0  0.12099503638E+02  0.11330687842E+02  0.11876834363E+02  0.20392196301E+02  0.51100000000E-03 0. -1.
        -11    1    4    4    0    0  0.36647326916E+01  0.17018199396E+01  0.22536956878E+02  0.22896307178E+02  0.51100000000E-03 0.  1.
        -12    1    4    4    0    0 -0.57885738781E+00 -0.11024230754E+02 -0.93014786194E+00  0.11078533958E+02  0.00000000000E+00 0.  1.
</event>
<event>
 8    1  0.1212194E-006  0.9118800E+02  0.7816164E-02  0.1184000E+00
        -11   -1    0    0    0    0  0.00000000000E+00  0.00000000000E+00  0.45593999997E+02  0.45594000000E+02  0.51100000000E-03 0.  1.
         11   -1    0    0    0    0 -0.00000000000E+00 -0.00000000000E+00 -0.45593999997E+02  0.45594000000E+02  0.51100000000E-03 0. -1.
         23    2    1    2    0    0  0.17763568394E-14  0.00000000000E+00  0.35527136788E-14  0.91188000000E+02  0.91188000000E+02 0.  0.
    9900012    2    3    3    0    0  0.13789227547E+02 -0.20568095651E+02  0.27250449789E+02  0.54367131342E+02  0.40000107520E+02 0.  0.
        -12    1    3    3    0    0 -0.13789227547E+02  0.20568095651E+02 -0.27250449789E+02  0.36820868658E+02  0.00000000000E+00 0.  1.
         11    1    4    4    0    0  0.17888390805E+02 -0.10415213073E+01  0.43194415346E+01  0.18431952356E+02  0.51100000000E-03 0. -1.
        -11    1    4    4    0    0 -0.88528397516E+01 -0.54584844722E+01  0.25328093652E+01  0.10704342481E+02  0.51100000000E-03 0.  1.
         12    1    4    4    0    0  0.47536764930E+01 -0.14068089871E+02  0.20398198889E+02  0.25230836505E+02  0.00000000000E+00 0. -1.
</event>
<event>
 8    1  0.1212194E-006  0.9118800E+02  0.7816164E-02  0.1184000E+00
        -11   -1    0    0    0    0  0.00000000000E+00  0.00000000000E+00  0.45593999997E+02  0.45594000000E+02  0.51100000000E-03 0. -1.
         11   -1    0    0    0    0 -0.00000000000E+00 -0.00000000000E+00 -0.45593999997E+02  0.45594000000E+02  0.51100000000E-03 0.  1.
         23    2    1    2    0    0  0.00000000000E+00  0.35527136788E-14 -0.53290705182E-14  0.91188000000E+02  0.91188000000E+02 0.  0.
    9900012    2    3    3    0    0 -0.28934898698E+02 -0.20340206999E+02  0.10238316702E+02  0.54367142971E+02  0.40000134032E+02 0.  0.
        -12    1    3    3    0    0  0.28934898698E+02  0.20340206999E+02 -0.10238316702E+02  0.36820857029E+02  0.00000000000E+00 0.  1.
         11    1    4    4    0    0 -0.18142756939E+02 -0.11861255544E+02  0.10611239415E+02  0.24133947348E+02  0.51100000000E-03 0. -1.
        -11    1    4    4    0    0 -0.47435084221E-01 -0.24123011866E+01 -0.12619679574E+02  0.12848259022E+02  0.51100000000E-03 0.  1.
        -12    1    4    4    0    0 -0.10744706675E+02 -0.60666502680E+01  0.12246756861E+02  0.17384936601E+02  0.00000000000E+00 0.  1.
</event>
<event>
 8    1  0.1212194E-006  0.9118800E+02  0.7816164E-02  0.1184000E+00
        -11   -1    0    0    0    0  0.00000000000E+00  0.00000000000E+00  0.45593999997E+02  0.45594000000E+02  0.51100000000E-03 0.  1.
         11   -1    0    0    0    0 -0.00000000000E+00 -0.00000000000E+00 -0.45593999997E+02  0.45594000000E+02  0.51100000000E-03 0. -1.
         23    2    1    2    0    0 -0.35527136788E-14  0.00000000000E+00  0.35527136788E-14  0.91188000000E+02  0.91188000000E+02 0.  0.
    9900012    2    3    3    0    0  0.21916610561E+02  0.21828430871E+02 -0.19974020046E+02  0.54367086248E+02  0.40000004718E+02 0.  0.
        -12    1    3    3    0    0 -0.21916610561E+02 -0.21828430871E+02  0.19974020046E+02  0.36820913752E+02  0.00000000000E+00 0.  1.
         11    1    4    4    0    0 -0.54756818371E+01  0.70141447356E+01 -0.18051143620E+02  0.20125235507E+02  0.51100000000E-03 0. -1.
        -11    1    4    4    0    0  0.11145812400E+02  0.37649970251E+01  0.58175581271E+01  0.13124340725E+02  0.51100000000E-03 0.  1.
         12    1    4    4    0    0  0.16246479998E+02  0.11049289111E+02 -0.77404345529E+01  0.21117510015E+02  0.00000000000E+00 0. -1.
</event>
<event>
 8    1  0.1212194E-006  0.9118800E+02  0.7816164E-02  0.1184000E+00
        -11   -1    0    0    0    0  0.00000000000E+00  0.00000000000E+00  0.45593999997E+02  0.45594000000E+02  0.51100000000E-03 0. -1.
         11   -1    0    0    0    0 -0.00000000000E+00 -0.00000000000E+00 -0.45593999997E+02  0.45594000000E+02  0.51100000000E-03 0.  1.
         23    2    1    2    0    0 -0.71054273576E-14 -0.44408920985E-15  0.00000000000E+00  0.91188000000E+02  0.91188000000E+02 0.  0.
    9900012    2    3    3    0    0 -0.21573961584E+02  0.27621963822E+01 -0.29710489032E+02  0.54367099606E+02  0.40000035172E+02 0.  0.
         12    1    3    3    0    0  0.21573961584E+02 -0.27621963822E+01  0.29710489032E+02  0.36820900394E+02  0.00000000000E+00 0. -1.
         11    1    4    4    0    0 -0.26563602690E+01 -0.15568870551E+01 -0.40669199188E+01  0.51009788343E+01  0.51100000000E-03 0. -1.
        -11    1    4    4    0    0 -0.27580702029E+02 -0.63115321184E+01 -0.16036311643E+02  0.32522205544E+02  0.51100000000E-03 0.  1.
         12    1    4    4    0    0  0.86631007135E+01  0.10630615556E+02 -0.96072574700E+01  0.16743915228E+02  0.00000000000E+00 0. -1.
</event>
<event>
 8    1  0.1212194E-006  0.9118800E+02  0.7816164E-02  0.1184000E+00
        -11   -1    0    0    0    0  0.00000000000E+00  0.00000000000E+00  0.45593999997E+02  0.45594000000E+02  0.51100000000E-03 0.  1.
         11   -1    0    0    0    0 -0.00000000000E+00 -0.00000000000E+00 -0.45593999997E+02  0.45594000000E+02  0.51100000000E-03 0. -1.
         23    2    1    2    0    0  0.00000000000E+00  0.00000000000E+00  0.00000000000E+00  0.91188000000E+02  0.91188000000E+02 0.  0.
    9900012    2    3    3    0    0 -0.10048158177E+02  0.52415995407E+01  0.35033415529E+02  0.54367081324E+02  0.39999993494E+02 0.  0.
         12    1    3    3    0    0  0.10048158177E+02 -0.52415995407E+01 -0.35033415529E+02  0.36820918676E+02  0.00000000000E+00 0. -1.
         11    1    4    4    0    0 -0.24309915268E+01 -0.76582676952E+00 -0.40663467980E+01  0.47991027273E+01  0.51100000000E-03 0. -1.
        -11    1    4    4    0    0 -0.15135082212E+02  0.93775176839E+01  0.12586934790E+02  0.21804574729E+02  0.51100000000E-03 0.  1.
         12    1    4    4    0    0  0.75179155615E+01 -0.33700913737E+01  0.26512827538E+02  0.27763403867E+02  0.00000000000E+00 0. -1.
</event>
<event>
 8    1  0.1212194E-006  0.9118800E+02  0.7816164E-02  0.1184000E+00
        -11   -1    0    0    0    0  0.00000000000E+00  0.00000000000E+00  0.45593999997E+02  0.45594000000E+02  0.51100000000E-03 0. -1.
         11   -1    0    0    0    0 -0.00000000000E+00 -0.00000000000E+00 -0.45593999997E+02  0.45594000000E+02  0.51100000000E-03 0.  1.
         23    2    1    2    0    0  0.00000000000E+00 -0.35527136788E-14  0.26645352591E-14  0.91188000000E+02  0.91188000000E+02 0.  0.
    9900012    2    3    3    0    0  0.17801904507E+02 -0.31436728668E+02 -0.71136030583E+01  0.54367094771E+02  0.40000024150E+02 0.  0.
         12    1    3    3    0    0 -0.17801904507E+02  0.31436728668E+02  0.71136030583E+01  0.36820905229E+02  0.00000000000E+00 0. -1.
         11    1    4    4    0    0 -0.33230980306E+01 -0.42147058863E+01  0.83297543815E+01  0.99091641699E+01  0.51100000000E-03 0. -1.
        -11    1    4    4    0    0  0.28217023180E+01  0.43012427325E+01 -0.95313541087E+00  0.52317454437E+01  0.51100000000E-03 0.  1.
        -12    1    4    4    0    0  0.18303300219E+02 -0.31523265514E+02 -0.14490222029E+02  0.39226185158E+02  0.00000000000E+00 0.  1.
</event>
<event>
 8    1  0.1212194E-006  0.9118800E+02  0.7816164E-02  0.1184000E+00
        -11   -1    0    0    0    0  0.00000000000E+00  0.00000000000E+00  0.45593999997E+02  0.45594000000E+02  0.51100000000E-03 0.  1.
         11   -1    0    0    0    0 -0.00000000000E+00 -0.00000000000E+00 -0.45593999997E+02  0.45594000000E+02  0.51100000000E-03 0. -1.
         23    2    1    2    0    0  0.00000000000E+00  0.00000000000E+00  0.66613381478E-15  0.91188000000E+02  0.91188000000E+02 0.  0.
    9900012    2    3    3    0    0 -0.25650871222E+02  0.26376870871E+02 -0.14402527618E+01  0.54367070634E+02  0.39999969124E+02 0.  0.
        -12    1    3    3    0    0  0.25650871222E+02 -0.26376870871E+02  0.14402527618E+01  0.36820929366E+02  0.00000000000E+00 0.  1.
         11    1    4    4    0    0 -0.89252960507E+01  0.79347173476E+01  0.41688306467E+01  0.12649102664E+02  0.51100000000E-03 0. -1.
        -11    1    4    4    0    0  0.85232664517E+01  0.74854466737E+01  0.47654347766E+01  0.12303956753E+02  0.51100000000E-03 0.  1.
         12    1    4    4    0    0 -0.25248841623E+02  0.10956706849E+02 -0.10374518185E+02  0.29414011217E+02  0.00000000000E+00 0. -1.
</event>
<event>
 8    1  0.1212194E-006  0.9118800E+02  0.7816164E-02  0.1184000E+00
        -11   -1    0    0    0    0  0.00000000000E+00  0.00000000000E+00  0.45593999997E+02  0.45594000000E+02  0.51100000000E-03 0. -1.
         11   -1    0    0    0    0 -0.00000000000E+00 -0.00000000000E+00 -0.45593999997E+02  0.45594000000E+02  0.51100000000E-03 0.  1.
         23    2    1    2    0    0  0.00000000000E+00  0.00000000000E+00  0.88817841970E-15  0.91188000000E+02  0.91188000000E+02 0.  0.
    9900012    2    3    3    0    0 -0.24517653698E+02  0.27204277987E+02 -0.38199781356E+01  0.54367077733E+02  0.39999985308E+02 0.  0.
         12    1    3    3    0    0  0.24517653698E+02 -0.27204277987E+02  0.38199781356E+01  0.36820922267E+02  0.00000000000E+00 0. -1.
         11    1    4    4    0    0 -0.28848446656E+02  0.92526502696E+01 -0.10117983820E+02  0.31940851716E+02  0.51100000000E-03 0.  1.
        -11    1    4    4    0    0  0.85541433407E+00  0.11462700712E+02  0.89855892828E+01  0.14589929963E+02  0.51100000000E-03 0. -1.
         12    1    4    4    0    0  0.34753786243E+01  0.64889270052E+01 -0.26875835985E+01  0.78362960549E+01  0.00000000000E+00 0. -1.
</event>
<event>
 8    1  0.1212194E-006  0.9118800E+02  0.7816164E-02  0.1184000E+00
        -11   -1    0    0    0    0  0.00000000000E+00  0.00000000000E+00  0.45593999997E+02  0.45594000000E+02  0.51100000000E-03 0.  1.
         11   -1    0    0    0    0 -0.00000000000E+00 -0.00000000000E+00 -0.45593999997E+02  0.45594000000E+02  0.51100000000E-03 0. -1.
         23    2    1    2    0    0  0.00000000000E+00  0.17763568394E-14  0.00000000000E+00  0.91188000000E+02  0.91188000000E+02 0.  0.
    9900012    2    3    3    0    0  0.31429487197E+02  0.11350174170E+02 -0.15464109667E+02  0.54367111812E+02  0.40000062998E+02 0.  0.
        -12    1    3    3    0    0 -0.31429487197E+02 -0.11350174170E+02  0.15464109667E+02  0.36820888188E+02  0.00000000000E+00 0.  1.
         11    1    4    4    0    0  0.37864722227E+01  0.29714168844E+01 -0.78354036212E+01  0.91956642153E+01  0.51100000000E-03 0. -1.
        -11    1    4    4    0    0  0.11706410941E+02  0.81441958172E+01 -0.20301033021E+02  0.24809270941E+02  0.51100000000E-03 0.  1.
        -12    1    4    4    0    0  0.15936604033E+02  0.23456146825E+00  0.12672326975E+02  0.20362176656E+02  0.00000000000E+00 0.  1.
</event>
<event>
 8    1  0.1212194E-006  0.9118800E+02  0.7816164E-02  0.1184000E+00
        -11   -1    0    0    0    0  0.00000000000E+00  0.00000000000E+00  0.45593999997E+02  0.45594000000E+02  0.51100000000E-03 0.  1.
         11   -1    0    0    0    0 -0.00000000000E+00 -0.00000000000E+00 -0.45593999997E+02  0.45594000000E+02  0.51100000000E-03 0. -1.
         23    2    1    2    0    0  0.00000000000E+00  0.00000000000E+00 -0.35527136788E-14  0.91188000000E+02  0.91188000000E+02 0.  0.
    9900012    2    3    3    0    0 -0.20252408978E+02 -0.21551164974E+02 -0.21935534768E+02  0.54367075694E+02  0.39999980661E+02 0.  0.
        -12    1    3    3    0    0  0.20252408978E+02  0.21551164974E+02  0.21935534768E+02  0.36820924306E+02  0.00000000000E+00 0.  1.
         11    1    4    4    0    0 -0.34497133047E+01 -0.83884359944E+01 -0.84336494120E+01  0.12385185626E+02  0.51100000000E-03 0. -1.
        -11    1    4    4    0    0 -0.24280174694E+02 -0.59827705442E+01 -0.59411275624E-01  0.25006478291E+02  0.51100000000E-03 0.  1.
        -12    1    4    4    0    0  0.74774790202E+01 -0.71799584354E+01 -0.13442474080E+02  0.16975411778E+02  0.00000000000E+00 0.  1.
</event>
<event>
 8    1  0.1212194E-006  0.9118800E+02  0.7816164E-02  0.1184000E+00
        -11   -1    0    0    0    0  0.00000000000E+00  0.00000000000E+00  0.45593999997E+02  0.45594000000E+02  0.51100000000E-03 0.  1.
         11   -1    0    0    0    0 -0.00000000000E+00 -0.00000000000E+00 -0.45593999997E+02  0.45594000000E+02  0.51100000000E-03 0. -1.
         23    2    1    2    0    0  0.17763568394E-14  0.00000000000E+00 -0.17763568394E-14  0.91188000000E+02  0.91188000000E+02 0.  0.
    9900012    2    3    3    0    0  0.15941373919E+02 -0.32038836526E+02 -0.86697866383E+01  0.54367086802E+02  0.40000005983E+02 0.  0.
        -12    1    3    3    0    0 -0.15941373919E+02  0.32038836526E+02  0.86697866383E+01  0.36820913198E+02  0.00000000000E+00 0.  1.
         11    1    4    4    0    0  0.20748296049E+01 -0.25058660556E+02 -0.69742475680E+01  0.26093706447E+02  0.51100000000E-03 0.  1.
        -11    1    4    4    0    0 -0.10216386731E+01 -0.92320898665E+00 -0.10060192516E+02  0.10153991045E+02  0.51100000000E-03 0. -1.
        -12    1    4    4    0    0  0.14888182987E+02 -0.60569669831E+01  0.83646534462E+01  0.18119389310E+02  0.00000000000E+00 0.  1.
</event>
<event>
 8    1  0.1212194E-006  0.9118800E+02  0.7816164E-02  0.1184000E+00
        -11   -1    0    0    0    0  0.00000000000E+00  0.00000000000E+00  0.45593999997E+02  0.45594000000E+02  0.51100000000E-03 0. -1.
         11   -1    0    0    0    0 -0.00000000000E+00 -0.00000000000E+00 -0.45593999997E+02  0.45594000000E+02  0.51100000000E-03 0.  1.
         23    2    1    2    0    0  0.00000000000E+00  0.00000000000E+00  0.00000000000E+00  0.91188000000E+02  0.91188000000E+02 0.  0.
    9900012    2    3    3    0    0 -0.34750156665E+02 -0.99507789843E+01 -0.70134032523E+01  0.54367092680E+02  0.40000019383E+02 0.  0.
         12    1    3    3    0    0  0.34750156665E+02  0.99507789843E+01  0.70134032523E+01  0.36820907320E+02  0.00000000000E+00 0. -1.
         11    1    4    4    0    0 -0.35404970944E+01 -0.42774214688E+01  0.11062901270E+02  0.12378175910E+02  0.51100000000E-03 0. -1.
        -11    1    4    4    0    0 -0.69162926140E+01  0.56776215533E+01 -0.11145837600E+02  0.14293361609E+02  0.51100000000E-03 0.  1.
         12    1    4    4    0    0 -0.24293366957E+02 -0.11350979069E+02 -0.69304669220E+01  0.27695555161E+02  0.00000000000E+00 0. -1.
</event>
<event>
 8    1  0.1212194E-006  0.9118800E+02  0.7816164E-02  0.1184000E+00
        -11   -1    0    0    0    0  0.00000000000E+00  0.00000000000E+00  0.45593999997E+02  0.45594000000E+02  0.51100000000E-03 0. -1.
         11   -1    0    0    0    0 -0.00000000000E+00 -0.00000000000E+00 -0.45593999997E+02  0.45594000000E+02  0.51100000000E-03 0.  1.
         23    2    1    2    0    0  0.71054273576E-14  0.00000000000E+00 -0.71054273576E-14  0.91188000000E+02  0.91188000000E+02 0.  0.
    9900012    2    3    3    0    0  0.26140360301E+02  0.45878468187E+01  0.25522811652E+02  0.54367072667E+02  0.39999973759E+02 0.  0.
        -12    1    3    3    0    0 -0.26140360301E+02 -0.45878468187E+01 -0.25522811652E+02  0.36820927333E+02  0.00000000000E+00 0.  1.
         11    1    4    4    0    0  0.11661335451E+02  0.35193548695E+01  0.26113803282E+02  0.28814984388E+02  0.51100000000E-03 0. -1.
        -11    1    4    4    0    0 -0.45661766427E+01  0.25050403505E+01  0.31544732631E+01  0.60889981211E+01  0.51100000000E-03 0.  1.
        -12    1    4    4    0    0  0.19045201493E+02 -0.14365484014E+01 -0.37454648935E+01  0.19463090157E+02  0.00000000000E+00 0.  1.
</event>
<event>
 8    1  0.1212194E-006  0.9118800E+02  0.7816164E-02  0.1184000E+00
        -11   -1    0    0    0    0  0.00000000000E+00  0.00000000000E+00  0.45593999997E+02  0.45594000000E+02  0.51100000000E-03 0. -1.
         11   -1    0    0    0    0 -0.00000000000E+00 -0.00000000000E+00 -0.45593999997E+02  0.45594000000E+02  0.51100000000E-03 0.  1.
         23    2    1    2    0    0  0.13322676296E-14 -0.17763568394E-14 -0.71054273576E-14  0.91188000000E+02  0.91188000000E+02 0.  0.
    9900012    2    3    3    0    0  0.38290987363E+01  0.15973685475E+02 -0.32953889861E+02  0.54367089070E+02  0.40000011152E+02 0.  0.
         12    1    3    3    0    0 -0.38290987363E+01 -0.15973685475E+02  0.32953889861E+02  0.36820910930E+02  0.00000000000E+00 0. -1.
         11    1    4    4    0    0 -0.40683088628E+01  0.18449676608E+01 -0.16898677666E+02  0.17479140419E+02  0.51100000000E-03 0. -1.
        -11    1    4    4    0    0  0.98600210571E+01  0.14629188631E+02 -0.23379479256E+02  0.29288790105E+02  0.51100000000E-03 0.  1.
         12    1    4    4    0    0 -0.19626134579E+01 -0.50047081700E+00  0.73242670610E+01  0.75991585458E+01  0.00000000000E+00 0. -1.
</event>
<event>
 8    1  0.1212194E-006  0.9118800E+02  0.7816164E-02  0.1184000E+00
        -11   -1    0    0    0    0  0.00000000000E+00  0.00000000000E+00  0.45593999997E+02  0.45594000000E+02  0.51100000000E-03 0. -1.
         11   -1    0    0    0    0 -0.00000000000E+00 -0.00000000000E+00 -0.45593999997E+02  0.45594000000E+02  0.51100000000E-03 0.  1.
         23    2    1    2    0    0  0.00000000000E+00  0.00000000000E+00  0.22204460493E-15  0.91188000000E+02  0.91188000000E+02 0.  0.
    9900012    2    3    3    0    0 -0.30368467918E+02  0.20814855312E+02  0.52571304881E+00  0.54367103494E+02  0.40000044034E+02 0.  0.
         12    1    3    3    0    0  0.30368467918E+02 -0.20814855312E+02 -0.52571304881E+00  0.36820896506E+02  0.00000000000E+00 0. -1.
         11    1    4    4    0    0  0.64092285564E+01  0.14245065989E+01  0.78404370704E+01  0.10226430631E+02  0.51100000000E-03 0. -1.
        -11    1    4    4    0    0 -0.17285638404E+02  0.27810294636E+01 -0.59656130592E+01  0.18496376925E+02  0.51100000000E-03 0.  1.
         12    1    4    4    0    0 -0.19492058070E+02  0.16609319249E+02 -0.13491109624E+01  0.25644295937E+02  0.00000000000E+00 0. -1.
</event>
<event>
 8    1  0.1212194E-006  0.9118800E+02  0.7816164E-02  0.1184000E+00
        -11   -1    0    0    0    0  0.00000000000E+00  0.00000000000E+00  0.45593999997E+02  0.45594000000E+02  0.51100000000E-03 0.  1.
         11   -1    0    0    0    0 -0.00000000000E+00 -0.00000000000E+00 -0.45593999997E+02  0.45594000000E+02  0.51100000000E-03 0. -1.
         23    2    1    2    0    0 -0.17763568394E-14  0.35527136788E-14  0.00000000000E+00  0.91188000000E+02  0.91188000000E+02 0.  0.
    9900012    2    3    3    0    0 -0.11831279856E+02 -0.18924156677E+02  0.29286104228E+02  0.54367098465E+02  0.40000032571E+02 0.  0.
         12    1    3    3    0    0  0.11831279856E+02  0.18924156677E+02 -0.29286104228E+02  0.36820901535E+02  0.00000000000E+00 0. -1.
         11    1    4    4    0    0 -0.18364469421E+02 -0.26617734018E+02  0.16037636775E+02  0.36096582872E+02  0.51100000000E-03 0. -1.
        -11    1    4    4    0    0  0.56487051957E+01  0.17435134951E+01  0.94798067681E+01  0.11172038593E+02  0.51100000000E-03 0.  1.
         12    1    4    4    0    0  0.88448436970E+00  0.59500638463E+01  0.37686606848E+01  0.70984770010E+01  0.00000000000E+00 0. -1.
</event>
<event>
 8    1  0.1212194E-006  0.9118800E+02  0.7816164E-02  0.1184000E+00
        -11   -1    0    0    0    0  0.00000000000E+00  0.00000000000E+00  0.45593999997E+02  0.45594000000E+02  0.51100000000E-03 0. -1.
         11   -1    0    0    0    0 -0.00000000000E+00 -0.00000000000E+00 -0.45593999997E+02  0.45594000000E+02  0.51100000000E-03 0.  1.
         23    2    1    2    0    0 -0.88817841970E-15  0.00000000000E+00  0.00000000000E+00  0.91188000000E+02  0.91188000000E+02 0.  0.
    9900012    2    3    3    0    0 -0.73753123810E+01 -0.32064035897E+02  0.16531450803E+02  0.54366993816E+02  0.39999794003E+02 0.  0.
        -12    1    3    3    0    0  0.73753123810E+01  0.32064035897E+02 -0.16531450803E+02  0.36821006184E+02  0.00000000000E+00 0.  1.
         11    1    4    4    0    0  0.33493055795E+01 -0.39422242414E+01 -0.56388190201E+01  0.76521408793E+01  0.51100000000E-03 0. -1.
        -11    1    4    4    0    0 -0.10490028812E+02 -0.26055132326E+02  0.39355975087E+01  0.28361938457E+02  0.51100000000E-03 0.  1.
         12    1    4    4    0    0 -0.23458914842E+00 -0.20666793295E+01  0.18234672314E+02  0.18352914481E+02  0.00000000000E+00 0. -1.
</event>
<event>
 8    1  0.1212194E-006  0.9118800E+02  0.7816164E-02  0.1184000E+00
        -11   -1    0    0    0    0  0.00000000000E+00  0.00000000000E+00  0.45593999997E+02  0.45594000000E+02  0.51100000000E-03 0.  1.
         11   -1    0    0    0    0 -0.00000000000E+00 -0.00000000000E+00 -0.45593999997E+02  0.45594000000E+02  0.51100000000E-03 0. -1.
         23    2    1    2    0    0 -0.17763568394E-14  0.00000000000E+00 -0.71054273576E-14  0.91188000000E+02  0.91188000000E+02 0.  0.
    9900012    2    3    3    0    0  0.12036810359E+02  0.57078755871E+01 -0.34326608730E+02  0.54367072333E+02  0.39999972997E+02 0.  0.
        -12    1    3    3    0    0 -0.12036810359E+02 -0.57078755871E+01  0.34326608730E+02  0.36820927667E+02  0.00000000000E+00 0.  1.
         11    1    4    4    0    0 -0.12389677236E+02  0.67415768937E+01 -0.10238561215E+02  0.17429317171E+02  0.51100000000E-03 0.  1.
        -11    1    4    4    0    0  0.36370247399E+01 -0.53809314644E+01 -0.35922718110E+01  0.74220475213E+01  0.51100000000E-03 0. -1.
        -12    1    4    4    0    0  0.20789462855E+02  0.43472301578E+01 -0.20495775704E+02  0.29515707641E+02  0.00000000000E+00 0.  1.
</event>
<event>
 8    1  0.1212194E-006  0.9118800E+02  0.7816164E-02  0.1184000E+00
        -11   -1    0    0    0    0  0.00000000000E+00  0.00000000000E+00  0.45593999997E+02  0.45594000000E+02  0.51100000000E-03 0.  1.
         11   -1    0    0    0    0 -0.00000000000E+00 -0.00000000000E+00 -0.45593999997E+02  0.45594000000E+02  0.51100000000E-03 0. -1.
         23    2    1    2    0    0 -0.23822090134E-14  0.00000000000E+00  0.71054273576E-14  0.91188000000E+02  0.91188000000E+02 0.  0.
    9900012    2    3    3    0    0  0.20840461405E-02  0.58550594676E+01  0.36352423846E+02  0.54367075987E+02  0.39999981328E+02 0.  0.
         12    1    3    3    0    0 -0.20840461406E-02 -0.58550594676E+01 -0.36352423846E+02  0.36820924013E+02  0.00000000000E+00 0. -1.
         11    1    4    4    0    0  0.13151598396E+02  0.11856935445E+01  0.20636321973E+01  0.13365215586E+02  0.51100000000E-03 0. -1.
        -11    1    4    4    0    0 -0.13419804236E+01  0.80772066392E+01  0.22615236526E+02  0.24051841966E+02  0.51100000000E-03 0.  1.
         12    1    4    4    0    0 -0.11807533926E+02 -0.34078407161E+01  0.11673555122E+02  0.16950018435E+02  0.00000000000E+00 0. -1.
</event>
<event>
 8    1  0.1212194E-006  0.9118800E+02  0.7816164E-02  0.1184000E+00
        -11   -1    0    0    0    0  0.00000000000E+00  0.00000000000E+00  0.45593999997E+02  0.45594000000E+02  0.51100000000E-03 0.  1.
         11   -1    0    0    0    0 -0.00000000000E+00 -0.00000000000E+00 -0.45593999997E+02  0.45594000000E+02  0.51100000000E-03 0. -1.
         23    2    1    2    0    0  0.00000000000E+00  0.00000000000E+00  0.17763568394E-14  0.91188000000E+02  0.91188000000E+02 0.  0.
    9900012    2    3    3    0    0 -0.25771552152E+02  0.22728599606E+02  0.13229419446E+02  0.54367086388E+02  0.40000005039E+02 0.  0.
         12    1    3    3    0    0  0.25771552152E+02 -0.22728599606E+02 -0.13229419446E+02  0.36820913612E+02  0.00000000000E+00 0. -1.
         11    1    4    4    0    0 -0.19311236014E+02  0.68243698820E+01 -0.83446674888E+00  0.20498590090E+02  0.51100000000E-03 0. -1.
        -11    1    4    4    0    0 -0.12657706340E+02 -0.10747721966E+01  0.65728321736E+01  0.14302964312E+02  0.51100000000E-03 0.  1.
         12    1    4    4    0    0  0.61973902026E+01  0.16979001920E+02  0.74910540211E+01  0.19565531985E+02  0.00000000000E+00 0. -1.
</event>
<event>
 8    1  0.1212194E-006  0.9118800E+02  0.7816164E-02  0.1184000E+00
        -11   -1    0    0    0    0  0.00000000000E+00  0.00000000000E+00  0.45593999997E+02  0.45594000000E+02  0.51100000000E-03 0.  1.
         11   -1    0    0    0    0 -0.00000000000E+00 -0.00000000000E+00 -0.45593999997E+02  0.45594000000E+02  0.51100000000E-03 0. -1.
         23    2    1    2    0    0  0.00000000000E+00  0.00000000000E+00 -0.35527136788E-14  0.91188000000E+02  0.91188000000E+02 0.  0.
    9900012    2    3    3    0    0 -0.10389012040E+02  0.20827102642E+02  0.28532086648E+02  0.54367085507E+02  0.40000003030E+02 0.  0.
         12    1    3    3    0    0  0.10389012040E+02 -0.20827102642E+02 -0.28532086648E+02  0.36820914493E+02  0.00000000000E+00 0. -1.
         11    1    4    4    0    0  0.29111520716E+01 -0.12918611655E+01 -0.27764849182E+01  0.42252314040E+01  0.51100000000E-03 0. -1.
        -11    1    4    4    0    0 -0.95593921522E+01  0.10454249530E+02 -0.23172705714E+01  0.14354199898E+02  0.51100000000E-03 0.  1.
        -12    1    4    4    0    0 -0.37407719593E+01  0.11664714278E+02  0.33625842137E+02  0.35787654205E+02  0.00000000000E+00 0.  1.
</event>
<event>
 8    1  0.1212194E-006  0.9118800E+02  0.7816164E-02  0.1184000E+00
        -11   -1    0    0    0    0  0.00000000000E+00  0.00000000000E+00  0.45593999997E+02  0.45594000000E+02  0.51100000000E-03 0.  1.
         11   -1    0    0    0    0 -0.00000000000E+00 -0.00000000000E+00 -0.45593999997E+02  0.45594000000E+02  0.51100000000E-03 0. -1.
         23    2    1    2    0    0  0.00000000000E+00 -0.35527136788E-14  0.00000000000E+00  0.91188000000E+02  0.91188000000E+02 0.  0.
    9900012    2    3    3    0    0  0.59711391262E+01 -0.22156785498E+02 -0.28795872243E+02  0.54367083331E+02  0.39999998070E+02 0.  0.
        -12    1    3    3    0    0 -0.59711391262E+01  0.22156785498E+02  0.28795872243E+02  0.36820916669E+02  0.00000000000E+00 0.  1.
         11    1    4    4    0    0  0.37540839104E-01 -0.10845184232E+02  0.37843455548E+00  0.10851849765E+02  0.51100000000E-03 0.  1.
        -11    1    4    4    0    0  0.40543601980E+01 -0.20216298663E+02 -0.11434545436E+02  0.23577222013E+02  0.51100000000E-03 0. -1.
        -12    1    4    4    0    0  0.18792380891E+01  0.89046973969E+01 -0.17739761363E+02  0.19938011554E+02  0.00000000000E+00 0.  1.
</event>
<event>
 8    1  0.1212194E-006  0.9118800E+02  0.7816164E-02  0.1184000E+00
        -11   -1    0    0    0    0  0.00000000000E+00  0.00000000000E+00  0.45593999997E+02  0.45594000000E+02  0.51100000000E-03 0.  1.
         11   -1    0    0    0    0 -0.00000000000E+00 -0.00000000000E+00 -0.45593999997E+02  0.45594000000E+02  0.51100000000E-03 0. -1.
         23    2    1    2    0    0  0.35527136788E-14 -0.35527136788E-14  0.00000000000E+00  0.91188000000E+02  0.91188000000E+02 0.  0.
    9900012    2    3    3    0    0  0.15282044986E+02 -0.22019623183E+02 -0.25246300382E+02  0.54367076776E+02  0.39999983126E+02 0.  0.
        -12    1    3    3    0    0 -0.15282044986E+02  0.22019623183E+02  0.25246300382E+02  0.36820923224E+02  0.00000000000E+00 0.  1.
         11    1    4    4    0    0  0.10348253104E+02 -0.81004018962E+01 -0.16727199788E+02  0.21272095952E+02  0.51100000000E-03 0. -1.
        -11    1    4    4    0    0  0.14097414689E+02 -0.12132388191E+01 -0.10048839320E+02  0.17354775172E+02  0.51100000000E-03 0.  1.
         12    1    4    4    0    0 -0.91636228060E+01 -0.12705982468E+02  0.15297387261E+01  0.15740205652E+02  0.00000000000E+00 0. -1.
</event>
<event>
 8    1  0.1212194E-006  0.9118800E+02  0.7816164E-02  0.1184000E+00
        -11   -1    0    0    0    0  0.00000000000E+00  0.00000000000E+00  0.45593999997E+02  0.45594000000E+02  0.51100000000E-03 0.  1.
         11   -1    0    0    0    0 -0.00000000000E+00 -0.00000000000E+00 -0.45593999997E+02  0.45594000000E+02  0.51100000000E-03 0. -1.
         23    2    1    2    0    0  0.00000000000E+00  0.00000000000E+00 -0.44408920985E-15  0.91188000000E+02  0.91188000000E+02 0.  0.
    9900012    2    3    3    0    0  0.32959064730E+02  0.16050230097E+02 -0.34454083993E+01  0.54367072892E+02  0.39999974271E+02 0.  0.
        -12    1    3    3    0    0 -0.32959064730E+02 -0.16050230097E+02  0.34454083993E+01  0.36820927108E+02  0.00000000000E+00 0.  1.
         11    1    4    4    0    0  0.63807124498E+01  0.15154678467E+02 -0.64239842219E+01  0.17653479667E+02  0.51100000000E-03 0. -1.
        -11    1    4    4    0    0  0.12147643618E+02  0.10078144938E+02  0.94835014684E+01  0.18413882024E+02  0.51100000000E-03 0.  1.
         12    1    4    4    0    0  0.14430708663E+02 -0.91825933077E+01 -0.65049256459E+01  0.18299711201E+02  0.00000000000E+00 0. -1.
</event>
<event>
 8    1  0.1212194E-006  0.9118800E+02  0.7816164E-02  0.1184000E+00
        -11   -1    0    0    0    0  0.00000000000E+00  0.00000000000E+00  0.45593999997E+02  0.45594000000E+02  0.51100000000E-03 0.  1.
         11   -1    0    0    0    0 -0.00000000000E+00 -0.00000000000E+00 -0.45593999997E+02  0.45594000000E+02  0.51100000000E-03 0. -1.
         23    2    1    2    0    0 -0.35527136788E-14  0.00000000000E+00 -0.35527136788E-14  0.91188000000E+02  0.91188000000E+02 0.  0.
    9900012    2    3    3    0    0  0.21190531043E+02  0.10093466311E+02  0.28370151059E+02  0.54367052983E+02  0.39999928886E+02 0.  0.
         12    1    3    3    0    0 -0.21190531043E+02 -0.10093466311E+02 -0.28370151059E+02  0.36820947017E+02  0.00000000000E+00 0. -1.
         11    1    4    4    0    0  0.21797343276E+02  0.75837311267E+01  0.95186113861E+00  0.23098553886E+02  0.51100000000E-03 0. -1.
        -11    1    4    4    0    0  0.69770182996E+01  0.11008707516E+01  0.15990599780E+02  0.17481132181E+02  0.51100000000E-03 0.  1.
         12    1    4    4    0    0 -0.75838305325E+01  0.14088644330E+01  0.11427690141E+02  0.13787366917E+02  0.00000000000E+00 0. -1.
</event>
<event>
 8    1  0.1212194E-006  0.9118800E+02  0.7816164E-02  0.1184000E+00
        -11   -1    0    0    0    0  0.00000000000E+00  0.00000000000E+00  0.45593999997E+02  0.45594000000E+02  0.51100000000E-03 0.  1.
         11   -1    0    0    0    0 -0.00000000000E+00 -0.00000000000E+00 -0.45593999997E+02  0.45594000000E+02  0.51100000000E-03 0. -1.
         23    2    1    2    0    0 -0.53290705182E-14 -0.35527136788E-14  0.00000000000E+00  0.91188000000E+02  0.91188000000E+02 0.  0.
    9900012    2    3    3    0    0  0.14980147690E+02  0.21624709217E+02  0.25763284099E+02  0.54367086363E+02  0.40000004981E+02 0.  0.
         12    1    3    3    0    0 -0.14980147690E+02 -0.21624709217E+02 -0.25763284099E+02  0.36820913637E+02  0.00000000000E+00 0. -1.
         11    1    4    4    0    0 -0.17425768147E+01  0.19981888426E+01 -0.64788629941E+01  0.70003570311E+01  0.51100000000E-03 0. -1.
        -11    1    4    4    0    0  0.93850056966E+01  0.23544152777E+02  0.28799895596E+02  0.38364559799E+02  0.51100000000E-03 0.  1.
         12    1    4    4    0    0  0.73377188077E+01 -0.39176324024E+01  0.34422514962E+01  0.90021695331E+01  0.00000000000E+00 0. -1.
</event>
<event>
 8    1  0.1212194E-006  0.9118800E+02  0.7816164E-02  0.1184000E+00
        -11   -1    0    0    0    0  0.00000000000E+00  0.00000000000E+00  0.45593999997E+02  0.45594000000E+02  0.51100000000E-03 0. -1.
         11   -1    0    0    0    0 -0.00000000000E+00 -0.00000000000E+00 -0.45593999997E+02  0.45594000000E+02  0.51100000000E-03 0.  1.
         23    2    1    2    0    0  0.00000000000E+00  0.00000000000E+00  0.00000000000E+00  0.91188000000E+02  0.91188000000E+02 0.  0.
    9900012    2    3    3    0    0 -0.20019025260E+02  0.19484253408E+02  0.23987134821E+02  0.54367080129E+02  0.39999990769E+02 0.  0.
        -12    1    3    3    0    0  0.20019025260E+02 -0.19484253408E+02 -0.23987134821E+02  0.36820919871E+02  0.00000000000E+00 0.  1.
         11    1    4    4    0    0 -0.16487393286E+02  0.24819322871E+02  0.17383445538E+02  0.34496624533E+02  0.51100000000E-03 0. -1.
        -11    1    4    4    0    0  0.29723006798E+01  0.42003583359E+01 -0.19514764440E+01  0.55032574039E+01  0.51100000000E-03 0.  1.
         12    1    4    4    0    0 -0.65039326541E+01 -0.95354277984E+01  0.85551657275E+01  0.14367198192E+02  0.00000000000E+00 0. -1.
</event>
<event>
 8    1  0.1212194E-006  0.9118800E+02  0.7816164E-02  0.1184000E+00
        -11   -1    0    0    0    0  0.00000000000E+00  0.00000000000E+00  0.45593999997E+02  0.45594000000E+02  0.51100000000E-03 0.  1.
         11   -1    0    0    0    0 -0.00000000000E+00 -0.00000000000E+00 -0.45593999997E+02  0.45594000000E+02  0.51100000000E-03 0. -1.
         23    2    1    2    0    0 -0.35527136788E-14  0.00000000000E+00  0.00000000000E+00  0.91188000000E+02  0.91188000000E+02 0.  0.
    9900012    2    3    3    0    0 -0.23881760961E+02  0.16792498787E+02 -0.22438034446E+02  0.54366920278E+02  0.39999626356E+02 0.  0.
        -12    1    3    3    0    0  0.23881760961E+02 -0.16792498787E+02  0.22438034446E+02  0.36821079722E+02  0.00000000000E+00 0.  1.
         11    1    4    4    0    0 -0.22179202353E+02 -0.17234512901E+01 -0.13301565838E+02  0.25919470585E+02  0.51100000000E-03 0. -1.
        -11    1    4    4    0    0  0.44191755231E+01  0.60217821018E+01 -0.12102168949E+02  0.14221584494E+02  0.51100000000E-03 0.  1.
        -12    1    4    4    0    0 -0.61217341308E+01  0.12494167975E+02  0.29657003420E+01  0.14225865200E+02  0.00000000000E+00 0.  1.
</event>
<event>
 8    1  0.1212194E-006  0.9118800E+02  0.7816164E-02  0.1184000E+00
        -11   -1    0    0    0    0  0.00000000000E+00  0.00000000000E+00  0.45593999997E+02  0.45594000000E+02  0.51100000000E-03 0. -1.
         11   -1    0    0    0    0 -0.00000000000E+00 -0.00000000000E+00 -0.45593999997E+02  0.45594000000E+02  0.51100000000E-03 0.  1.
         23    2    1    2    0    0 -0.35527136788E-14  0.35527136788E-14  0.00000000000E+00  0.91188000000E+02  0.91188000000E+02 0.  0.
    9900012    2    3    3    0    0  0.25213032134E+02 -0.25117995483E+02  0.94428993683E+01  0.54367095137E+02  0.40000024983E+02 0.  0.
        -12    1    3    3    0    0 -0.25213032134E+02  0.25117995483E+02 -0.94428993683E+01  0.36820904863E+02  0.00000000000E+00 0.  1.
         11    1    4    4    0    0  0.19001026110E+02 -0.23217682692E+02 -0.48311960813E+01  0.30388159514E+02  0.51100000000E-03 0. -1.
        -11    1    4    4    0    0  0.56807068369E+01  0.16455095283E+01 -0.27921007294E+01  0.65401803124E+01  0.51100000000E-03 0.  1.
         12    1    4    4    0    0  0.53129918679E+00 -0.35458223194E+01  0.17066196179E+02  0.17438755310E+02  0.00000000000E+00 0. -1.
</event>
<event>
 8    1  0.1212194E-006  0.9118800E+02  0.7816164E-02  0.1184000E+00
        -11   -1    0    0    0    0  0.00000000000E+00  0.00000000000E+00  0.45593999997E+02  0.45594000000E+02  0.51100000000E-03 0.  1.
         11   -1    0    0    0    0 -0.00000000000E+00 -0.00000000000E+00 -0.45593999997E+02  0.45594000000E+02  0.51100000000E-03 0. -1.
         23    2    1    2    0    0  0.00000000000E+00  0.26645352591E-14  0.00000000000E+00  0.91188000000E+02  0.91188000000E+02 0.  0.
    9900012    2    3    3    0    0  0.30115664701E+02  0.76140188772E+01  0.19770012106E+02  0.54367083084E+02  0.39999997508E+02 0.  0.
         12    1    3    3    0    0 -0.30115664701E+02 -0.76140188772E+01 -0.19770012106E+02  0.36820916916E+02  0.00000000000E+00 0. -1.
         11    1    4    4    0    0  0.31338068601E+00  0.16194862653E+02  0.11636099685E+02  0.19944187122E+02  0.51100000000E-03 0. -1.
        -11    1    4    4    0    0  0.17392416318E+02 -0.57530747356E+01  0.11011110765E+02  0.21373782418E+02  0.51100000000E-03 0.  1.
         12    1    4    4    0    0  0.12409867697E+02 -0.28277690401E+01 -0.28771983446E+01  0.13049113545E+02  0.00000000000E+00 0. -1.
</event>
<event>
 8    1  0.1212194E-006  0.9118800E+02  0.7816164E-02  0.1184000E+00
        -11   -1    0    0    0    0  0.00000000000E+00  0.00000000000E+00  0.45593999997E+02  0.45594000000E+02  0.51100000000E-03 0.  1.
         11   -1    0    0    0    0 -0.00000000000E+00 -0.00000000000E+00 -0.45593999997E+02  0.45594000000E+02  0.51100000000E-03 0. -1.
         23    2    1    2    0    0  0.00000000000E+00 -0.17763568394E-14 -0.88817841970E-15  0.91188000000E+02  0.91188000000E+02 0.  0.
    9900012    2    3    3    0    0 -0.35043107176E+02  0.82422289790E+01 -0.77347461757E+01  0.54367082066E+02  0.39999995186E+02 0.  0.
         12    1    3    3    0    0  0.35043107176E+02 -0.82422289790E+01  0.77347461757E+01  0.36820917934E+02  0.00000000000E+00 0. -1.
         11    1    4    4    0    0 -0.55791906797E+01 -0.12560049661E+01 -0.49615240032E+01  0.75711054550E+01  0.51100000000E-03 0. -1.
        -11    1    4    4    0    0 -0.13074746774E+00 -0.10865764036E+02 -0.21747783074E+01  0.11082038798E+02  0.51100000000E-03 0.  1.
        -12    1    4    4    0    0 -0.29333169028E+02  0.20363997981E+02 -0.59844386498E+00  0.35713937813E+02  0.00000000000E+00 0.  1.
</event>
<event>
 8    1  0.1212194E-006  0.9118800E+02  0.7816164E-02  0.1184000E+00
        -11   -1    0    0    0    0  0.00000000000E+00  0.00000000000E+00  0.45593999997E+02  0.45594000000E+02  0.51100000000E-03 0. -1.
         11   -1    0    0    0    0 -0.00000000000E+00 -0.00000000000E+00 -0.45593999997E+02  0.45594000000E+02  0.51100000000E-03 0.  1.
         23    2    1    2    0    0 -0.35527136788E-14 -0.35527136788E-14  0.00000000000E+00  0.91188000000E+02  0.91188000000E+02 0.  0.
    9900012    2    3    3    0    0  0.23116709780E+02  0.28176173723E+02  0.52442920376E+01  0.54367059820E+02  0.39999944472E+02 0.  0.
        -12    1    3    3    0    0 -0.23116709780E+02 -0.28176173723E+02 -0.52442920376E+01  0.36820940180E+02  0.00000000000E+00 0.  1.
         11    1    4    4    0    0  0.35690588930E+01  0.31656477071E+01 -0.93340568050E+01  0.10482562830E+02  0.51100000000E-03 0. -1.
        -11    1    4    4    0    0 -0.27627447988E+01 -0.63039591664E+00 -0.41901286267E+01  0.50583926306E+01  0.51100000000E-03 0.  1.
         12    1    4    4    0    0  0.22310395686E+02  0.25640921933E+02  0.18768477469E+02  0.38826104360E+02  0.00000000000E+00 0. -1.
</event>
<event>
 8    1  0.1212194E-006  0.9118800E+02  0.7816164E-02  0.1184000E+00
        -11   -1    0    0    0    0  0.00000000000E+00  0.00000000000E+00  0.45593999997E+02  0.45594000000E+02  0.51100000000E-03 0.  1.
         11   -1    0    0    0    0 -0.00000000000E+00 -0.00000000000E+00 -0.45593999997E+02  0.45594000000E+02  0.51100000000E-03 0. -1.
         23    2    1    2    0    0  0.00000000000E+00  0.35527136788E-14  0.00000000000E+00  0.91188000000E+02  0.91188000000E+02 0.  0.
    9900012    2    3    3    0    0  0.33164050353E+02  0.15094514193E+02 -0.52992115422E+01  0.54367078807E+02  0.39999987756E+02 0.  0.
        -12    1    3    3    0    0 -0.33164050353E+02 -0.15094514193E+02  0.52992115422E+01  0.36820921193E+02  0.00000000000E+00 0.  1.
         11    1    4    4    0    0  0.12035400313E+02  0.20996573777E+02 -0.81589706065E+01  0.25539690145E+02  0.51100000000E-03 0. -1.
        -11    1    4    4    0    0  0.20476540814E+02 -0.36601956978E+01 -0.43482121341E+01  0.21250710701E+02  0.51100000000E-03 0.  1.
        -12    1    4    4    0    0  0.65210922510E+00 -0.22418638866E+01  0.72079711985E+01  0.75766779611E+01  0.00000000000E+00 0.  1.
</event>
<event>
 8    1  0.1212194E-006  0.9118800E+02  0.7816164E-02  0.1184000E+00
        -11   -1    0    0    0    0  0.00000000000E+00  0.00000000000E+00  0.45593999997E+02  0.45594000000E+02  0.51100000000E-03 0. -1.
         11   -1    0    0    0    0 -0.00000000000E+00 -0.00000000000E+00 -0.45593999997E+02  0.45594000000E+02  0.51100000000E-03 0.  1.
         23    2    1    2    0    0  0.71054273576E-14  0.00000000000E+00 -0.33306690739E-15  0.91188000000E+02  0.91188000000E+02 0.  0.
    9900012    2    3    3    0    0  0.36651586983E+02  0.35156441668E+01 -0.28696492858E+00  0.54367069388E+02  0.39999966283E+02 0.  0.
        -12    1    3    3    0    0 -0.36651586983E+02 -0.35156441668E+01  0.28696492858E+00  0.36820930612E+02  0.00000000000E+00 0.  1.
         11    1    4    4    0    0 -0.34022368343E+01 -0.32373411902E+00  0.45423312185E+01  0.56844342213E+01  0.51100000000E-03 0. -1.
        -11    1    4    4    0    0  0.99935878549E+01 -0.40446839236E+01 -0.12665765105E+02  0.16632885265E+02  0.51100000000E-03 0.  1.
         12    1    4    4    0    0  0.30060235962E+02  0.78840622094E+01  0.78364689584E+01  0.32049749902E+02  0.00000000000E+00 0. -1.
</event>
<event>
 8    1  0.1212194E-006  0.9118800E+02  0.7816164E-02  0.1184000E+00
        -11   -1    0    0    0    0  0.00000000000E+00  0.00000000000E+00  0.45593999997E+02  0.45594000000E+02  0.51100000000E-03 0.  1.
         11   -1    0    0    0    0 -0.00000000000E+00 -0.00000000000E+00 -0.45593999997E+02  0.45594000000E+02  0.51100000000E-03 0. -1.
         23    2    1    2    0    0 -0.17763568394E-14  0.00000000000E+00 -0.35527136788E-14  0.91188000000E+02  0.91188000000E+02 0.  0.
    9900012    2    3    3    0    0 -0.11044518610E+02  0.26443704544E+02  0.23119884399E+02  0.54367082631E+02  0.39999996473E+02 0.  0.
        -12    1    3    3    0    0  0.11044518610E+02 -0.26443704544E+02 -0.23119884399E+02  0.36820917369E+02  0.00000000000E+00 0.  1.
         11    1    4    4    0    0 -0.90091046291E+01  0.20824987648E+02 -0.52890136834E+01  0.23298449364E+02  0.51100000000E-03 0. -1.
        -11    1    4    4    0    0  0.10465532294E+01 -0.25353617025E+01  0.24237157548E+01  0.36602911012E+01  0.51100000000E-03 0.  1.
         12    1    4    4    0    0 -0.30819672105E+01  0.81540785979E+01  0.25985182327E+02  0.27408342165E+02  0.00000000000E+00 0. -1.
</event>
<event>
 8    1  0.1212194E-006  0.9118800E+02  0.7816164E-02  0.1184000E+00
        -11   -1    0    0    0    0  0.00000000000E+00  0.00000000000E+00  0.45593999997E+02  0.45594000000E+02  0.51100000000E-03 0. -1.
         11   -1    0    0    0    0 -0.00000000000E+00 -0.00000000000E+00 -0.45593999997E+02  0.45594000000E+02  0.51100000000E-03 0.  1.
         23    2    1    2    0    0  0.35527136788E-14  0.00000000000E+00 -0.55511151231E-16  0.91188000000E+02  0.91188000000E+02 0.  0.
    9900012    2    3    3    0    0 -0.31835979058E+02  0.18497747855E+02  0.29043106327E+00  0.54367074041E+02  0.39999976891E+02 0.  0.
         12    1    3    3    0    0  0.31835979058E+02 -0.18497747855E+02 -0.29043106327E+00  0.36820925959E+02  0.00000000000E+00 0. -1.
         11    1    4    4    0    0  0.89995993202E+01  0.73736208748E+01  0.66778076509E-01  0.11634755361E+02  0.51100000000E-03 0. -1.
        -11    1    4    4    0    0 -0.17809559836E+02  0.78462317611E+01  0.61102767714E+00  0.19470930370E+02  0.51100000000E-03 0.  1.
        -12    1    4    4    0    0 -0.23026018542E+02  0.32778952192E+01 -0.38737469038E+00  0.23261388310E+02  0.00000000000E+00 0.  1.
</event>
<event>
 8    1  0.1212194E-006  0.9118800E+02  0.7816164E-02  0.1184000E+00
        -11   -1    0    0    0    0  0.00000000000E+00  0.00000000000E+00  0.45593999997E+02  0.45594000000E+02  0.51100000000E-03 0.  1.
         11   -1    0    0    0    0 -0.00000000000E+00 -0.00000000000E+00 -0.45593999997E+02  0.45594000000E+02  0.51100000000E-03 0. -1.
         23    2    1    2    0    0 -0.35527136788E-14  0.00000000000E+00  0.00000000000E+00  0.91188000000E+02  0.91188000000E+02 0.  0.
    9900012    2    3    3    0    0  0.29546038287E+02 -0.14495050029E+02  0.16513777170E+02  0.54367086239E+02  0.40000004698E+02 0.  0.
         12    1    3    3    0    0 -0.29546038287E+02  0.14495050029E+02 -0.16513777170E+02  0.36820913761E+02  0.00000000000E+00 0. -1.
         11    1    4    4    0    0  0.62177745899E+01 -0.12922690195E+01  0.11371973375E+02  0.13025070394E+02  0.51100000000E-03 0. -1.
        -11    1    4    4    0    0  0.30875664686E+02 -0.10990703752E+02  0.63554370004E+01  0.33384035383E+02  0.51100000000E-03 0.  1.
         12    1    4    4    0    0 -0.75474009882E+01 -0.22120772571E+01 -0.12136332055E+01  0.79579804615E+01  0.00000000000E+00 0. -1.
</event>
<event>
 8    1  0.1212194E-006  0.9118800E+02  0.7816164E-02  0.1184000E+00
        -11   -1    0    0    0    0  0.00000000000E+00  0.00000000000E+00  0.45593999997E+02  0.45594000000E+02  0.51100000000E-03 0. -1.
         11   -1    0    0    0    0 -0.00000000000E+00 -0.00000000000E+00 -0.45593999997E+02  0.45594000000E+02  0.51100000000E-03 0.  1.
         23    2    1    2    0    0  0.35527136788E-14  0.00000000000E+00  0.35527136788E-14  0.91188000000E+02  0.91188000000E+02 0.  0.
    9900012    2    3    3    0    0  0.19785677843E+02 -0.96822675603E+01  0.29505266671E+02  0.54367080482E+02  0.39999991575E+02 0.  0.
        -12    1    3    3    0    0 -0.19785677843E+02  0.96822675603E+01 -0.29505266671E+02  0.36820919518E+02  0.00000000000E+00 0.  1.
         11    1    4    4    0    0 -0.11155461200E+01 -0.45141990081E+01  0.23257924163E+01  0.51992063293E+01  0.51100000000E-03 0.  1.
        -11    1    4    4    0    0  0.21699874154E+01  0.31732952458E+01 -0.77577567672E+01  0.86580273978E+01  0.51100000000E-03 0. -1.
         12    1    4    4    0    0  0.18731236548E+02 -0.83413637981E+01  0.34937231022E+02  0.40509846755E+02  0.00000000000E+00 0. -1.
</event>
<event>
 8    1  0.1212194E-006  0.9118800E+02  0.7816164E-02  0.1184000E+00
        -11   -1    0    0    0    0  0.00000000000E+00  0.00000000000E+00  0.45593999997E+02  0.45594000000E+02  0.51100000000E-03 0. -1.
         11   -1    0    0    0    0 -0.00000000000E+00 -0.00000000000E+00 -0.45593999997E+02  0.45594000000E+02  0.51100000000E-03 0.  1.
         23    2    1    2    0    0  0.88817841970E-15  0.00000000000E+00  0.71054273576E-14  0.91188000000E+02  0.91188000000E+02 0.  0.
    9900012    2    3    3    0    0  0.71092726655E+01  0.18525701946E+02 -0.31016709145E+02  0.54367086967E+02  0.40000006359E+02 0.  0.
         12    1    3    3    0    0 -0.71092726655E+01 -0.18525701946E+02  0.31016709145E+02  0.36820913033E+02  0.00000000000E+00 0. -1.
         11    1    4    4    0    0 -0.27878286207E+01 -0.62910390828E+01 -0.16639238504E+02  0.18005927341E+02  0.51100000000E-03 0. -1.
        -11    1    4    4    0    0  0.97068714590E+00  0.21033036850E+02 -0.27692684205E+01  0.21236754002E+02  0.51100000000E-03 0.  1.
        -12    1    4    4    0    0  0.89264141404E+01  0.37837041780E+01 -0.11608202220E+02  0.15124405625E+02  0.00000000000E+00 0.  1.
</event>
<event>
 8    1  0.1212194E-006  0.9118800E+02  0.7816164E-02  0.1184000E+00
        -11   -1    0    0    0    0  0.00000000000E+00  0.00000000000E+00  0.45593999997E+02  0.45594000000E+02  0.51100000000E-03 0. -1.
         11   -1    0    0    0    0 -0.00000000000E+00 -0.00000000000E+00 -0.45593999997E+02  0.45594000000E+02  0.51100000000E-03 0.  1.
         23    2    1    2    0    0  0.53290705182E-14  0.00000000000E+00  0.00000000000E+00  0.91188000000E+02  0.91188000000E+02 0.  0.
    9900012    2    3    3    0    0 -0.12453185251E+02 -0.12533470012E+02 -0.32304944891E+02  0.54367093468E+02  0.40000021180E+02 0.  0.
         12    1    3    3    0    0  0.12453185251E+02  0.12533470012E+02  0.32304944891E+02  0.36820906532E+02  0.00000000000E+00 0. -1.
         11    1    4    4    0    0 -0.21550973447E+02 -0.10101027073E+02 -0.14749009426E+02  0.28000151496E+02  0.51100000000E-03 0. -1.
        -11    1    4    4    0    0  0.12337143321E+02 -0.69051272631E+01 -0.12209422519E+02  0.18680360980E+02  0.51100000000E-03 0.  1.
        -12    1    4    4    0    0 -0.32393551242E+01  0.44726843239E+01 -0.53465129455E+01  0.76865809928E+01  0.00000000000E+00 0.  1.
</event>
<event>
 8    1  0.1212194E-006  0.9118800E+02  0.7816164E-02  0.1184000E+00
        -11   -1    0    0    0    0  0.00000000000E+00  0.00000000000E+00  0.45593999997E+02  0.45594000000E+02  0.51100000000E-03 0.  1.
         11   -1    0    0    0    0 -0.00000000000E+00 -0.00000000000E+00 -0.45593999997E+02  0.45594000000E+02  0.51100000000E-03 0. -1.
         23    2    1    2    0    0  0.00000000000E+00  0.00000000000E+00  0.71054273576E-14  0.91188000000E+02  0.91188000000E+02 0.  0.
    9900012    2    3    3    0    0  0.67596376523E+01  0.86011902111E+01  0.35158339004E+02  0.54367055202E+02  0.39999933945E+02 0.  0.
         12    1    3    3    0    0 -0.67596376523E+01 -0.86011902111E+01 -0.35158339004E+02  0.36820944798E+02  0.00000000000E+00 0. -1.
         11    1    4    4    0    0  0.29541338846E+01  0.55372238715E+00  0.27655442532E+02  0.27818285666E+02  0.51100000000E-03 0. -1.
        -11    1    4    4    0    0  0.45735066564E+01  0.24531854512E+01  0.15733484873E+02  0.16567366372E+02  0.51100000000E-03 0.  1.
         12    1    4    4    0    0 -0.76800288864E+00  0.55942823727E+01 -0.82305884009E+01  0.99814031642E+01  0.00000000000E+00 0. -1.
</event>
<event>
 8    1  0.1212194E-006  0.9118800E+02  0.7816164E-02  0.1184000E+00
        -11   -1    0    0    0    0  0.00000000000E+00  0.00000000000E+00  0.45593999997E+02  0.45594000000E+02  0.51100000000E-03 0. -1.
         11   -1    0    0    0    0 -0.00000000000E+00 -0.00000000000E+00 -0.45593999997E+02  0.45594000000E+02  0.51100000000E-03 0.  1.
         23    2    1    2    0    0  0.71054273576E-14  0.88817841970E-15  0.00000000000E+00  0.91188000000E+02  0.91188000000E+02 0.  0.
    9900012    2    3    3    0    0 -0.35346536830E+02  0.60445609066E+01  0.83585403250E+01  0.54367087752E+02  0.40000008147E+02 0.  0.
        -12    1    3    3    0    0  0.35346536830E+02 -0.60445609066E+01 -0.83585403250E+01  0.36820912248E+02  0.00000000000E+00 0.  1.
         11    1    4    4    0    0 -0.15312905573E+02  0.71569849219E+01 -0.59023838957E+01  0.17903788598E+02  0.51100000000E-03 0. -1.
        -11    1    4    4    0    0 -0.19179462176E+02  0.85040276908E+01  0.23204798339E+01  0.21108171007E+02  0.51100000000E-03 0.  1.
         12    1    4    4    0    0 -0.85416908093E+00 -0.96164517061E+01  0.11940444387E+02  0.15355128146E+02  0.00000000000E+00 0. -1.
</event>
<event>
 8    1  0.1212194E-006  0.9118800E+02  0.7816164E-02  0.1184000E+00
        -11   -1    0    0    0    0  0.00000000000E+00  0.00000000000E+00  0.45593999997E+02  0.45594000000E+02  0.51100000000E-03 0. -1.
         11   -1    0    0    0    0 -0.00000000000E+00 -0.00000000000E+00 -0.45593999997E+02  0.45594000000E+02  0.51100000000E-03 0.  1.
         23    2    1    2    0    0 -0.35527136788E-14  0.00000000000E+00  0.00000000000E+00  0.91188000000E+02  0.91188000000E+02 0.  0.
    9900012    2    3    3    0    0  0.18423476552E+02 -0.26164400114E+02 -0.18214787434E+02  0.54367098289E+02  0.40000032169E+02 0.  0.
         12    1    3    3    0    0 -0.18423476552E+02  0.26164400114E+02  0.18214787434E+02  0.36820901711E+02  0.00000000000E+00 0. -1.
         11    1    4    4    0    0 -0.18429694761E+01 -0.21694128341E+01 -0.67882535153E+01  0.73609289213E+01  0.51100000000E-03 0. -1.
        -11    1    4    4    0    0 -0.45563534213E+01  0.48994006899E+01 -0.50519975574E+01  0.83837439847E+01  0.51100000000E-03 0.  1.
        -12    1    4    4    0    0  0.24822799449E+02 -0.28894387970E+02 -0.63745363613E+01  0.38622425383E+02  0.00000000000E+00 0.  1.
</event>
<event>
 8    1  0.1212194E-006  0.9118800E+02  0.7816164E-02  0.1184000E+00
        -11   -1    0    0    0    0  0.00000000000E+00  0.00000000000E+00  0.45593999997E+02  0.45594000000E+02  0.51100000000E-03 0. -1.
         11   -1    0    0    0    0 -0.00000000000E+00 -0.00000000000E+00 -0.45593999997E+02  0.45594000000E+02  0.51100000000E-03 0.  1.
         23    2    1    2    0    0  0.00000000000E+00 -0.17763568394E-14  0.00000000000E+00  0.91188000000E+02  0.91188000000E+02 0.  0.
    9900012    2    3    3    0    0 -0.18674672625E+02  0.63388581756E+01  0.31094310597E+02  0.54367072905E+02  0.39999974302E+02 0.  0.
        -12    1    3    3    0    0  0.18674672625E+02 -0.63388581756E+01 -0.31094310597E+02  0.36820927095E+02  0.00000000000E+00 0.  1.
         11    1    4    4    0    0 -0.17150438784E+02 -0.85491868417E+01  0.19234209328E+02  0.27151076496E+02  0.51100000000E-03 0. -1.
        -11    1    4    4    0    0  0.77420293905E+01  0.50554228428E+01  0.99292407321E+01  0.13567834793E+02  0.51100000000E-03 0.  1.
         12    1    4    4    0    0 -0.92662632306E+01  0.98326221746E+01  0.19308605373E+01  0.13648161616E+02  0.00000000000E+00 0. -1.
</event>
<event>
 8    1  0.1212194E-006  0.9118800E+02  0.7816164E-02  0.1184000E+00
        -11   -1    0    0    0    0  0.00000000000E+00  0.00000000000E+00  0.45593999997E+02  0.45594000000E+02  0.51100000000E-03 0.  1.
         11   -1    0    0    0    0 -0.00000000000E+00 -0.00000000000E+00 -0.45593999997E+02  0.45594000000E+02  0.51100000000E-03 0. -1.
         23    2    1    2    0    0  0.00000000000E+00  0.00000000000E+00 -0.17763568394E-14  0.91188000000E+02  0.91188000000E+02 0.  0.
    9900012    2    3    3    0    0 -0.30135679604E+02  0.17461304950E+02  0.11946678289E+02  0.54367089122E+02  0.40000011271E+02 0.  0.
         12    1    3    3    0    0  0.30135679604E+02 -0.17461304950E+02 -0.11946678289E+02  0.36820910878E+02  0.00000000000E+00 0. -1.
         11    1    4    4    0    0  0.85746484769E+00 -0.24730736312E+01 -0.82124814557E+01  0.86195238309E+01  0.51100000000E-03 0. -1.
        -11    1    4    4    0    0 -0.35058323057E+01  0.23582989626E+00 -0.31148325472E+01  0.46955998503E+01  0.51100000000E-03 0.  1.
        -12    1    4    4    0    0 -0.27487312146E+02  0.19698548685E+02  0.23273992292E+02  0.41051965440E+02  0.00000000000E+00 0.  1.
</event>
<event>
 8    1  0.1212194E-006  0.9118800E+02  0.7816164E-02  0.1184000E+00
        -11   -1    0    0    0    0  0.00000000000E+00  0.00000000000E+00  0.45593999997E+02  0.45594000000E+02  0.51100000000E-03 0.  1.
         11   -1    0    0    0    0 -0.00000000000E+00 -0.00000000000E+00 -0.45593999997E+02  0.45594000000E+02  0.51100000000E-03 0. -1.
         23    2    1    2    0    0  0.00000000000E+00  0.00000000000E+00  0.00000000000E+00  0.91188000000E+02  0.91188000000E+02 0.  0.
    9900012    2    3    3    0    0 -0.23264621858E+02 -0.23668752591E+02 -0.15947563759E+02  0.54367119113E+02  0.40000079642E+02 0.  0.
        -12    1    3    3    0    0  0.23264621858E+02  0.23668752591E+02  0.15947563759E+02  0.36820880887E+02  0.00000000000E+00 0.  1.
         11    1    4    4    0    0 -0.21512317181E+02 -0.10055988550E+01 -0.53844207222E+01  0.22198716322E+02  0.51100000000E-03 0. -1.
        -11    1    4    4    0    0 -0.10809829442E+02 -0.10201955037E+02 -0.65895554357E+01  0.16258983370E+02  0.51100000000E-03 0.  1.
        -12    1    4    4    0    0  0.90575247648E+01 -0.12461198699E+02 -0.39735876013E+01  0.15909419421E+02  0.00000000000E+00 0.  1.
</event>
<event>
 8    1  0.1212194E-006  0.9118800E+02  0.7816164E-02  0.1184000E+00
        -11   -1    0    0    0    0  0.00000000000E+00  0.00000000000E+00  0.45593999997E+02  0.45594000000E+02  0.51100000000E-03 0.  1.
         11   -1    0    0    0    0 -0.00000000000E+00 -0.00000000000E+00 -0.45593999997E+02  0.45594000000E+02  0.51100000000E-03 0. -1.
         23    2    1    2    0    0  0.00000000000E+00  0.00000000000E+00 -0.35527136788E-14  0.91188000000E+02  0.91188000000E+02 0.  0.
    9900012    2    3    3    0    0 -0.18500903316E+02 -0.23509150622E+02  0.21466643395E+02  0.54367077074E+02  0.39999983805E+02 0.  0.
         12    1    3    3    0    0  0.18500903316E+02  0.23509150622E+02 -0.21466643395E+02  0.36820922926E+02  0.00000000000E+00 0. -1.
         11    1    4    4    0    0  0.45076859294E+01 -0.22156706435E+02  0.15409012485E+02  0.27361954216E+02  0.51100000000E-03 0. -1.
        -11    1    4    4    0    0 -0.20213414825E+02 -0.31826117989E+01  0.91844820586E+01  0.22429129891E+02  0.51100000000E-03 0.  1.
         12    1    4    4    0    0 -0.27951744211E+01  0.18301676115E+01 -0.31268511481E+01  0.45759929669E+01  0.00000000000E+00 0. -1.
</event>
<event>
 8    1  0.1212194E-006  0.9118800E+02  0.7816164E-02  0.1184000E+00
        -11   -1    0    0    0    0  0.00000000000E+00  0.00000000000E+00  0.45593999997E+02  0.45594000000E+02  0.51100000000E-03 0.  1.
         11   -1    0    0    0    0 -0.00000000000E+00 -0.00000000000E+00 -0.45593999997E+02  0.45594000000E+02  0.51100000000E-03 0. -1.
         23    2    1    2    0    0  0.00000000000E+00  0.00000000000E+00  0.00000000000E+00  0.91188000000E+02  0.91188000000E+02 0.  0.
    9900012    2    3    3    0    0  0.34600970185E+02 -0.93233726425E+01 -0.84633178221E+01  0.54367079808E+02  0.39999990039E+02 0.  0.
        -12    1    3    3    0    0 -0.34600970185E+02  0.93233726425E+01  0.84633178221E+01  0.36820920192E+02  0.00000000000E+00 0.  1.
         11    1    4    4    0    0  0.16447986888E+02 -0.26118530136E+01 -0.20517414123E+02  0.26425789135E+02  0.51100000000E-03 0. -1.
        -11    1    4    4    0    0  0.19241561023E+01 -0.69658135876E+01  0.88007444300E+01  0.11387626549E+02  0.51100000000E-03 0.  1.
        -12    1    4    4    0    0  0.16228827195E+02  0.25429395868E+00  0.32533518709E+01  0.16553664124E+02  0.00000000000E+00 0.  1.
</event>
<event>
 8    1  0.1212194E-006  0.9118800E+02  0.7816164E-02  0.1184000E+00
        -11   -1    0    0    0    0  0.00000000000E+00  0.00000000000E+00  0.45593999997E+02  0.45594000000E+02  0.51100000000E-03 0.  1.
         11   -1    0    0    0    0 -0.00000000000E+00 -0.00000000000E+00 -0.45593999997E+02  0.45594000000E+02  0.51100000000E-03 0. -1.
         23    2    1    2    0    0 -0.71054273576E-14 -0.35527136788E-14  0.35527136788E-14  0.91188000000E+02  0.91188000000E+02 0.  0.
    9900012    2    3    3    0    0 -0.22083430031E+02 -0.21625310688E+02  0.20011171666E+02  0.54367096484E+02  0.40000028054E+02 0.  0.
        -12    1    3    3    0    0  0.22083430031E+02  0.21625310688E+02 -0.20011171666E+02  0.36820903516E+02  0.00000000000E+00 0.  1.
         11    1    4    4    0    0 -0.18871606686E+02 -0.14630319805E+02  0.88864308204E+01  0.25478470313E+02  0.51100000000E-03 0. -1.
        -11    1    4    4    0    0 -0.65129118058E+00  0.68444189366E+01 -0.42197689332E+01  0.80670131333E+01  0.51100000000E-03 0.  1.
        -12    1    4    4    0    0 -0.25605321640E+01 -0.13839409820E+02  0.15344509779E+02  0.20821613038E+02  0.00000000000E+00 0.  1.
</event>
<event>
 8    1  0.1212194E-006  0.9118800E+02  0.7816164E-02  0.1184000E+00
        -11   -1    0    0    0    0  0.00000000000E+00  0.00000000000E+00  0.45593999997E+02  0.45594000000E+02  0.51100000000E-03 0. -1.
         11   -1    0    0    0    0 -0.00000000000E+00 -0.00000000000E+00 -0.45593999997E+02  0.45594000000E+02  0.51100000000E-03 0.  1.
         23    2    1    2    0    0  0.88817841970E-15  0.00000000000E+00 -0.35527136788E-14  0.91188000000E+02  0.91188000000E+02 0.  0.
    9900012    2    3    3    0    0 -0.53893246528E+01  0.25290580584E+02  0.26212987669E+02  0.54367095488E+02  0.40000025785E+02 0.  0.
        -12    1    3    3    0    0  0.53893246528E+01 -0.25290580584E+02 -0.26212987669E+02  0.36820904512E+02  0.00000000000E+00 0.  1.
         11    1    4    4    0    0 -0.25214189076E+01  0.50392696043E+01  0.64497580195E+01  0.85645297725E+01  0.51100000000E-03 0. -1.
        -11    1    4    4    0    0 -0.11148791146E+02  0.98140927418E+01  0.26870350644E+02  0.30702242660E+02  0.51100000000E-03 0.  1.
        -12    1    4    4    0    0  0.82808854011E+01  0.10437218238E+02 -0.71071209940E+01  0.15100323056E+02  0.00000000000E+00 0.  1.
</event>
<event>
 8    1  0.1212194E-006  0.9118800E+02  0.7816164E-02  0.1184000E+00
        -11   -1    0    0    0    0  0.00000000000E+00  0.00000000000E+00  0.45593999997E+02  0.45594000000E+02  0.51100000000E-03 0.  1.
         11   -1    0    0    0    0 -0.00000000000E+00 -0.00000000000E+00 -0.45593999997E+02  0.45594000000E+02  0.51100000000E-03 0. -1.
         23    2    1    2    0    0  0.00000000000E+00  0.00000000000E+00  0.35527136788E-14  0.91188000000E+02  0.91188000000E+02 0.  0.
    9900012    2    3    3    0    0 -0.17734619112E+02 -0.16434782026E+02 -0.27769801609E+02  0.54367073115E+02  0.39999974780E+02 0.  0.
        -12    1    3    3    0    0  0.17734619112E+02  0.16434782026E+02  0.27769801609E+02  0.36820926885E+02  0.00000000000E+00 0.  1.
         11    1    4    4    0    0 -0.14371168309E+02  0.11728930531E+01 -0.23668513097E+01  0.14611917809E+02  0.51100000000E-03 0. -1.
        -11    1    4    4    0    0 -0.38109033453E+01  0.58324427739E+01 -0.41377350397E+01  0.81031613915E+01  0.51100000000E-03 0.  1.
         12    1    4    4    0    0  0.44745254246E+00 -0.23440117852E+02 -0.21265215259E+02  0.31651993914E+02  0.00000000000E+00 0. -1.
</event>
<event>
 8    1  0.1212194E-006  0.9118800E+02  0.7816164E-02  0.1184000E+00
        -11   -1    0    0    0    0  0.00000000000E+00  0.00000000000E+00  0.45593999997E+02  0.45594000000E+02  0.51100000000E-03 0. -1.
         11   -1    0    0    0    0 -0.00000000000E+00 -0.00000000000E+00 -0.45593999997E+02  0.45594000000E+02  0.51100000000E-03 0.  1.
         23    2    1    2    0    0  0.00000000000E+00  0.00000000000E+00  0.00000000000E+00  0.91188000000E+02  0.91188000000E+02 0.  0.
    9900012    2    3    3    0    0 -0.10113576200E+02  0.19089245387E+02 -0.29817694630E+02  0.54367100690E+02  0.40000037642E+02 0.  0.
         12    1    3    3    0    0  0.10113576200E+02 -0.19089245387E+02  0.29817694630E+02  0.36820899310E+02  0.00000000000E+00 0. -1.
         11    1    4    4    0    0 -0.82259335371E+01  0.11041460367E+02  0.49670411489E+01  0.14637326519E+02  0.51100000000E-03 0. -1.
        -11    1    4    4    0    0 -0.21797992470E+01  0.13139277636E+02 -0.29593689857E+02  0.32452713618E+02  0.51100000000E-03 0.  1.
        -12    1    4    4    0    0  0.29215658439E+00 -0.50914926156E+01 -0.51910459216E+01  0.72770605525E+01  0.00000000000E+00 0.  1.
</event>
<event>
 8    1  0.1212194E-006  0.9118800E+02  0.7816164E-02  0.1184000E+00
        -11   -1    0    0    0    0  0.00000000000E+00  0.00000000000E+00  0.45593999997E+02  0.45594000000E+02  0.51100000000E-03 0. -1.
         11   -1    0    0    0    0 -0.00000000000E+00 -0.00000000000E+00 -0.45593999997E+02  0.45594000000E+02  0.51100000000E-03 0.  1.
         23    2    1    2    0    0 -0.17763568394E-14  0.00000000000E+00  0.71054273576E-14  0.91188000000E+02  0.91188000000E+02 0.  0.
    9900012    2    3    3    0    0 -0.11471972238E+02  0.87828362271E+01  0.33867910781E+02  0.54367085564E+02  0.40000003160E+02 0.  0.
        -12    1    3    3    0    0  0.11471972238E+02 -0.87828362271E+01 -0.33867910781E+02  0.36820914436E+02  0.00000000000E+00 0.  1.
         11    1    4    4    0    0  0.25842400258E+01 -0.34545444526E+01  0.27273229639E+02  0.27612338349E+02  0.51100000000E-03 0. -1.
        -11    1    4    4    0    0 -0.17207935524E+02  0.13954845980E+02  0.45284879774E+01  0.22613225664E+02  0.51100000000E-03 0.  1.
        -12    1    4    4    0    0  0.31517232597E+01 -0.17174653004E+01  0.20661931645E+01  0.41415215509E+01  0.00000000000E+00 0.  1.
</event>
<event>
 8    1  0.1212194E-006  0.9118800E+02  0.7816164E-02  0.1184000E+00
        -11   -1    0    0    0    0  0.00000000000E+00  0.00000000000E+00  0.45593999997E+02  0.45594000000E+02  0.51100000000E-03 0.  1.
         11   -1    0    0    0    0 -0.00000000000E+00 -0.00000000000E+00 -0.45593999997E+02  0.45594000000E+02  0.51100000000E-03 0. -1.
         23    2    1    2    0    0 -0.83266726847E-16  0.00000000000E+00  0.00000000000E+00  0.91188000000E+02  0.91188000000E+02 0.  0.
    9900012    2    3    3    0    0 -0.24436294527E+00 -0.28215392926E+02  0.23656119259E+02  0.54367080815E+02  0.39999992333E+02 0.  0.
         12    1    3    3    0    0  0.24436294527E+00  0.28215392926E+02 -0.23656119259E+02  0.36820919185E+02  0.00000000000E+00 0. -1.
         11    1    4    4    0    0  0.51852195452E+00 -0.26855851399E+02  0.94833011063E+01  0.28485761698E+02  0.51100000000E-03 0. -1.
        -11    1    4    4    0    0  0.22240310254E+01 -0.10286084049E+02  0.12467156197E+02  0.16315018325E+02  0.51100000000E-03 0.  1.
         12    1    4    4    0    0 -0.29869159252E+01  0.89265425211E+01  0.17056619562E+01  0.95663007915E+01  0.00000000000E+00 0. -1.
</event>
<event>
 8    1  0.1212194E-006  0.9118800E+02  0.7816164E-02  0.1184000E+00
        -11   -1    0    0    0    0  0.00000000000E+00  0.00000000000E+00  0.45593999997E+02  0.45594000000E+02  0.51100000000E-03 0.  1.
         11   -1    0    0    0    0 -0.00000000000E+00 -0.00000000000E+00 -0.45593999997E+02  0.45594000000E+02  0.51100000000E-03 0. -1.
         23    2    1    2    0    0  0.00000000000E+00  0.00000000000E+00  0.35527136788E-14  0.91188000000E+02  0.91188000000E+02 0.  0.
    9900012    2    3    3    0    0 -0.35417176719E+02 -0.89560278764E+01 -0.46035432529E+01  0.54367089467E+02  0.40000012057E+02 0.  0.
         12    1    3    3    0    0  0.35417176719E+02  0.89560278764E+01  0.46035432529E+01  0.36820910533E+02  0.00000000000E+00 0. -1.
         11    1    4    4    0    0 -0.99829473713E+01  0.22587379424E+01 -0.60807448150E+01  0.11905317849E+02  0.51100000000E-03 0. -1.
        -11    1    4    4    0    0 -0.21357150493E+02 -0.13960051968E+02  0.13932977178E+02  0.29071270723E+02  0.51100000000E-03 0.  1.
        -12    1    4    4    0    0 -0.40770788542E+01  0.27452861492E+01 -0.12455775616E+02  0.13390500895E+02  0.00000000000E+00 0.  1.
</event>
<event>
 8    1  0.1212194E-006  0.9118800E+02  0.7816164E-02  0.1184000E+00
        -11   -1    0    0    0    0  0.00000000000E+00  0.00000000000E+00  0.45593999997E+02  0.45594000000E+02  0.51100000000E-03 0. -1.
         11   -1    0    0    0    0 -0.00000000000E+00 -0.00000000000E+00 -0.45593999997E+02  0.45594000000E+02  0.51100000000E-03 0.  1.
         23    2    1    2    0    0  0.26645352591E-14  0.00000000000E+00  0.00000000000E+00  0.91188000000E+02  0.91188000000E+02 0.  0.
    9900012    2    3    3    0    0  0.79435051367E+01  0.16282947200E+02  0.32055360489E+02  0.54367085026E+02  0.40000001935E+02 0.  0.
        -12    1    3    3    0    0 -0.79435051367E+01 -0.16282947200E+02 -0.32055360489E+02  0.36820914974E+02  0.00000000000E+00 0.  1.
         11    1    4    4    0    0  0.13578473640E+02 -0.36095476917E+01  0.13765539923E+02  0.19669617957E+02  0.51100000000E-03 0. -1.
        -11    1    4    4    0    0 -0.10701291351E+02  0.16571558668E+02  0.20308717721E+02  0.28312156558E+02  0.51100000000E-03 0.  1.
        -12    1    4    4    0    0  0.50663228477E+01  0.33209362240E+01 -0.20188971550E+01  0.63853105111E+01  0.00000000000E+00 0.  1.
</event>
<event>
 8    1  0.1212194E-006  0.9118800E+02  0.7816164E-02  0.1184000E+00
        -11   -1    0    0    0    0  0.00000000000E+00  0.00000000000E+00  0.45593999997E+02  0.45594000000E+02  0.51100000000E-03 0.  1.
         11   -1    0    0    0    0 -0.00000000000E+00 -0.00000000000E+00 -0.45593999997E+02  0.45594000000E+02  0.51100000000E-03 0. -1.
         23    2    1    2    0    0  0.00000000000E+00  0.00000000000E+00  0.00000000000E+00  0.91188000000E+02  0.91188000000E+02 0.  0.
    9900012    2    3    3    0    0 -0.77944559056E+01  0.30704636969E+02 -0.18768395730E+02  0.54367069097E+02  0.39999965621E+02 0.  0.
        -12    1    3    3    0    0  0.77944559056E+01 -0.30704636969E+02  0.18768395730E+02  0.36820930903E+02  0.00000000000E+00 0.  1.
         11    1    4    4    0    0  0.53687686580E+01  0.30111081242E+02 -0.21454087446E+02  0.37360122575E+02  0.51100000000E-03 0. -1.
        -11    1    4    4    0    0 -0.63955816472E+01 -0.49051456201E+01  0.16323440540E+01  0.82236528095E+01  0.51100000000E-03 0.  1.
         12    1    4    4    0    0 -0.67676429164E+01  0.54987013470E+01  0.10533476611E+01  0.87832937126E+01  0.00000000000E+00 0. -1.
</event>
<event>
 8    1  0.1212194E-006  0.9118800E+02  0.7816164E-02  0.1184000E+00
        -11   -1    0    0    0    0  0.00000000000E+00  0.00000000000E+00  0.45593999997E+02  0.45594000000E+02  0.51100000000E-03 0.  1.
         11   -1    0    0    0    0 -0.00000000000E+00 -0.00000000000E+00 -0.45593999997E+02  0.45594000000E+02  0.51100000000E-03 0. -1.
         23    2    1    2    0    0 -0.44408920985E-15  0.00000000000E+00  0.00000000000E+00  0.91188000000E+02  0.91188000000E+02 0.  0.
    9900012    2    3    3    0    0  0.18009614223E+01  0.29519969536E+02 -0.21934168601E+02  0.54367084535E+02  0.40000000814E+02 0.  0.
        -12    1    3    3    0    0 -0.18009614223E+01 -0.29519969536E+02  0.21934168601E+02  0.36820915465E+02  0.00000000000E+00 0.  1.
         11    1    4    4    0    0  0.48800309512E+01 -0.37950125539E+00 -0.21282373460E+02  0.21837997702E+02  0.51100000000E-03 0. -1.
        -11    1    4    4    0    0  0.20486808555E+01  0.11674162560E+02  0.48598674678E+01  0.12810209866E+02  0.51100000000E-03 0.  1.
        -12    1    4    4    0    0 -0.51277503845E+01  0.18225308231E+02 -0.55116626093E+01  0.19718876967E+02  0.00000000000E+00 0.  1.
</event>
<event>
 8    1  0.1212194E-006  0.9118800E+02  0.7816164E-02  0.1184000E+00
        -11   -1    0    0    0    0  0.00000000000E+00  0.00000000000E+00  0.45593999997E+02  0.45594000000E+02  0.51100000000E-03 0.  1.
         11   -1    0    0    0    0 -0.00000000000E+00 -0.00000000000E+00 -0.45593999997E+02  0.45594000000E+02  0.51100000000E-03 0. -1.
         23    2    1    2    0    0  0.00000000000E+00  0.00000000000E+00  0.00000000000E+00  0.91188000000E+02  0.91188000000E+02 0.  0.
    9900012    2    3    3    0    0 -0.15268946420E+02 -0.25377577204E+02  0.21877339360E+02  0.54367080308E+02  0.39999991178E+02 0.  0.
         12    1    3    3    0    0  0.15268946420E+02  0.25377577204E+02 -0.21877339360E+02  0.36820919692E+02  0.00000000000E+00 0. -1.
         11    1    4    4    0    0 -0.80096865411E+01 -0.34170373720E+01  0.17155255274E+02  0.19238867084E+02  0.51100000000E-03 0. -1.
        -11    1    4    4    0    0 -0.10309196930E+02 -0.25947558503E+02  0.81071282005E+01  0.29073714271E+02  0.51100000000E-03 0.  1.
         12    1    4    4    0    0  0.30499370516E+01  0.39870186709E+01 -0.33850441152E+01  0.60544989522E+01  0.00000000000E+00 0. -1.
</event>
<event>
 8    1  0.1212194E-006  0.9118800E+02  0.7816164E-02  0.1184000E+00
        -11   -1    0    0    0    0  0.00000000000E+00  0.00000000000E+00  0.45593999997E+02  0.45594000000E+02  0.51100000000E-03 0. -1.
         11   -1    0    0    0    0 -0.00000000000E+00 -0.00000000000E+00 -0.45593999997E+02  0.45594000000E+02  0.51100000000E-03 0.  1.
         23    2    1    2    0    0  0.00000000000E+00 -0.35527136788E-14 -0.35527136788E-14  0.91188000000E+02  0.91188000000E+02 0.  0.
    9900012    2    3    3    0    0 -0.43417000102E+01 -0.29263063454E+02 -0.21922685083E+02  0.54367063525E+02  0.39999952917E+02 0.  0.
        -12    1    3    3    0    0  0.43417000102E+01  0.29263063454E+02  0.21922685083E+02  0.36820936475E+02  0.00000000000E+00 0.  1.
         11    1    4    4    0    0  0.28029338363E+01 -0.17990589975E+02 -0.79636765228E+01  0.19873044803E+02  0.51100000000E-03 0. -1.
        -11    1    4    4    0    0  0.10963479162E+02 -0.67612064526E+01 -0.55599021809E+01  0.14029408418E+02  0.51100000000E-03 0.  1.
        -12    1    4    4    0    0 -0.18108113008E+02 -0.45112670262E+01 -0.83991063795E+01  0.20464610304E+02  0.00000000000E+00 0.  1.
</event>
<event>
 8    1  0.1212194E-006  0.9118800E+02  0.7816164E-02  0.1184000E+00
        -11   -1    0    0    0    0  0.00000000000E+00  0.00000000000E+00  0.45593999997E+02  0.45594000000E+02  0.51100000000E-03 0.  1.
         11   -1    0    0    0    0 -0.00000000000E+00 -0.00000000000E+00 -0.45593999997E+02  0.45594000000E+02  0.51100000000E-03 0. -1.
         23    2    1    2    0    0  0.00000000000E+00  0.00000000000E+00  0.00000000000E+00  0.91188000000E+02  0.91188000000E+02 0.  0.
    9900012    2    3    3    0    0 -0.31308091693E+02 -0.53091659244E+01 -0.18638549723E+02  0.54367090397E+02  0.40000014178E+02 0.  0.
        -12    1    3    3    0    0  0.31308091693E+02  0.53091659244E+01  0.18638549723E+02  0.36820909603E+02  0.00000000000E+00 0.  1.
         11    1    4    4    0    0 -0.12468116491E+02 -0.41442408086E+01 -0.18721690934E+02  0.22872043467E+02  0.51100000000E-03 0. -1.
        -11    1    4    4    0    0  0.30149947253E+01  0.73362788932E+01  0.11815131029E+01  0.80191741885E+01  0.51100000000E-03 0.  1.
         12    1    4    4    0    0 -0.21854969927E+02 -0.85012040091E+01 -0.10983718918E+01  0.23475872741E+02  0.00000000000E+00 0. -1.
</event>
<event>
 8    1  0.1212194E-006  0.9118800E+02  0.7816164E-02  0.1184000E+00
        -11   -1    0    0    0    0  0.00000000000E+00  0.00000000000E+00  0.45593999997E+02  0.45594000000E+02  0.51100000000E-03 0. -1.
         11   -1    0    0    0    0 -0.00000000000E+00 -0.00000000000E+00 -0.45593999997E+02  0.45594000000E+02  0.51100000000E-03 0.  1.
         23    2    1    2    0    0 -0.71054273576E-14  0.00000000000E+00  0.17763568394E-14  0.91188000000E+02  0.91188000000E+02 0.  0.
    9900012    2    3    3    0    0  0.33811123065E+02  0.94582415787E+01 -0.11096359705E+02  0.54367087798E+02  0.40000008253E+02 0.  0.
         12    1    3    3    0    0 -0.33811123065E+02 -0.94582415787E+01  0.11096359705E+02  0.36820912202E+02  0.00000000000E+00 0. -1.
         11    1    4    4    0    0 -0.65993147320E+01 -0.50398293859E+01 -0.97664511030E+00  0.83609013331E+01  0.51100000000E-03 0. -1.
        -11    1    4    4    0    0  0.24158445649E+02  0.12024710457E+02 -0.56394396169E+00  0.26991520720E+02  0.51100000000E-03 0.  1.
         12    1    4    4    0    0  0.16251992149E+02  0.24733605078E+01 -0.95557706325E+01  0.19014665745E+02  0.00000000000E+00 0. -1.
</event>
<event>
 8    1  0.1212194E-006  0.9118800E+02  0.7816164E-02  0.1184000E+00
        -11   -1    0    0    0    0  0.00000000000E+00  0.00000000000E+00  0.45593999997E+02  0.45594000000E+02  0.51100000000E-03 0.  1.
         11   -1    0    0    0    0 -0.00000000000E+00 -0.00000000000E+00 -0.45593999997E+02  0.45594000000E+02  0.51100000000E-03 0. -1.
         23    2    1    2    0    0 -0.17763568394E-14  0.00000000000E+00  0.00000000000E+00  0.91188000000E+02  0.91188000000E+02 0.  0.
    9900012    2    3    3    0    0  0.13584655406E+02 -0.24553421515E+02  0.23840452947E+02  0.54367074329E+02  0.39999977547E+02 0.  0.
         12    1    3    3    0    0 -0.13584655406E+02  0.24553421515E+02 -0.23840452947E+02  0.36820925671E+02  0.00000000000E+00 0. -1.
         11    1    4    4    0    0 -0.63801789877E+01 -0.19677298660E+02  0.55421621949E+01  0.21415375984E+02  0.51100000000E-03 0.  1.
        -11    1    4    4    0    0  0.11549370508E+01  0.29398894210E+00  0.12561844160E+02  0.12618250198E+02  0.51100000000E-03 0. -1.
        -12    1    4    4    0    0  0.18809897343E+02 -0.51701117969E+01  0.57364465914E+01  0.20333448147E+02  0.00000000000E+00 0.  1.
</event>
<event>
 8    1  0.1212194E-006  0.9118800E+02  0.7816164E-02  0.1184000E+00
        -11   -1    0    0    0    0  0.00000000000E+00  0.00000000000E+00  0.45593999997E+02  0.45594000000E+02  0.51100000000E-03 0. -1.
         11   -1    0    0    0    0 -0.00000000000E+00 -0.00000000000E+00 -0.45593999997E+02  0.45594000000E+02  0.51100000000E-03 0.  1.
         23    2    1    2    0    0  0.00000000000E+00  0.00000000000E+00  0.00000000000E+00  0.91188000000E+02  0.91188000000E+02 0.  0.
    9900012    2    3    3    0    0 -0.24235777223E+02  0.24689808571E+02  0.12602341015E+02  0.54367101805E+02  0.40000040184E+02 0.  0.
        -12    1    3    3    0    0  0.24235777223E+02 -0.24689808571E+02 -0.12602341015E+02  0.36820898195E+02  0.00000000000E+00 0.  1.
         11    1    4    4    0    0 -0.17680378803E+02  0.11416924009E+01 -0.60248193947E+00  0.17727443158E+02  0.51100000000E-03 0. -1.
        -11    1    4    4    0    0  0.21428950751E+01 -0.43397003842E+01  0.81535731303E+00  0.49081367683E+01  0.51100000000E-03 0.  1.
         12    1    4    4    0    0 -0.86982934950E+01  0.27887816554E+02  0.12389465641E+02  0.31731521879E+02  0.00000000000E+00 0. -1.
</event>
<event>
 8    1  0.1212194E-006  0.9118800E+02  0.7816164E-02  0.1184000E+00
        -11   -1    0    0    0    0  0.00000000000E+00  0.00000000000E+00  0.45593999997E+02  0.45594000000E+02  0.51100000000E-03 0. -1.
         11   -1    0    0    0    0 -0.00000000000E+00 -0.00000000000E+00 -0.45593999997E+02  0.45594000000E+02  0.51100000000E-03 0.  1.
         23    2    1    2    0    0 -0.88817841970E-15  0.00000000000E+00  0.00000000000E+00  0.91188000000E+02  0.91188000000E+02 0.  0.
    9900012    2    3    3    0    0  0.73115845555E+01  0.16228173158E+02  0.32232981006E+02  0.54367110043E+02  0.40000058964E+02 0.  0.
        -12    1    3    3    0    0 -0.73115845555E+01 -0.16228173158E+02 -0.32232981006E+02  0.36820889957E+02  0.00000000000E+00 0.  1.
         11    1    4    4    0    0 -0.16046025081E+01  0.71953604019E+01  0.38322442185E+02  0.39025088543E+02  0.51100000000E-03 0. -1.
        -11    1    4    4    0    0  0.36927390426E+01  0.27788147467E+00 -0.27557684882E+01  0.46160372585E+01  0.51100000000E-03 0.  1.
         12    1    4    4    0    0  0.52234480210E+01  0.87549312814E+01 -0.33336926914E+01  0.10725984241E+02  0.00000000000E+00 0. -1.
</event>
<event>
 8    1  0.1212194E-006  0.9118800E+02  0.7816164E-02  0.1184000E+00
        -11   -1    0    0    0    0  0.00000000000E+00  0.00000000000E+00  0.45593999997E+02  0.45594000000E+02  0.51100000000E-03 0. -1.
         11   -1    0    0    0    0 -0.00000000000E+00 -0.00000000000E+00 -0.45593999997E+02  0.45594000000E+02  0.51100000000E-03 0.  1.
         23    2    1    2    0    0 -0.17763568394E-14  0.17763568394E-14  0.00000000000E+00  0.91188000000E+02  0.91188000000E+02 0.  0.
    9900012    2    3    3    0    0 -0.14659007821E+02 -0.15536102219E+02 -0.29992055312E+02  0.54367077085E+02  0.39999983831E+02 0.  0.
         12    1    3    3    0    0  0.14659007821E+02  0.15536102219E+02  0.29992055312E+02  0.36820922915E+02  0.00000000000E+00 0. -1.
         11    1    4    4    0    0  0.50229212190E+01  0.48065261377E+01 -0.57886789754E+01  0.90466145948E+01  0.51100000000E-03 0. -1.
        -11    1    4    4    0    0  0.47574065907E+01 -0.11114011398E+02 -0.61346625459E+01  0.13556852571E+02  0.51100000000E-03 0.  1.
         12    1    4    4    0    0 -0.24439335631E+02 -0.92286169583E+01 -0.18068713791E+02  0.31763609919E+02  0.00000000000E+00 0. -1.
</event>
<event>
 8    1  0.1212194E-006  0.9118800E+02  0.7816164E-02  0.1184000E+00
        -11   -1    0    0    0    0  0.00000000000E+00  0.00000000000E+00  0.45593999997E+02  0.45594000000E+02  0.51100000000E-03 0.  1.
         11   -1    0    0    0    0 -0.00000000000E+00 -0.00000000000E+00 -0.45593999997E+02  0.45594000000E+02  0.51100000000E-03 0. -1.
         23    2    1    2    0    0 -0.11102230246E-14  0.00000000000E+00  0.00000000000E+00  0.91188000000E+02  0.91188000000E+02 0.  0.
    9900012    2    3    3    0    0 -0.15989229127E+01  0.10686041775E+02 -0.35199871282E+02  0.54367095861E+02  0.40000026635E+02 0.  0.
        -12    1    3    3    0    0  0.15989229127E+01 -0.10686041775E+02  0.35199871282E+02  0.36820904139E+02  0.00000000000E+00 0.  1.
         11    1    4    4    0    0 -0.84148986702E+01 -0.19258240626E+01 -0.17159880940E+02  0.19208873785E+02  0.51100000000E-03 0. -1.
        -11    1    4    4    0    0 -0.11876863380E+01 -0.37122304469E+01 -0.16453135727E+02  0.16908486900E+02  0.51100000000E-03 0.  1.
         12    1    4    4    0    0  0.80036620955E+01  0.16324096285E+02 -0.15868546153E+01  0.18249735177E+02  0.00000000000E+00 0. -1.
</event>
<event>
 8    1  0.1212194E-006  0.9118800E+02  0.7816164E-02  0.1184000E+00
        -11   -1    0    0    0    0  0.00000000000E+00  0.00000000000E+00  0.45593999997E+02  0.45594000000E+02  0.51100000000E-03 0.  1.
         11   -1    0    0    0    0 -0.00000000000E+00 -0.00000000000E+00 -0.45593999997E+02  0.45594000000E+02  0.51100000000E-03 0. -1.
         23    2    1    2    0    0 -0.71054273576E-14  0.00000000000E+00  0.35527136788E-14  0.91188000000E+02  0.91188000000E+02 0.  0.
    9900012    2    3    3    0    0  0.23142763252E+02 -0.11563704878E+02 -0.26200618444E+02  0.54367093326E+02  0.40000020855E+02 0.  0.
        -12    1    3    3    0    0 -0.23142763252E+02  0.11563704878E+02  0.26200618444E+02  0.36820906674E+02  0.00000000000E+00 0.  1.
         11    1    4    4    0    0  0.10418475446E+02  0.29345093440E+01 -0.11377947317E+02  0.15703937758E+02  0.51100000000E-03 0. -1.
        -11    1    4    4    0    0  0.62240899384E+01 -0.92900534115E+01 -0.23873694502E+02  0.26362808602E+02  0.51100000000E-03 0.  1.
        -12    1    4    4    0    0  0.65001978679E+01 -0.52081608101E+01  0.90510233746E+01  0.12300346966E+02  0.00000000000E+00 0.  1.
</event>
<event>
 8    1  0.1212194E-006  0.9118800E+02  0.7816164E-02  0.1184000E+00
        -11   -1    0    0    0    0  0.00000000000E+00  0.00000000000E+00  0.45593999997E+02  0.45594000000E+02  0.51100000000E-03 0.  1.
         11   -1    0    0    0    0 -0.00000000000E+00 -0.00000000000E+00 -0.45593999997E+02  0.45594000000E+02  0.51100000000E-03 0. -1.
         23    2    1    2    0    0 -0.17763568394E-14  0.00000000000E+00  0.35527136788E-14  0.91188000000E+02  0.91188000000E+02 0.  0.
    9900012    2    3    3    0    0 -0.12646321945E+02  0.17522372465E+02  0.29813031946E+02  0.54367083806E+02  0.39999999153E+02 0.  0.
         12    1    3    3    0    0  0.12646321945E+02 -0.17522372465E+02 -0.29813031946E+02  0.36820916194E+02  0.00000000000E+00 0. -1.
         11    1    4    4    0    0  0.13603098071E+01  0.70203532512E+01 -0.38532713311E+01  0.81230230059E+01  0.51100000000E-03 0. -1.
        -11    1    4    4    0    0 -0.13848080322E+02  0.12272033147E+02  0.37611799908E+02  0.41916817851E+02  0.51100000000E-03 0.  1.
        -12    1    4    4    0    0 -0.15855142951E+00 -0.17700139331E+01 -0.39454966307E+01  0.43272429493E+01  0.00000000000E+00 0.  1.
</event>
<event>
 8    1  0.1212194E-006  0.9118800E+02  0.7816164E-02  0.1184000E+00
        -11   -1    0    0    0    0  0.00000000000E+00  0.00000000000E+00  0.45593999997E+02  0.45594000000E+02  0.51100000000E-03 0.  1.
         11   -1    0    0    0    0 -0.00000000000E+00 -0.00000000000E+00 -0.45593999997E+02  0.45594000000E+02  0.51100000000E-03 0. -1.
         23    2    1    2    0    0 -0.66613381478E-15 -0.44408920985E-15  0.00000000000E+00  0.91188000000E+02  0.91188000000E+02 0.  0.
    9900012    2    3    3    0    0 -0.13596205166E+01  0.28005200662E+01  0.36689079388E+02  0.54367081666E+02  0.39999994275E+02 0.  0.
         12    1    3    3    0    0  0.13596205166E+01 -0.28005200662E+01 -0.36689079388E+02  0.36820918334E+02  0.00000000000E+00 0. -1.
         11    1    4    4    0    0 -0.19327848290E+01 -0.19790957980E+01 -0.57999146632E+01  0.64258452933E+01  0.51100000000E-03 0. -1.
        -11    1    4    4    0    0  0.10317587155E+02  0.63004229278E+01  0.19759814377E+02  0.23164589317E+02  0.51100000000E-03 0.  1.
         12    1    4    4    0    0 -0.97444228426E+01 -0.15208070637E+01  0.22729179675E+02  0.24776647056E+02  0.00000000000E+00 0. -1.
</event>
<event>
 8    1  0.1212194E-006  0.9118800E+02  0.7816164E-02  0.1184000E+00
        -11   -1    0    0    0    0  0.00000000000E+00  0.00000000000E+00  0.45593999997E+02  0.45594000000E+02  0.51100000000E-03 0.  1.
         11   -1    0    0    0    0 -0.00000000000E+00 -0.00000000000E+00 -0.45593999997E+02  0.45594000000E+02  0.51100000000E-03 0. -1.
         23    2    1    2    0    0  0.00000000000E+00  0.35527136788E-14 -0.17763568394E-14  0.91188000000E+02  0.91188000000E+02 0.  0.
    9900012    2    3    3    0    0  0.27236967947E+02  0.20817586446E+02 -0.13437051849E+02  0.54367099810E+02  0.40000035638E+02 0.  0.
        -12    1    3    3    0    0 -0.27236967947E+02 -0.20817586446E+02  0.13437051849E+02  0.36820900190E+02  0.00000000000E+00 0.  1.
         11    1    4    4    0    0 -0.53136689597E-01 -0.18334200521E+01 -0.15332835444E+02  0.15442153205E+02  0.51100000000E-03 0. -1.
        -11    1    4    4    0    0  0.72160732001E+01  0.14732521797E+02  0.49386272763E+01  0.17132102923E+02  0.51100000000E-03 0.  1.
         12    1    4    4    0    0  0.20074031437E+02  0.79184847002E+01 -0.30428436812E+01  0.21792843682E+02  0.00000000000E+00 0. -1.
</event>
<event>
 8    1  0.1212194E-006  0.9118800E+02  0.7816164E-02  0.1184000E+00
        -11   -1    0    0    0    0  0.00000000000E+00  0.00000000000E+00  0.45593999997E+02  0.45594000000E+02  0.51100000000E-03 0.  1.
         11   -1    0    0    0    0 -0.00000000000E+00 -0.00000000000E+00 -0.45593999997E+02  0.45594000000E+02  0.51100000000E-03 0. -1.
         23    2    1    2    0    0  0.00000000000E+00  0.00000000000E+00 -0.35527136788E-14  0.91188000000E+02  0.91188000000E+02 0.  0.
    9900012    2    3    3    0    0  0.31858228625E+02  0.46052539820E+01  0.17878032227E+02  0.54367093823E+02  0.40000021989E+02 0.  0.
         12    1    3    3    0    0 -0.31858228625E+02 -0.46052539820E+01 -0.17878032227E+02  0.36820906177E+02  0.00000000000E+00 0. -1.
         11    1    4    4    0    0  0.28857222230E+01 -0.31471447415E+01  0.82993943057E+01  0.93333733920E+01  0.51100000000E-03 0. -1.
        -11    1    4    4    0    0 -0.15082209231E+01 -0.46664741771E+01 -0.67091955059E+01  0.83104762917E+01  0.51100000000E-03 0.  1.
        -12    1    4    4    0    0  0.30480727325E+02  0.12418872901E+02  0.16287833427E+02  0.36723244140E+02  0.00000000000E+00 0.  1.
</event>
<event>
 8    1  0.1212194E-006  0.9118800E+02  0.7816164E-02  0.1184000E+00
        -11   -1    0    0    0    0  0.00000000000E+00  0.00000000000E+00  0.45593999997E+02  0.45594000000E+02  0.51100000000E-03 0. -1.
         11   -1    0    0    0    0 -0.00000000000E+00 -0.00000000000E+00 -0.45593999997E+02  0.45594000000E+02  0.51100000000E-03 0.  1.
         23    2    1    2    0    0  0.00000000000E+00 -0.71054273576E-14  0.00000000000E+00  0.91188000000E+02  0.91188000000E+02 0.  0.
    9900012    2    3    3    0    0 -0.10234520186E+02 -0.34171353227E+02 -0.91290180303E+01  0.54367275469E+02  0.40000436083E+02 0.  0.
         12    1    3    3    0    0  0.10234520186E+02  0.34171353227E+02  0.91290180303E+01  0.36820724531E+02  0.00000000000E+00 0. -1.
         11    1    4    4    0    0  0.74380874918E+01 -0.25786445604E+02 -0.34752484737E+01  0.27061841671E+02  0.51100000000E-03 0. -1.
        -11    1    4    4    0    0 -0.61869641572E+01 -0.69732801507E+01 -0.11117170639E+02  0.14508502501E+02  0.51100000000E-03 0.  1.
         12    1    4    4    0    0 -0.11485643521E+02 -0.14116274723E+01  0.54634010825E+01  0.12796931296E+02  0.00000000000E+00 0. -1.
</event>
<event>
 8    1  0.1212194E-006  0.9118800E+02  0.7816164E-02  0.1184000E+00
        -11   -1    0    0    0    0  0.00000000000E+00  0.00000000000E+00  0.45593999997E+02  0.45594000000E+02  0.51100000000E-03 0. -1.
         11   -1    0    0    0    0 -0.00000000000E+00 -0.00000000000E+00 -0.45593999997E+02  0.45594000000E+02  0.51100000000E-03 0.  1.
         23    2    1    2    0    0  0.17763568394E-14  0.00000000000E+00  0.88817841970E-15  0.91188000000E+02  0.91188000000E+02 0.  0.
    9900012    2    3    3    0    0 -0.46681624695E+01  0.35651264051E+02  0.79356846178E+01  0.54367089370E+02  0.40000011837E+02 0.  0.
         12    1    3    3    0    0  0.46681624695E+01 -0.35651264051E+02 -0.79356846178E+01  0.36820910630E+02  0.00000000000E+00 0. -1.
         11    1    4    4    0    0 -0.52268057417E+01  0.23819633729E+01  0.76433314843E+01  0.95610545554E+01  0.51100000000E-03 0. -1.
        -11    1    4    4    0    0 -0.12103988075E+02  0.17285094350E+02  0.85996977234E+01  0.22786746481E+02  0.51100000000E-03 0.  1.
        -12    1    4    4    0    0  0.12662631347E+02  0.15984206328E+02 -0.83073445898E+01  0.22019288334E+02  0.00000000000E+00 0.  1.
</event>
<event>
 8    1  0.1212194E-006  0.9118800E+02  0.7816164E-02  0.1184000E+00
        -11   -1    0    0    0    0  0.00000000000E+00  0.00000000000E+00  0.45593999997E+02  0.45594000000E+02  0.51100000000E-03 0. -1.
         11   -1    0    0    0    0 -0.00000000000E+00 -0.00000000000E+00 -0.45593999997E+02  0.45594000000E+02  0.51100000000E-03 0.  1.
         23    2    1    2    0    0 -0.66613381478E-15 -0.13322676296E-14  0.00000000000E+00  0.91188000000E+02  0.91188000000E+02 0.  0.
    9900012    2    3    3    0    0  0.15979137682E+01  0.20982082526E+01  0.36726490544E+02  0.54366933830E+02  0.39999657250E+02 0.  0.
        -12    1    3    3    0    0 -0.15979137682E+01 -0.20982082526E+01 -0.36726490544E+02  0.36821066170E+02  0.00000000000E+00 0.  1.
         11    1    4    4    0    0  0.12680257313E+02 -0.31027423489E+01  0.12731462384E+02  0.18234748979E+02  0.51100000000E-03 0. -1.
        -11    1    4    4    0    0  0.32580479896E+01  0.97572822367E+01  0.38404560066E+01  0.10980370483E+02  0.51100000000E-03 0.  1.
        -12    1    4    4    0    0 -0.14340391534E+02 -0.45563316352E+01  0.20154572153E+02  0.25151814368E+02  0.00000000000E+00 0.  1.
</event>
<event>
 8    1  0.1212194E-006  0.9118800E+02  0.7816164E-02  0.1184000E+00
        -11   -1    0    0    0    0  0.00000000000E+00  0.00000000000E+00  0.45593999997E+02  0.45594000000E+02  0.51100000000E-03 0.  1.
         11   -1    0    0    0    0 -0.00000000000E+00 -0.00000000000E+00 -0.45593999997E+02  0.45594000000E+02  0.51100000000E-03 0. -1.
         23    2    1    2    0    0  0.00000000000E+00  0.17763568394E-14  0.17763568394E-14  0.91188000000E+02  0.91188000000E+02 0.  0.
    9900012    2    3    3    0    0 -0.35232266628E+02 -0.96477748163E+01 -0.46254454000E+01  0.54366988121E+02  0.39999781020E+02 0.  0.
        -12    1    3    3    0    0  0.35232266628E+02  0.96477748163E+01  0.46254454000E+01  0.36821011879E+02  0.00000000000E+00 0.  1.
         11    1    4    4    0    0 -0.35478747347E+02 -0.19584947474E+01 -0.84037965182E+00  0.35542699014E+02  0.51100000000E-03 0. -1.
        -11    1    4    4    0    0  0.26466531826E+01 -0.71308642314E+01 -0.97525847324E+01  0.12367979098E+02  0.51100000000E-03 0.  1.
         12    1    4    4    0    0 -0.24001724629E+01 -0.55841583755E+00  0.59675189842E+01  0.64563100086E+01  0.00000000000E+00 0. -1.
</event>
<event>
 8    1  0.1212194E-006  0.9118800E+02  0.7816164E-02  0.1184000E+00
        -11   -1    0    0    0    0  0.00000000000E+00  0.00000000000E+00  0.45593999997E+02  0.45594000000E+02  0.51100000000E-03 0.  1.
         11   -1    0    0    0    0 -0.00000000000E+00 -0.00000000000E+00 -0.45593999997E+02  0.45594000000E+02  0.51100000000E-03 0. -1.
         23    2    1    2    0    0  0.10658141036E-13 -0.35527136788E-14  0.88817841970E-15  0.91188000000E+02  0.91188000000E+02 0.  0.
    9900012    2    3    3    0    0 -0.25443701429E+02 -0.25865042200E+02  0.62776171396E+01  0.54366935005E+02  0.39999659930E+02 0.  0.
         12    1    3    3    0    0  0.25443701429E+02  0.25865042200E+02 -0.62776171396E+01  0.36821064995E+02  0.00000000000E+00 0. -1.
         11    1    4    4    0    0  0.60042854179E+01 -0.74846766017E+01 -0.50692108464E+01  0.10852130025E+02  0.51100000000E-03 0. -1.
        -11    1    4    4    0    0 -0.32240813265E+02 -0.20748911414E+02  0.77180865183E+01  0.39109541350E+02  0.51100000000E-03 0.  1.
         12    1    4    4    0    0  0.79282641794E+00  0.23685458163E+01  0.36287414677E+01  0.44052636302E+01  0.00000000000E+00 0. -1.
</event>
<event>
 8    1  0.1212194E-006  0.9118800E+02  0.7816164E-02  0.1184000E+00
        -11   -1    0    0    0    0  0.00000000000E+00  0.00000000000E+00  0.45593999997E+02  0.45594000000E+02  0.51100000000E-03 0. -1.
         11   -1    0    0    0    0 -0.00000000000E+00 -0.00000000000E+00 -0.45593999997E+02  0.45594000000E+02  0.51100000000E-03 0.  1.
         23    2    1    2    0    0 -0.17763568394E-14 -0.44408920985E-15  0.71054273576E-14  0.91188000000E+02  0.91188000000E+02 0.  0.
    9900012    2    3    3    0    0  0.15651453874E+02  0.22856337309E+01 -0.33250394571E+02  0.54367070231E+02  0.39999968206E+02 0.  0.
         12    1    3    3    0    0 -0.15651453874E+02 -0.22856337309E+01  0.33250394571E+02  0.36820929769E+02  0.00000000000E+00 0. -1.
         11    1    4    4    0    0  0.42954427429E+01 -0.35752591466E+01 -0.42425154763E+01  0.70165692579E+01  0.51100000000E-03 0. -1.
        -11    1    4    4    0    0  0.16717275643E+02 -0.83894194620E+01 -0.25673140070E+02  0.31764127332E+02  0.51100000000E-03 0.  1.
         12    1    4    4    0    0 -0.53612645115E+01  0.14250312340E+02 -0.33347390246E+01  0.15586373642E+02  0.00000000000E+00 0. -1.
</event>
<event>
 8    1  0.1212194E-006  0.9118800E+02  0.7816164E-02  0.1184000E+00
        -11   -1    0    0    0    0  0.00000000000E+00  0.00000000000E+00  0.45593999997E+02  0.45594000000E+02  0.51100000000E-03 0. -1.
         11   -1    0    0    0    0 -0.00000000000E+00 -0.00000000000E+00 -0.45593999997E+02  0.45594000000E+02  0.51100000000E-03 0.  1.
         23    2    1    2    0    0  0.35527136788E-14 -0.35527136788E-14  0.00000000000E+00  0.91188000000E+02  0.91188000000E+02 0.  0.
    9900012    2    3    3    0    0  0.24627396309E+02 -0.23035911243E+02 -0.14785704095E+02  0.54367096951E+02  0.40000029118E+02 0.  0.
         12    1    3    3    0    0 -0.24627396309E+02  0.23035911243E+02  0.14785704095E+02  0.36820903049E+02  0.00000000000E+00 0. -1.
         11    1    4    4    0    0  0.15866638619E+02 -0.98159433220E+01  0.43767931059E+01  0.19164010085E+02  0.51100000000E-03 0. -1.
        -11    1    4    4    0    0  0.38268893335E+01  0.46279295900E+01 -0.15093101587E+02  0.16243907474E+02  0.51100000000E-03 0.  1.
        -12    1    4    4    0    0  0.49338683568E+01 -0.17847897511E+02 -0.40693956137E+01  0.18959179392E+02  0.00000000000E+00 0.  1.
</event>
<event>
 8    1  0.1212194E-006  0.9118800E+02  0.7816164E-02  0.1184000E+00
        -11   -1    0    0    0    0  0.00000000000E+00  0.00000000000E+00  0.45593999997E+02  0.45594000000E+02  0.51100000000E-03 0.  1.
         11   -1    0    0    0    0 -0.00000000000E+00 -0.00000000000E+00 -0.45593999997E+02  0.45594000000E+02  0.51100000000E-03 0. -1.
         23    2    1    2    0    0  0.00000000000E+00  0.88817841970E-15  0.00000000000E+00  0.91188000000E+02  0.91188000000E+02 0.  0.
    9900012    2    3    3    0    0 -0.68859957622E+01 -0.32696146117E+01 -0.36023133090E+02  0.54367171181E+02  0.40000198340E+02 0.  0.
        -12    1    3    3    0    0  0.68859957622E+01  0.32696146117E+01  0.36023133090E+02  0.36820828819E+02  0.00000000000E+00 0.  1.
         11    1    4    4    0    0  0.46160357542E+01  0.30881840950E+01 -0.17425488249E+02  0.18289130872E+02  0.51100000000E-03 0. -1.
        -11    1    4    4    0    0  0.25198455362E+01 -0.63669325388E+01 -0.20787453466E+02  0.21886198239E+02  0.51100000000E-03 0.  1.
         12    1    4    4    0    0 -0.14021877053E+02  0.91338320639E-02  0.21898086256E+01  0.14191842069E+02  0.00000000000E+00 0. -1.
</event>
<event>
 8    1  0.1212194E-006  0.9118800E+02  0.7816164E-02  0.1184000E+00
        -11   -1    0    0    0    0  0.00000000000E+00  0.00000000000E+00  0.45593999997E+02  0.45594000000E+02  0.51100000000E-03 0.  1.
         11   -1    0    0    0    0 -0.00000000000E+00 -0.00000000000E+00 -0.45593999997E+02  0.45594000000E+02  0.51100000000E-03 0. -1.
         23    2    1    2    0    0  0.44408920985E-15  0.00000000000E+00  0.00000000000E+00  0.91188000000E+02  0.91188000000E+02 0.  0.
    9900012    2    3    3    0    0 -0.35330052666E+01  0.17041624387E+02 -0.32448126841E+02  0.54367081713E+02  0.39999994382E+02 0.  0.
        -12    1    3    3    0    0  0.35330052666E+01 -0.17041624387E+02  0.32448126841E+02  0.36820918287E+02  0.00000000000E+00 0.  1.
         11    1    4    4    0    0 -0.16459416752E+01  0.22493092812E+01 -0.36937351358E+02  0.37042360101E+02  0.51100000000E-03 0. -1.
        -11    1    4    4    0    0 -0.14334113880E+01  0.12228571791E+02  0.66030006109E+01  0.13971122130E+02  0.51100000000E-03 0.  1.
         12    1    4    4    0    0 -0.45365220337E+00  0.25637433156E+01 -0.21137760939E+01  0.33535994819E+01  0.00000000000E+00 0. -1.
</event>
<event>
 8    1  0.1212194E-006  0.9118800E+02  0.7816164E-02  0.1184000E+00
        -11   -1    0    0    0    0  0.00000000000E+00  0.00000000000E+00  0.45593999997E+02  0.45594000000E+02  0.51100000000E-03 0.  1.
         11   -1    0    0    0    0 -0.00000000000E+00 -0.00000000000E+00 -0.45593999997E+02  0.45594000000E+02  0.51100000000E-03 0. -1.
         23    2    1    2    0    0  0.00000000000E+00 -0.35527136788E-14  0.00000000000E+00  0.91188000000E+02  0.91188000000E+02 0.  0.
    9900012    2    3    3    0    0 -0.17565240871E+02  0.28896281383E+02 -0.14568716475E+02  0.54367078443E+02  0.39999986925E+02 0.  0.
        -12    1    3    3    0    0  0.17565240871E+02 -0.28896281383E+02  0.14568716475E+02  0.36820921557E+02  0.00000000000E+00 0.  1.
         11    1    4    4    0    0  0.36048320008E+01  0.69754740650E+01  0.26155560467E+01  0.82760610123E+01  0.51100000000E-03 0. -1.
        -11    1    4    4    0    0 -0.45495009411E+01 -0.70393719697E+01  0.32545864136E+00  0.83878865115E+01  0.51100000000E-03 0.  1.
         12    1    4    4    0    0 -0.16620571930E+02  0.28960179288E+02 -0.17509731163E+02  0.37703130919E+02  0.00000000000E+00 0. -1.
</event>
<event>
 8    1  0.1212194E-006  0.9118800E+02  0.7816164E-02  0.1184000E+00
        -11   -1    0    0    0    0  0.00000000000E+00  0.00000000000E+00  0.45593999997E+02  0.45594000000E+02  0.51100000000E-03 0. -1.
         11   -1    0    0    0    0 -0.00000000000E+00 -0.00000000000E+00 -0.45593999997E+02  0.45594000000E+02  0.51100000000E-03 0.  1.
         23    2    1    2    0    0 -0.88817841970E-15  0.00000000000E+00 -0.88817841970E-15  0.91188000000E+02  0.91188000000E+02 0.  0.
    9900012    2    3    3    0    0  0.67135033663E+01 -0.36028770211E+02 -0.35547567448E+01  0.54367086026E+02  0.40000004213E+02 0.  0.
        -12    1    3    3    0    0 -0.67135033663E+01  0.36028770211E+02  0.35547567448E+01  0.36820913974E+02  0.00000000000E+00 0.  1.
         11    1    4    4    0    0  0.12195922983E+02 -0.25817940332E+02 -0.14765097309E+02  0.32145212384E+02  0.51100000000E-03 0. -1.
        -11    1    4    4    0    0  0.10512642642E+01  0.92804184013E+00 -0.28223258483E+01  0.31514983207E+01  0.51100000000E-03 0.  1.
         12    1    4    4    0    0 -0.65336838812E+01 -0.11138871720E+02  0.14032666413E+02  0.19070375321E+02  0.00000000000E+00 0. -1.
</event>
<event>
 8    1  0.1212194E-006  0.9118800E+02  0.7816164E-02  0.1184000E+00
        -11   -1    0    0    0    0  0.00000000000E+00  0.00000000000E+00  0.45593999997E+02  0.45594000000E+02  0.51100000000E-03 0. -1.
         11   -1    0    0    0    0 -0.00000000000E+00 -0.00000000000E+00 -0.45593999997E+02  0.45594000000E+02  0.51100000000E-03 0.  1.
         23    2    1    2    0    0  0.10658141036E-13  0.35527136788E-14  0.00000000000E+00  0.91188000000E+02  0.91188000000E+02 0.  0.
    9900012    2    3    3    0    0  0.31921298237E+02  0.15439917947E+02  0.99206567195E+01  0.54367085059E+02  0.40000002008E+02 0.  0.
        -12    1    3    3    0    0 -0.31921298237E+02 -0.15439917947E+02 -0.99206567195E+01  0.36820914941E+02  0.00000000000E+00 0.  1.
         11    1    4    4    0    0 -0.37962498135E+01 -0.83846761593E+01  0.63417622330E+01  0.11177309847E+02  0.51100000000E-03 0. -1.
        -11    1    4    4    0    0  0.19115402467E+01  0.15915607190E+01 -0.45061449461E+00  0.25278657640E+01  0.51100000000E-03 0.  1.
         12    1    4    4    0    0  0.33806007804E+02  0.22233033387E+02  0.40295089812E+01  0.40661909447E+02  0.00000000000E+00 0. -1.
</event>
<event>
 8    1  0.1212194E-006  0.9118800E+02  0.7816164E-02  0.1184000E+00
        -11   -1    0    0    0    0  0.00000000000E+00  0.00000000000E+00  0.45593999997E+02  0.45594000000E+02  0.51100000000E-03 0. -1.
         11   -1    0    0    0    0 -0.00000000000E+00 -0.00000000000E+00 -0.45593999997E+02  0.45594000000E+02  0.51100000000E-03 0.  1.
         23    2    1    2    0    0  0.00000000000E+00  0.00000000000E+00 -0.35527136788E-14  0.91188000000E+02  0.91188000000E+02 0.  0.
    9900012    2    3    3    0    0  0.11654372849E+02 -0.30061985328E+02  0.17782890794E+02  0.54367101405E+02  0.40000039272E+02 0.  0.
         12    1    3    3    0    0 -0.11654372849E+02  0.30061985328E+02 -0.17782890794E+02  0.36820898595E+02  0.00000000000E+00 0. -1.
         11    1    4    4    0    0  0.12519456985E+02 -0.71842942038E+01  0.87726987154E+01  0.16891155361E+02  0.51100000000E-03 0. -1.
        -11    1    4    4    0    0 -0.47020371603E+01  0.57812582573E+01  0.14924339734E+01  0.75999644684E+01  0.51100000000E-03 0.  1.
         12    1    4    4    0    0  0.38369530239E+01 -0.28658949382E+02  0.75177581049E+01  0.29875981576E+02  0.00000000000E+00 0. -1.
</event>
<event>
 8    1  0.1212194E-006  0.9118800E+02  0.7816164E-02  0.1184000E+00
        -11   -1    0    0    0    0  0.00000000000E+00  0.00000000000E+00  0.45593999997E+02  0.45594000000E+02  0.51100000000E-03 0.  1.
         11   -1    0    0    0    0 -0.00000000000E+00 -0.00000000000E+00 -0.45593999997E+02  0.45594000000E+02  0.51100000000E-03 0. -1.
         23    2    1    2    0    0 -0.35527136788E-14  0.00000000000E+00  0.00000000000E+00  0.91188000000E+02  0.91188000000E+02 0.  0.
    9900012    2    3    3    0    0 -0.19303758704E+02 -0.11418355459E+02  0.29202147586E+02  0.54367090653E+02  0.40000014762E+02 0.  0.
        -12    1    3    3    0    0  0.19303758704E+02  0.11418355459E+02 -0.29202147586E+02  0.36820909347E+02  0.00000000000E+00 0.  1.
         11    1    4    4    0    0 -0.10877667641E+02  0.10893998924E+01  0.68629799078E+01  0.12907785980E+02  0.51100000000E-03 0. -1.
        -11    1    4    4    0    0  0.70408126111E+01  0.54285409733E-01 -0.42563303681E+01  0.82275353293E+01  0.51100000000E-03 0.  1.
        -12    1    4    4    0    0 -0.15466903673E+02 -0.12562040762E+02  0.26595498047E+02  0.33231769343E+02  0.00000000000E+00 0.  1.
</event>
<event>
 8    1  0.1212194E-006  0.9118800E+02  0.7816164E-02  0.1184000E+00
        -11   -1    0    0    0    0  0.00000000000E+00  0.00000000000E+00  0.45593999997E+02  0.45594000000E+02  0.51100000000E-03 0.  1.
         11   -1    0    0    0    0 -0.00000000000E+00 -0.00000000000E+00 -0.45593999997E+02  0.45594000000E+02  0.51100000000E-03 0. -1.
         23    2    1    2    0    0  0.00000000000E+00  0.00000000000E+00  0.00000000000E+00  0.91188000000E+02  0.91188000000E+02 0.  0.
    9900012    2    3    3    0    0 -0.13842397524E+02 -0.30327330220E+02  0.15633899614E+02  0.54367112659E+02  0.40000064928E+02 0.  0.
         12    1    3    3    0    0  0.13842397524E+02  0.30327330220E+02 -0.15633899614E+02  0.36820887341E+02  0.00000000000E+00 0. -1.
         11    1    4    4    0    0 -0.49960258591E+01  0.60071336523E+01  0.63609371758E+01  0.10075090626E+02  0.51100000000E-03 0. -1.
        -11    1    4    4    0    0 -0.88538783100E+01 -0.23182707847E+02 -0.45306817948E+01  0.25226101206E+02  0.51100000000E-03 0.  1.
        -12    1    4    4    0    0  0.75066453291E-02 -0.13151756025E+02  0.13803644233E+02  0.19065920827E+02  0.00000000000E+00 0.  1.
</event>
<event>
 8    1  0.1212194E-006  0.9118800E+02  0.7816164E-02  0.1184000E+00
        -11   -1    0    0    0    0  0.00000000000E+00  0.00000000000E+00  0.45593999997E+02  0.45594000000E+02  0.51100000000E-03 0. -1.
         11   -1    0    0    0    0 -0.00000000000E+00 -0.00000000000E+00 -0.45593999997E+02  0.45594000000E+02  0.51100000000E-03 0.  1.
         23    2    1    2    0    0  0.00000000000E+00 -0.35527136788E-14  0.00000000000E+00  0.91188000000E+02  0.91188000000E+02 0.  0.
    9900012    2    3    3    0    0 -0.18934832923E+02  0.27060047237E+02 -0.16279015142E+02  0.54367076760E+02  0.39999983089E+02 0.  0.
        -12    1    3    3    0    0  0.18934832923E+02 -0.27060047237E+02  0.16279015142E+02  0.36820923240E+02  0.00000000000E+00 0.  1.
         11    1    4    4    0    0  0.10605302119E+01  0.26272311724E+02 -0.80014282002E+01  0.27484212580E+02  0.51100000000E-03 0. -1.
        -11    1    4    4    0    0 -0.20437845265E+02 -0.18509548299E+01 -0.27020647646E+01  0.20698616068E+02  0.51100000000E-03 0.  1.
        -12    1    4    4    0    0  0.44248213091E+00  0.26386903429E+01 -0.55755221767E+01  0.61842481115E+01  0.00000000000E+00 0.  1.
</event>
<event>
 8    1  0.1212194E-006  0.9118800E+02  0.7816164E-02  0.1184000E+00
        -11   -1    0    0    0    0  0.00000000000E+00  0.00000000000E+00  0.45593999997E+02  0.45594000000E+02  0.51100000000E-03 0.  1.
         11   -1    0    0    0    0 -0.00000000000E+00 -0.00000000000E+00 -0.45593999997E+02  0.45594000000E+02  0.51100000000E-03 0. -1.
         23    2    1    2    0    0 -0.44408920985E-15  0.71054273576E-14  0.00000000000E+00  0.91188000000E+02  0.91188000000E+02 0.  0.
    9900012    2    3    3    0    0  0.37075718329E+01  0.33189473050E+02  0.15507785099E+02  0.54367100922E+02  0.40000038172E+02 0.  0.
         12    1    3    3    0    0 -0.37075718329E+01 -0.33189473050E+02 -0.15507785099E+02  0.36820899078E+02  0.00000000000E+00 0. -1.
         11    1    4    4    0    0  0.86403441413E+01  0.25277353008E+02 -0.21043676356E+01  0.26796053541E+02  0.51100000000E-03 0. -1.
        -11    1    4    4    0    0  0.38141566659E+01 -0.28431769513E+01 -0.47647933764E+00  0.47810541796E+01  0.51100000000E-03 0.  1.
        -12    1    4    4    0    0 -0.87469289742E+01  0.10755296993E+02  0.18088632072E+02  0.22789993202E+02  0.00000000000E+00 0.  1.
</event>
<event>
 8    1  0.1212194E-006  0.9118800E+02  0.7816164E-02  0.1184000E+00
        -11   -1    0    0    0    0  0.00000000000E+00  0.00000000000E+00  0.45593999997E+02  0.45594000000E+02  0.51100000000E-03 0.  1.
         11   -1    0    0    0    0 -0.00000000000E+00 -0.00000000000E+00 -0.45593999997E+02  0.45594000000E+02  0.51100000000E-03 0. -1.
         23    2    1    2    0    0  0.00000000000E+00  0.00000000000E+00  0.00000000000E+00  0.91188000000E+02  0.91188000000E+02 0.  0.
    9900012    2    3    3    0    0 -0.26035828798E+02  0.18217946193E+02  0.18601657860E+02  0.54367087194E+02  0.40000006877E+02 0.  0.
         12    1    3    3    0    0  0.26035828798E+02 -0.18217946193E+02 -0.18601657860E+02  0.36820912806E+02  0.00000000000E+00 0. -1.
         11    1    4    4    0    0  0.70646636338E+01 -0.18120949233E+01  0.89064430105E+00  0.73475443382E+01  0.51100000000E-03 0. -1.
        -11    1    4    4    0    0 -0.33097892773E+02  0.19698994537E+02  0.20894453620E+02  0.43818935223E+02  0.51100000000E-03 0.  1.
        -12    1    4    4    0    0 -0.25996596987E-02  0.33104657916E+00 -0.31834400614E+01  0.32006076330E+01  0.00000000000E+00 0.  1.
</event>
<event>
 8    1  0.1212194E-006  0.9118800E+02  0.7816164E-02  0.1184000E+00
        -11   -1    0    0    0    0  0.00000000000E+00  0.00000000000E+00  0.45593999997E+02  0.45594000000E+02  0.51100000000E-03 0.  1.
         11   -1    0    0    0    0 -0.00000000000E+00 -0.00000000000E+00 -0.45593999997E+02  0.45594000000E+02  0.51100000000E-03 0. -1.
         23    2    1    2    0    0  0.35527136788E-14  0.35527136788E-14  0.88817841970E-15  0.91188000000E+02  0.91188000000E+02 0.  0.
    9900012    2    3    3    0    0 -0.21270622152E+02 -0.29405470969E+02 -0.62177138587E+01  0.54367067702E+02  0.39999962441E+02 0.  0.
        -12    1    3    3    0    0  0.21270622152E+02  0.29405470969E+02  0.62177138587E+01  0.36820932298E+02  0.00000000000E+00 0.  1.
         11    1    4    4    0    0 -0.45602513269E+01  0.14011570484E+01 -0.13323163530E+01  0.49532010220E+01  0.51100000000E-03 0. -1.
        -11    1    4    4    0    0  0.18618715243E+01 -0.26716781572E+02 -0.11682102767E+02  0.29218564449E+02  0.51100000000E-03 0.  1.
        -12    1    4    4    0    0 -0.18572242349E+02 -0.40898464454E+01  0.67967052609E+01  0.20195302232E+02  0.00000000000E+00 0.  1.
</event>
<event>
 8    1  0.1212194E-006  0.9118800E+02  0.7816164E-02  0.1184000E+00
        -11   -1    0    0    0    0  0.00000000000E+00  0.00000000000E+00  0.45593999997E+02  0.45594000000E+02  0.51100000000E-03 0.  1.
         11   -1    0    0    0    0 -0.00000000000E+00 -0.00000000000E+00 -0.45593999997E+02  0.45594000000E+02  0.51100000000E-03 0. -1.
         23    2    1    2    0    0 -0.17763568394E-14  0.35527136788E-14  0.35527136788E-14  0.91188000000E+02  0.91188000000E+02 0.  0.
    9900012    2    3    3    0    0  0.11903730989E+02 -0.22439058310E+02 -0.26656510757E+02  0.54367085902E+02  0.40000003930E+02 0.  0.
        -12    1    3    3    0    0 -0.11903730989E+02  0.22439058310E+02  0.26656510757E+02  0.36820914098E+02  0.00000000000E+00 0.  1.
         11    1    4    4    0    0  0.65620193672E+01 -0.10953768604E+02 -0.27671943969E+02  0.30475918823E+02  0.51100000000E-03 0. -1.
        -11    1    4    4    0    0  0.16481276437E+01  0.48511680354E+00 -0.81753970862E+01  0.83539679687E+01  0.51100000000E-03 0.  1.
        -12    1    4    4    0    0  0.36935839779E+01 -0.11970406510E+02  0.91908302987E+01  0.15537199110E+02  0.00000000000E+00 0.  1.
</event>
<event>
 8    1  0.1212194E-006  0.9118800E+02  0.7816164E-02  0.1184000E+00
        -11   -1    0    0    0    0  0.00000000000E+00  0.00000000000E+00  0.45593999997E+02  0.45594000000E+02  0.51100000000E-03 0.  1.
         11   -1    0    0    0    0 -0.00000000000E+00 -0.00000000000E+00 -0.45593999997E+02  0.45594000000E+02  0.51100000000E-03 0. -1.
         23    2    1    2    0    0  0.35527136788E-14  0.00000000000E+00  0.35527136788E-14  0.91188000000E+02  0.91188000000E+02 0.  0.
    9900012    2    3    3    0    0  0.21232038012E+02 -0.23811915639E+02  0.18384048092E+02  0.54367082184E+02  0.39999995455E+02 0.  0.
         12    1    3    3    0    0 -0.21232038012E+02  0.23811915639E+02 -0.18384048092E+02  0.36820917816E+02  0.00000000000E+00 0. -1.
         11    1    4    4    0    0  0.21095351074E+01  0.36970211989E+01 -0.48310949123E+01  0.64387562795E+01  0.51100000000E-03 0. -1.
        -11    1    4    4    0    0 -0.39122850742E+01 -0.33212542569E+01 -0.25630560783E+01  0.57363717682E+01  0.51100000000E-03 0.  1.
        -12    1    4    4    0    0  0.23034787979E+02 -0.24187682581E+02  0.25778199083E+02  0.42191954136E+02  0.00000000000E+00 0.  1.
</event>
<event>
 8    1  0.1212194E-006  0.9118800E+02  0.7816164E-02  0.1184000E+00
        -11   -1    0    0    0    0  0.00000000000E+00  0.00000000000E+00  0.45593999997E+02  0.45594000000E+02  0.51100000000E-03 0.  1.
         11   -1    0    0    0    0 -0.00000000000E+00 -0.00000000000E+00 -0.45593999997E+02  0.45594000000E+02  0.51100000000E-03 0. -1.
         23    2    1    2    0    0  0.00000000000E+00  0.00000000000E+00  0.88817841970E-15  0.91188000000E+02  0.91188000000E+02 0.  0.
    9900012    2    3    3    0    0 -0.16520538650E+02 -0.32610260931E+02 -0.44068684095E+01  0.54367111846E+02  0.40000063075E+02 0.  0.
        -12    1    3    3    0    0  0.16520538650E+02  0.32610260931E+02  0.44068684095E+01  0.36820888154E+02  0.00000000000E+00 0.  1.
         11    1    4    4    0    0 -0.16913549539E+02 -0.20755589895E+02  0.71877694077E+01  0.27722314103E+02  0.51100000000E-03 0. -1.
        -11    1    4    4    0    0 -0.45350616114E+01 -0.89293504099E+01 -0.16366335960E+02  0.19187418679E+02  0.51100000000E-03 0.  1.
         12    1    4    4    0    0  0.49280725002E+01 -0.29253206264E+01  0.47716981428E+01  0.74573790637E+01  0.00000000000E+00 0. -1.
</event>
<event>
 8    1  0.1212194E-006  0.9118800E+02  0.7816164E-02  0.1184000E+00
        -11   -1    0    0    0    0  0.00000000000E+00  0.00000000000E+00  0.45593999997E+02  0.45594000000E+02  0.51100000000E-03 0.  1.
         11   -1    0    0    0    0 -0.00000000000E+00 -0.00000000000E+00 -0.45593999997E+02  0.45594000000E+02  0.51100000000E-03 0. -1.
         23    2    1    2    0    0  0.00000000000E+00  0.17763568394E-14  0.35527136788E-14  0.91188000000E+02  0.91188000000E+02 0.  0.
    9900012    2    3    3    0    0  0.24529160329E+02 -0.85706793777E+01 -0.26089163108E+02  0.54367072756E+02  0.39999973962E+02 0.  0.
        -12    1    3    3    0    0 -0.24529160329E+02  0.85706793777E+01  0.26089163108E+02  0.36820927244E+02  0.00000000000E+00 0.  1.
         11    1    4    4    0    0  0.11315287736E+01 -0.40901302930E+01 -0.15044010220E+02  0.15631115346E+02  0.51100000000E-03 0. -1.
        -11    1    4    4    0    0  0.71416325908E+01  0.11106790978E+02  0.91361800763E+00  0.13236254003E+02  0.51100000000E-03 0.  1.
        -12    1    4    4    0    0  0.16255998965E+02 -0.15587340063E+02 -0.11958770895E+02  0.25499703408E+02  0.00000000000E+00 0.  1.
</event>
<event>
 8    1  0.1212194E-006  0.9118800E+02  0.7816164E-02  0.1184000E+00
        -11   -1    0    0    0    0  0.00000000000E+00  0.00000000000E+00  0.45593999997E+02  0.45594000000E+02  0.51100000000E-03 0.  1.
         11   -1    0    0    0    0 -0.00000000000E+00 -0.00000000000E+00 -0.45593999997E+02  0.45594000000E+02  0.51100000000E-03 0. -1.
         23    2    1    2    0    0  0.71054273576E-14 -0.88817841970E-15  0.35527136788E-14  0.91188000000E+02  0.91188000000E+02 0.  0.
    9900012    2    3    3    0    0  0.33134328113E+02 -0.31894410690E+01  0.15739463505E+02  0.54366987721E+02  0.39999780106E+02 0.  0.
         12    1    3    3    0    0 -0.33134328113E+02  0.31894410690E+01 -0.15739463505E+02  0.36821012279E+02  0.00000000000E+00 0. -1.
         11    1    4    4    0    0 -0.61942984626E+01  0.75557317822E+01  0.80600681819E+01  0.12665824709E+02  0.51100000000E-03 0. -1.
        -11    1    4    4    0    0  0.93283915988E+01 -0.44446141406E+01  0.19830876455E+01  0.10521697655E+02  0.51100000000E-03 0.  1.
        -12    1    4    4    0    0  0.30000234977E+02 -0.63005587106E+01  0.56963076775E+01  0.31179465356E+02  0.00000000000E+00 0.  1.
</event>
<event>
 8    1  0.1212194E-006  0.9118800E+02  0.7816164E-02  0.1184000E+00
        -11   -1    0    0    0    0  0.00000000000E+00  0.00000000000E+00  0.45593999997E+02  0.45594000000E+02  0.51100000000E-03 0. -1.
         11   -1    0    0    0    0 -0.00000000000E+00 -0.00000000000E+00 -0.45593999997E+02  0.45594000000E+02  0.51100000000E-03 0.  1.
         23    2    1    2    0    0  0.71054273576E-14 -0.88817841970E-15  0.35527136788E-14  0.91188000000E+02  0.91188000000E+02 0.  0.
    9900012    2    3    3    0    0 -0.33923810118E+02 -0.47501260517E+01  0.13505179264E+02  0.54367102979E+02  0.40000042862E+02 0.  0.
        -12    1    3    3    0    0  0.33923810118E+02  0.47501260517E+01 -0.13505179264E+02  0.36820897021E+02  0.00000000000E+00 0.  1.
         11    1    4    4    0    0  0.53820577709E-01 -0.10504730837E+02  0.41118082775E+01  0.11280923463E+02  0.51100000000E-03 0. -1.
        -11    1    4    4    0    0 -0.58025804006E+01  0.67535353677E+01 -0.62175338454E+01  0.10859922037E+02  0.51100000000E-03 0.  1.
        -12    1    4    4    0    0 -0.28175050295E+02 -0.99893058228E+00  0.15610904832E+02  0.32226257479E+02  0.00000000000E+00 0.  1.
</event>
<event>
 8    1  0.1212194E-006  0.9118800E+02  0.7816164E-02  0.1184000E+00
        -11   -1    0    0    0    0  0.00000000000E+00  0.00000000000E+00  0.45593999997E+02  0.45594000000E+02  0.51100000000E-03 0.  1.
         11   -1    0    0    0    0 -0.00000000000E+00 -0.00000000000E+00 -0.45593999997E+02  0.45594000000E+02  0.51100000000E-03 0. -1.
         23    2    1    2    0    0  0.00000000000E+00 -0.71054273576E-14  0.17763568394E-14  0.91188000000E+02  0.91188000000E+02 0.  0.
    9900012    2    3    3    0    0  0.11535052660E+02  0.34105876028E+02 -0.77142887071E+01  0.54367102812E+02  0.40000042480E+02 0.  0.
        -12    1    3    3    0    0 -0.11535052660E+02 -0.34105876028E+02  0.77142887071E+01  0.36820897188E+02  0.00000000000E+00 0.  1.
         11    1    4    4    0    0  0.95907605651E+01  0.19029373884E+02  0.48004050593E+01  0.21843618007E+02  0.51100000000E-03 0. -1.
        -11    1    4    4    0    0  0.71899334153E+01  0.11222409690E+01  0.55136641368E+01  0.91298992209E+01  0.51100000000E-03 0.  1.
         12    1    4    4    0    0 -0.52456413206E+01  0.13954261175E+02 -0.18028357903E+02  0.23393585584E+02  0.00000000000E+00 0. -1.
</event>
<event>
 8    1  0.1212194E-006  0.9118800E+02  0.7816164E-02  0.1184000E+00
        -11   -1    0    0    0    0  0.00000000000E+00  0.00000000000E+00  0.45593999997E+02  0.45594000000E+02  0.51100000000E-03 0.  1.
         11   -1    0    0    0    0 -0.00000000000E+00 -0.00000000000E+00 -0.45593999997E+02  0.45594000000E+02  0.51100000000E-03 0. -1.
         23    2    1    2    0    0  0.00000000000E+00  0.00000000000E+00 -0.35527136788E-14  0.91188000000E+02  0.91188000000E+02 0.  0.
    9900012    2    3    3    0    0  0.14124458837E+02 -0.29928688362E+02 -0.16141673065E+02  0.54367077499E+02  0.39999984774E+02 0.  0.
         12    1    3    3    0    0 -0.14124458837E+02  0.29928688362E+02  0.16141673065E+02  0.36820922501E+02  0.00000000000E+00 0. -1.
         11    1    4    4    0    0  0.12937083699E+02 -0.13386005540E+02 -0.69544370601E+01  0.19872530640E+02  0.51100000000E-03 0. -1.
        -11    1    4    4    0    0  0.62646919173E+01 -0.18718207950E+02  0.40509679235E+01  0.20150136850E+02  0.51100000000E-03 0.  1.
         12    1    4    4    0    0 -0.50773167788E+01  0.21755251290E+01 -0.13238203928E+02  0.14344410009E+02  0.00000000000E+00 0. -1.
</event>
<event>
 8    1  0.1212194E-006  0.9118800E+02  0.7816164E-02  0.1184000E+00
        -11   -1    0    0    0    0  0.00000000000E+00  0.00000000000E+00  0.45593999997E+02  0.45594000000E+02  0.51100000000E-03 0.  1.
         11   -1    0    0    0    0 -0.00000000000E+00 -0.00000000000E+00 -0.45593999997E+02  0.45594000000E+02  0.51100000000E-03 0. -1.
         23    2    1    2    0    0  0.17763568394E-14  0.00000000000E+00  0.00000000000E+00  0.91188000000E+02  0.91188000000E+02 0.  0.
    9900012    2    3    3    0    0  0.11846093493E+02  0.21160802684E+02  0.27706887827E+02  0.54367066628E+02  0.39999959993E+02 0.  0.
         12    1    3    3    0    0 -0.11846093493E+02 -0.21160802684E+02 -0.27706887827E+02  0.36820933372E+02  0.00000000000E+00 0. -1.
         11    1    4    4    0    0  0.12953107910E+02  0.12646260142E+02  0.72546121818E+01  0.19502315203E+02  0.51100000000E-03 0. -1.
        -11    1    4    4    0    0  0.12268788660E+02  0.67442331738E+01  0.14377278221E+02  0.20067734939E+02  0.51100000000E-03 0.  1.
         12    1    4    4    0    0 -0.13375803076E+02  0.17703093678E+01  0.60749974241E+01  0.14797016486E+02  0.00000000000E+00 0. -1.
</event>
<event>
 8    1  0.1212194E-006  0.9118800E+02  0.7816164E-02  0.1184000E+00
        -11   -1    0    0    0    0  0.00000000000E+00  0.00000000000E+00  0.45593999997E+02  0.45594000000E+02  0.51100000000E-03 0.  1.
         11   -1    0    0    0    0 -0.00000000000E+00 -0.00000000000E+00 -0.45593999997E+02  0.45594000000E+02  0.51100000000E-03 0. -1.
         23    2    1    2    0    0  0.00000000000E+00 -0.35527136788E-14  0.00000000000E+00  0.91188000000E+02  0.91188000000E+02 0.  0.
    9900012    2    3    3    0    0 -0.49754833651E+01  0.18339320049E+02  0.31538783932E+02  0.54367068636E+02  0.39999964570E+02 0.  0.
         12    1    3    3    0    0  0.49754833651E+01 -0.18339320049E+02 -0.31538783932E+02  0.36820931364E+02  0.00000000000E+00 0. -1.
         11    1    4    4    0    0 -0.70517908758E+01  0.15950366699E+02 -0.40453341900E+01  0.17902700393E+02  0.51100000000E-03 0. -1.
        -11    1    4    4    0    0 -0.54395937712E-01 -0.24195015241E+01  0.16185215034E+02  0.16365149939E+02  0.51100000000E-03 0.  1.
         12    1    4    4    0    0  0.21307034484E+01  0.48084548740E+01  0.19398903087E+02  0.20099218304E+02  0.00000000000E+00 0. -1.
</event>
<event>
 8    1  0.1212194E-006  0.9118800E+02  0.7816164E-02  0.1184000E+00
        -11   -1    0    0    0    0  0.00000000000E+00  0.00000000000E+00  0.45593999997E+02  0.45594000000E+02  0.51100000000E-03 0. -1.
         11   -1    0    0    0    0 -0.00000000000E+00 -0.00000000000E+00 -0.45593999997E+02  0.45594000000E+02  0.51100000000E-03 0.  1.
         23    2    1    2    0    0  0.17763568394E-14  0.00000000000E+00  0.00000000000E+00  0.91188000000E+02  0.91188000000E+02 0.  0.
    9900012    2    3    3    0    0  0.67925537441E+01 -0.26517233641E+02  0.24626826554E+02  0.54367040582E+02  0.39999900614E+02 0.  0.
        -12    1    3    3    0    0 -0.67925537441E+01  0.26517233641E+02 -0.24626826554E+02  0.36820959418E+02  0.00000000000E+00 0.  1.
         11    1    4    4    0    0 -0.54169590414E+01 -0.59113692007E+01  0.20590557123E+02  0.22096578332E+02  0.51100000000E-03 0. -1.
        -11    1    4    4    0    0  0.18276383487E+01 -0.14899581444E+02  0.10925497065E+02  0.18566213279E+02  0.51100000000E-03 0.  1.
        -12    1    4    4    0    0  0.10381874437E+02 -0.57062829962E+01 -0.68892276341E+01  0.13704248971E+02  0.00000000000E+00 0.  1.
</event>
<event>
 8    1  0.1212194E-006  0.9118800E+02  0.7816164E-02  0.1184000E+00
        -11   -1    0    0    0    0  0.00000000000E+00  0.00000000000E+00  0.45593999997E+02  0.45594000000E+02  0.51100000000E-03 0. -1.
         11   -1    0    0    0    0 -0.00000000000E+00 -0.00000000000E+00 -0.45593999997E+02  0.45594000000E+02  0.51100000000E-03 0.  1.
         23    2    1    2    0    0  0.11102230246E-14  0.35527136788E-14 -0.71054273576E-14  0.91188000000E+02  0.91188000000E+02 0.  0.
    9900012    2    3    3    0    0  0.16629455765E+01 -0.19626121850E+02 -0.31109932728E+02  0.54367109717E+02  0.40000058223E+02 0.  0.
         12    1    3    3    0    0 -0.16629455765E+01  0.19626121850E+02  0.31109932728E+02  0.36820890283E+02  0.00000000000E+00 0. -1.
         11    1    4    4    0    0  0.31230708651E+01 -0.67675365874E+01  0.60375950354E+01  0.95919589847E+01  0.51100000000E-03 0. -1.
        -11    1    4    4    0    0 -0.10442092616E+02 -0.16259251531E+01 -0.17106342409E+02  0.20107408627E+02  0.51100000000E-03 0.  1.
        -12    1    4    4    0    0  0.89819673274E+01 -0.11232660109E+02 -0.20041185354E+02  0.24667742106E+02  0.00000000000E+00 0.  1.
</event>
<event>
 8    1  0.1212194E-006  0.9118800E+02  0.7816164E-02  0.1184000E+00
        -11   -1    0    0    0    0  0.00000000000E+00  0.00000000000E+00  0.45593999997E+02  0.45594000000E+02  0.51100000000E-03 0. -1.
         11   -1    0    0    0    0 -0.00000000000E+00 -0.00000000000E+00 -0.45593999997E+02  0.45594000000E+02  0.51100000000E-03 0.  1.
         23    2    1    2    0    0 -0.35527136788E-14  0.00000000000E+00  0.00000000000E+00  0.91188000000E+02  0.91188000000E+02 0.  0.
    9900012    2    3    3    0    0  0.24700384613E+02  0.73347462998E+01 -0.26303458826E+02  0.54367089507E+02  0.40000012148E+02 0.  0.
         12    1    3    3    0    0 -0.24700384613E+02 -0.73347462998E+01  0.26303458826E+02  0.36820910493E+02  0.00000000000E+00 0. -1.
         11    1    4    4    0    0 -0.80035807943E+00  0.30043905394E+01  0.62089120025E-01  0.31097895248E+01  0.51100000000E-03 0. -1.
        -11    1    4    4    0    0  0.23952271791E+02  0.15510530524E+02 -0.27849423918E+02  0.39873277943E+02  0.51100000000E-03 0.  1.
         12    1    4    4    0    0  0.15484709017E+01 -0.11180174764E+02  0.14838759717E+01  0.11384022039E+02  0.00000000000E+00 0. -1.
</event>
<event>
 8    1  0.1212194E-006  0.9118800E+02  0.7816164E-02  0.1184000E+00
        -11   -1    0    0    0    0  0.00000000000E+00  0.00000000000E+00  0.45593999997E+02  0.45594000000E+02  0.51100000000E-03 0.  1.
         11   -1    0    0    0    0 -0.00000000000E+00 -0.00000000000E+00 -0.45593999997E+02  0.45594000000E+02  0.51100000000E-03 0. -1.
         23    2    1    2    0    0  0.44408920985E-15 -0.71054273576E-14  0.88817841970E-15  0.91188000000E+02  0.91188000000E+02 0.  0.
    9900012    2    3    3    0    0 -0.38389317620E+01 -0.36353580131E+02  0.44114347279E+01  0.54367069244E+02  0.39999965955E+02 0.  0.
        -12    1    3    3    0    0  0.38389317620E+01  0.36353580131E+02 -0.44114347279E+01  0.36820930756E+02  0.00000000000E+00 0.  1.
         11    1    4    4    0    0 -0.37138116583E+01 -0.22110788077E+02  0.55782422769E+01  0.23104028514E+02  0.51100000000E-03 0. -1.
        -11    1    4    4    0    0  0.15104588733E+01 -0.14539726200E+02 -0.12849515717E+02  0.19462661133E+02  0.51100000000E-03 0.  1.
        -12    1    4    4    0    0 -0.16355789770E+01  0.29693414624E+00  0.11682708168E+02  0.11800379596E+02  0.00000000000E+00 0.  1.
</event>
<event>
 8    1  0.1212194E-006  0.9118800E+02  0.7816164E-02  0.1184000E+00
        -11   -1    0    0    0    0  0.00000000000E+00  0.00000000000E+00  0.45593999997E+02  0.45594000000E+02  0.51100000000E-03 0.  1.
         11   -1    0    0    0    0 -0.00000000000E+00 -0.00000000000E+00 -0.45593999997E+02  0.45594000000E+02  0.51100000000E-03 0. -1.
         23    2    1    2    0    0 -0.35527136788E-14  0.00000000000E+00  0.00000000000E+00  0.91188000000E+02  0.91188000000E+02 0.  0.
    9900012    2    3    3    0    0 -0.22071915123E+02 -0.13492730133E+02  0.26202260100E+02  0.54367059789E+02  0.39999944402E+02 0.  0.
         12    1    3    3    0    0  0.22071915123E+02  0.13492730133E+02 -0.26202260100E+02  0.36820940211E+02  0.00000000000E+00 0. -1.
         11    1    4    4    0    0 -0.15594728888E+02  0.13172279274E+01  0.15686436544E+02  0.22158405859E+02  0.51100000000E-03 0. -1.
        -11    1    4    4    0    0 -0.12908074463E+02 -0.21978768105E+01  0.12268719252E+02  0.17943537030E+02  0.51100000000E-03 0.  1.
         12    1    4    4    0    0  0.64308882274E+01 -0.12612081250E+02 -0.17528956966E+01  0.14265116900E+02  0.00000000000E+00 0. -1.
</event>
<event>
 8    1  0.1212194E-006  0.9118800E+02  0.7816164E-02  0.1184000E+00
        -11   -1    0    0    0    0  0.00000000000E+00  0.00000000000E+00  0.45593999997E+02  0.45594000000E+02  0.51100000000E-03 0.  1.
         11   -1    0    0    0    0 -0.00000000000E+00 -0.00000000000E+00 -0.45593999997E+02  0.45594000000E+02  0.51100000000E-03 0. -1.
         23    2    1    2    0    0  0.00000000000E+00  0.00000000000E+00 -0.71054273576E-14  0.91188000000E+02  0.91188000000E+02 0.  0.
    9900012    2    3    3    0    0  0.23150158666E+02  0.12415316980E+02  0.25801353962E+02  0.54367084636E+02  0.40000001044E+02 0.  0.
         12    1    3    3    0    0 -0.23150158666E+02 -0.12415316980E+02 -0.25801353962E+02  0.36820915364E+02  0.00000000000E+00 0. -1.
         11    1    4    4    0    0 -0.24076274544E+01  0.87088657769E+01 -0.77004295454E+01  0.11871715484E+02  0.51100000000E-03 0. -1.
        -11    1    4    4    0    0  0.17569774859E+02  0.19590081763E+01  0.19841669736E+02  0.26574923515E+02  0.51100000000E-03 0.  1.
         12    1    4    4    0    0  0.79880112613E+01  0.17474430268E+01  0.13660113771E+02  0.15920445637E+02  0.00000000000E+00 0. -1.
</event>
<event>
 8    1  0.1212194E-006  0.9118800E+02  0.7816164E-02  0.1184000E+00
        -11   -1    0    0    0    0  0.00000000000E+00  0.00000000000E+00  0.45593999997E+02  0.45594000000E+02  0.51100000000E-03 0.  1.
         11   -1    0    0    0    0 -0.00000000000E+00 -0.00000000000E+00 -0.45593999997E+02  0.45594000000E+02  0.51100000000E-03 0. -1.
         23    2    1    2    0    0 -0.35527136788E-14  0.00000000000E+00  0.00000000000E+00  0.91188000000E+02  0.91188000000E+02 0.  0.
    9900012    2    3    3    0    0  0.31773440417E+02  0.10604442177E+02 -0.15289775848E+02  0.54367041901E+02  0.39999903622E+02 0.  0.
         12    1    3    3    0    0 -0.31773440417E+02 -0.10604442177E+02  0.15289775848E+02  0.36820958099E+02  0.00000000000E+00 0. -1.
         11    1    4    4    0    0 -0.45818718383E+01  0.19623371374E+00 -0.95686887128E+00  0.46848324955E+01  0.51100000000E-03 0. -1.
        -11    1    4    4    0    0  0.30122276371E+02  0.19026427540E+02 -0.59097887445E+01  0.36114845728E+02  0.51100000000E-03 0.  1.
        -12    1    4    4    0    0  0.62330358844E+01 -0.86182190774E+01 -0.84231182323E+01  0.13567363678E+02  0.00000000000E+00 0.  1.
</event>
<event>
 8    1  0.1212194E-006  0.9118800E+02  0.7816164E-02  0.1184000E+00
        -11   -1    0    0    0    0  0.00000000000E+00  0.00000000000E+00  0.45593999997E+02  0.45594000000E+02  0.51100000000E-03 0.  1.
         11   -1    0    0    0    0 -0.00000000000E+00 -0.00000000000E+00 -0.45593999997E+02  0.45594000000E+02  0.51100000000E-03 0. -1.
         23    2    1    2    0    0  0.00000000000E+00 -0.35527136788E-14  0.00000000000E+00  0.91188000000E+02  0.91188000000E+02 0.  0.
    9900012    2    3    3    0    0  0.21911636343E+02 -0.28809651607E+02  0.67575207498E+01  0.54367083124E+02  0.39999997597E+02 0.  0.
         12    1    3    3    0    0 -0.21911636343E+02  0.28809651607E+02 -0.67575207498E+01  0.36820916876E+02  0.00000000000E+00 0. -1.
         11    1    4    4    0    0  0.31642726444E+02 -0.18799664267E+02  0.55095134187E+01  0.37216182659E+02  0.51100000000E-03 0. -1.
        -11    1    4    4    0    0  0.55833707716E+00 -0.40043074223E+01 -0.23866549502E+01  0.46949270854E+01  0.51100000000E-03 0.  1.
         12    1    4    4    0    0 -0.10289427178E+02 -0.60056799172E+01  0.36346622813E+01  0.12455973379E+02  0.00000000000E+00 0. -1.
</event>
<event>
 8    1  0.1212194E-006  0.9118800E+02  0.7816164E-02  0.1184000E+00
        -11   -1    0    0    0    0  0.00000000000E+00  0.00000000000E+00  0.45593999997E+02  0.45594000000E+02  0.51100000000E-03 0. -1.
         11   -1    0    0    0    0 -0.00000000000E+00 -0.00000000000E+00 -0.45593999997E+02  0.45594000000E+02  0.51100000000E-03 0.  1.
         23    2    1    2    0    0 -0.17763568394E-14  0.71054273576E-14  0.35527136788E-14  0.91188000000E+02  0.91188000000E+02 0.  0.
    9900012    2    3    3    0    0  0.10470282103E+02 -0.22389780992E+02 -0.27291949086E+02  0.54367087667E+02  0.40000007954E+02 0.  0.
         12    1    3    3    0    0 -0.10470282103E+02  0.22389780992E+02  0.27291949086E+02  0.36820912333E+02  0.00000000000E+00 0. -1.
         11    1    4    4    0    0 -0.67151940297E+01 -0.89123344565E+01 -0.11999214494E+02  0.16386112567E+02  0.51100000000E-03 0. -1.
        -11    1    4    4    0    0 -0.34804509285E+00  0.68901287807E+01 -0.70652489442E+01  0.98748545764E+01  0.51100000000E-03 0.  1.
        -12    1    4    4    0    0  0.17533521225E+02 -0.20367575316E+02 -0.82274856481E+01  0.28106120524E+02  0.00000000000E+00 0.  1.
</event>
<event>
 8    1  0.1212194E-006  0.9118800E+02  0.7816164E-02  0.1184000E+00
        -11   -1    0    0    0    0  0.00000000000E+00  0.00000000000E+00  0.45593999997E+02  0.45594000000E+02  0.51100000000E-03 0. -1.
         11   -1    0    0    0    0 -0.00000000000E+00 -0.00000000000E+00 -0.45593999997E+02  0.45594000000E+02  0.51100000000E-03 0.  1.
         23    2    1    2    0    0  0.44408920985E-15  0.17763568394E-14  0.00000000000E+00  0.91188000000E+02  0.91188000000E+02 0.  0.
    9900012    2    3    3    0    0  0.32409166118E+01 -0.83085537187E+01 -0.35724519061E+02  0.54367124569E+02  0.40000092080E+02 0.  0.
         12    1    3    3    0    0 -0.32409166118E+01  0.83085537187E+01  0.35724519061E+02  0.36820875431E+02  0.00000000000E+00 0. -1.
         11    1    4    4    0    0 -0.43812193089E+01 -0.90421875616E+01 -0.43961296110E+01  0.10967323937E+02  0.51100000000E-03 0. -1.
        -11    1    4    4    0    0  0.53338101805E+01  0.37590862511E+01  0.41408310139E+01  0.77283078505E+01  0.51100000000E-03 0.  1.
        -12    1    4    4    0    0  0.22883257401E+01 -0.30254524082E+01 -0.35469220463E+02  0.35671492781E+02  0.00000000000E+00 0.  1.
</event>
<event>
 8    1  0.1212194E-006  0.9118800E+02  0.7816164E-02  0.1184000E+00
        -11   -1    0    0    0    0  0.00000000000E+00  0.00000000000E+00  0.45593999997E+02  0.45594000000E+02  0.51100000000E-03 0.  1.
         11   -1    0    0    0    0 -0.00000000000E+00 -0.00000000000E+00 -0.45593999997E+02  0.45594000000E+02  0.51100000000E-03 0. -1.
         23    2    1    2    0    0 -0.17763568394E-14  0.00000000000E+00 -0.35527136788E-14  0.91188000000E+02  0.91188000000E+02 0.  0.
    9900012    2    3    3    0    0  0.14930935070E+02 -0.19517737001E+02 -0.27420864908E+02  0.54367099522E+02  0.40000034981E+02 0.  0.
        -12    1    3    3    0    0 -0.14930935070E+02  0.19517737001E+02  0.27420864908E+02  0.36820900478E+02  0.00000000000E+00 0.  1.
         11    1    4    4    0    0  0.14869551755E+02 -0.19868368433E+02 -0.36784165713E+02  0.44372632118E+02  0.51100000000E-03 0. -1.
        -11    1    4    4    0    0 -0.81214970371E-01 -0.12200217171E+01  0.72776942054E+01  0.73796939009E+01  0.51100000000E-03 0.  1.
         12    1    4    4    0    0  0.14259828458E+00  0.15706531486E+01  0.20856066000E+01  0.26147735033E+01  0.00000000000E+00 0. -1.
</event>
<event>
 8    1  0.1212194E-006  0.9118800E+02  0.7816164E-02  0.1184000E+00
        -11   -1    0    0    0    0  0.00000000000E+00  0.00000000000E+00  0.45593999997E+02  0.45594000000E+02  0.51100000000E-03 0.  1.
         11   -1    0    0    0    0 -0.00000000000E+00 -0.00000000000E+00 -0.45593999997E+02  0.45594000000E+02  0.51100000000E-03 0. -1.
         23    2    1    2    0    0 -0.35527136788E-14  0.00000000000E+00 -0.71054273576E-14  0.91188000000E+02  0.91188000000E+02 0.  0.
    9900012    2    3    3    0    0  0.20462914648E+02 -0.17382740536E+02  0.25197123728E+02  0.54367006143E+02  0.39999822104E+02 0.  0.
         12    1    3    3    0    0 -0.20462914648E+02  0.17382740536E+02 -0.25197123728E+02  0.36820993857E+02  0.00000000000E+00 0. -1.
         11    1    4    4    0    0 -0.14661039062E+01  0.80524069987E+01 -0.45840759181E+01  0.93810698442E+01  0.51100000000E-03 0. -1.
        -11    1    4    4    0    0  0.13860769409E+01 -0.17477120982E+01  0.10784836680E+01  0.24776670777E+01  0.51100000000E-03 0.  1.
         12    1    4    4    0    0  0.20542941613E+02 -0.23687435436E+02  0.28702715978E+02  0.42508269221E+02  0.00000000000E+00 0. -1.
</event>
<event>
 8    1  0.1212194E-006  0.9118800E+02  0.7816164E-02  0.1184000E+00
        -11   -1    0    0    0    0  0.00000000000E+00  0.00000000000E+00  0.45593999997E+02  0.45594000000E+02  0.51100000000E-03 0.  1.
         11   -1    0    0    0    0 -0.00000000000E+00 -0.00000000000E+00 -0.45593999997E+02  0.45594000000E+02  0.51100000000E-03 0. -1.
         23    2    1    2    0    0 -0.88817841970E-15 -0.22204460493E-15  0.71054273576E-14  0.91188000000E+02  0.91188000000E+02 0.  0.
    9900012    2    3    3    0    0 -0.71142813284E+01  0.72539137626E+00  0.36119788635E+02  0.54367104811E+02  0.40000047038E+02 0.  0.
         12    1    3    3    0    0  0.71142813284E+01 -0.72539137626E+00 -0.36119788635E+02  0.36820895189E+02  0.00000000000E+00 0. -1.
         11    1    4    4    0    0 -0.17046077021E+02 -0.61161815613E+01  0.26563355554E+02  0.32149467760E+02  0.51100000000E-03 0. -1.
        -11    1    4    4    0    0 -0.22319691097E+01  0.18993265489E+00 -0.28419849197E+01  0.36186515534E+01  0.51100000000E-03 0.  1.
        -12    1    4    4    0    0  0.12163764802E+02  0.66516402827E+01  0.12398418001E+02  0.18598985498E+02  0.00000000000E+00 0.  1.
</event>
<event>
 8    1  0.1212194E-006  0.9118800E+02  0.7816164E-02  0.1184000E+00
        -11   -1    0    0    0    0  0.00000000000E+00  0.00000000000E+00  0.45593999997E+02  0.45594000000E+02  0.51100000000E-03 0. -1.
         11   -1    0    0    0    0 -0.00000000000E+00 -0.00000000000E+00 -0.45593999997E+02  0.45594000000E+02  0.51100000000E-03 0.  1.
         23    2    1    2    0    0  0.35527136788E-14  0.00000000000E+00  0.00000000000E+00  0.91188000000E+02  0.91188000000E+02 0.  0.
    9900012    2    3    3    0    0  0.19328234082E+02 -0.16048988010E+02 -0.26918947528E+02  0.54367076805E+02  0.39999983193E+02 0.  0.
         12    1    3    3    0    0 -0.19328234082E+02  0.16048988010E+02  0.26918947528E+02  0.36820923195E+02  0.00000000000E+00 0. -1.
         11    1    4    4    0    0 -0.74445029401E+01 -0.58669910087E+01 -0.73695565659E+01  0.12006355474E+02  0.51100000000E-03 0. -1.
        -11    1    4    4    0    0  0.19489072602E+02 -0.18124866023E+02 -0.11952005917E+02  0.29175077805E+02  0.51100000000E-03 0.  1.
        -12    1    4    4    0    0  0.72836644204E+01  0.79428690214E+01 -0.75973850453E+01  0.13185643526E+02  0.00000000000E+00 0.  1.
</event>
<event>
 8    1  0.1212194E-006  0.9118800E+02  0.7816164E-02  0.1184000E+00
        -11   -1    0    0    0    0  0.00000000000E+00  0.00000000000E+00  0.45593999997E+02  0.45594000000E+02  0.51100000000E-03 0.  1.
         11   -1    0    0    0    0 -0.00000000000E+00 -0.00000000000E+00 -0.45593999997E+02  0.45594000000E+02  0.51100000000E-03 0. -1.
         23    2    1    2    0    0 -0.88817841970E-15 -0.88817841970E-15 -0.71054273576E-14  0.91188000000E+02  0.91188000000E+02 0.  0.
    9900012    2    3    3    0    0 -0.20824604953E+01 -0.51558890573E+01 -0.36398644177E+02  0.54367066666E+02  0.39999960078E+02 0.  0.
        -12    1    3    3    0    0  0.20824604953E+01  0.51558890573E+01  0.36398644177E+02  0.36820933334E+02  0.00000000000E+00 0.  1.
         11    1    4    4    0    0 -0.67870492561E+01  0.47536853579E+01 -0.12784095761E+01  0.83842646303E+01  0.51100000000E-03 0. -1.
        -11    1    4    4    0    0 -0.77555687465E+01 -0.34490530277E+01 -0.35960659676E+00  0.84955359181E+01  0.51100000000E-03 0.  1.
         12    1    4    4    0    0  0.12460157507E+02 -0.64605213874E+01 -0.34760628004E+02  0.37487266117E+02  0.00000000000E+00 0. -1.
</event>
<event>
 8    1  0.1212194E-006  0.9118800E+02  0.7816164E-02  0.1184000E+00
        -11   -1    0    0    0    0  0.00000000000E+00  0.00000000000E+00  0.45593999997E+02  0.45594000000E+02  0.51100000000E-03 0. -1.
         11   -1    0    0    0    0 -0.00000000000E+00 -0.00000000000E+00 -0.45593999997E+02  0.45594000000E+02  0.51100000000E-03 0.  1.
         23    2    1    2    0    0 -0.35527136788E-14  0.00000000000E+00  0.00000000000E+00  0.91188000000E+02  0.91188000000E+02 0.  0.
    9900012    2    3    3    0    0  0.14895523212E+02  0.88236224258E+01 -0.32496887445E+02  0.54367073639E+02  0.39999975975E+02 0.  0.
         12    1    3    3    0    0 -0.14895523212E+02 -0.88236224258E+01  0.32496887445E+02  0.36820926361E+02  0.00000000000E+00 0. -1.
         11    1    4    4    0    0 -0.80026367689E+01  0.44314116838E+01 -0.38177574195E+01  0.99123597968E+01  0.51100000000E-03 0. -1.
        -11    1    4    4    0    0 -0.11921799656E+01  0.88504015064E+01 -0.11369147321E+02  0.14457123191E+02  0.51100000000E-03 0.  1.
         12    1    4    4    0    0  0.24090339947E+02 -0.44581907644E+01 -0.17309982704E+02  0.29997590651E+02  0.00000000000E+00 0. -1.
</event>
<event>
 8    1  0.1212194E-006  0.9118800E+02  0.7816164E-02  0.1184000E+00
        -11   -1    0    0    0    0  0.00000000000E+00  0.00000000000E+00  0.45593999997E+02  0.45594000000E+02  0.51100000000E-03 0. -1.
         11   -1    0    0    0    0 -0.00000000000E+00 -0.00000000000E+00 -0.45593999997E+02  0.45594000000E+02  0.51100000000E-03 0.  1.
         23    2    1    2    0    0  0.00000000000E+00  0.35527136788E-14  0.71054273576E-14  0.91188000000E+02  0.91188000000E+02 0.  0.
    9900012    2    3    3    0    0 -0.79715117256E+01  0.11494831501E+02  0.34060286840E+02  0.54367091673E+02  0.40000017086E+02 0.  0.
        -12    1    3    3    0    0  0.79715117256E+01 -0.11494831501E+02 -0.34060286840E+02  0.36820908327E+02  0.00000000000E+00 0.  1.
         11    1    4    4    0    0 -0.70924035069E+01 -0.10917471142E+02  0.20851151665E+02  0.24581779628E+02  0.51100000000E-03 0. -1.
        -11    1    4    4    0    0 -0.14671454157E+01  0.17623111523E+02  0.16303930536E+02  0.24052956713E+02  0.51100000000E-03 0.  1.
        -12    1    4    4    0    0  0.58803719699E+00  0.47891911197E+01 -0.30947953615E+01  0.57323553323E+01  0.00000000000E+00 0.  1.
</event>
<event>
 8    1  0.1212194E-006  0.9118800E+02  0.7816164E-02  0.1184000E+00
        -11   -1    0    0    0    0  0.00000000000E+00  0.00000000000E+00  0.45593999997E+02  0.45594000000E+02  0.51100000000E-03 0.  1.
         11   -1    0    0    0    0 -0.00000000000E+00 -0.00000000000E+00 -0.45593999997E+02  0.45594000000E+02  0.51100000000E-03 0. -1.
         23    2    1    2    0    0 -0.17763568394E-14  0.00000000000E+00  0.00000000000E+00  0.91188000000E+02  0.91188000000E+02 0.  0.
    9900012    2    3    3    0    0 -0.15238959684E+02  0.32196612524E+02 -0.93237032673E+01  0.54367092992E+02  0.40000020094E+02 0.  0.
         12    1    3    3    0    0  0.15238959684E+02 -0.32196612524E+02  0.93237032673E+01  0.36820907008E+02  0.00000000000E+00 0. -1.
         11    1    4    4    0    0 -0.13589236271E+01  0.83235540475E+01 -0.13638764642E+02  0.16035714098E+02  0.51100000000E-03 0.  1.
        -11    1    4    4    0    0 -0.12020506008E+02  0.58538936302E+01 -0.87656463341E+01  0.15987407271E+02  0.51100000000E-03 0. -1.
         12    1    4    4    0    0 -0.18595300484E+01  0.18019164846E+02  0.13080707709E+02  0.22343971624E+02  0.00000000000E+00 0. -1.
</event>
<event>
 8    1  0.1212194E-006  0.9118800E+02  0.7816164E-02  0.1184000E+00
        -11   -1    0    0    0    0  0.00000000000E+00  0.00000000000E+00  0.45593999997E+02  0.45594000000E+02  0.51100000000E-03 0.  1.
         11   -1    0    0    0    0 -0.00000000000E+00 -0.00000000000E+00 -0.45593999997E+02  0.45594000000E+02  0.51100000000E-03 0. -1.
         23    2    1    2    0    0  0.00000000000E+00  0.00000000000E+00 -0.44408920985E-15  0.91188000000E+02  0.91188000000E+02 0.  0.
    9900012    2    3    3    0    0 -0.32818427012E+02 -0.16438082259E+02 -0.29189695404E+01  0.54367080904E+02  0.39999992536E+02 0.  0.
         12    1    3    3    0    0  0.32818427012E+02  0.16438082259E+02  0.29189695404E+01  0.36820919096E+02  0.00000000000E+00 0. -1.
         11    1    4    4    0    0  0.44514573711E+01 -0.12822411061E+02  0.54517524823E+00  0.13584068406E+02  0.51100000000E-03 0. -1.
        -11    1    4    4    0    0 -0.30466101106E+01 -0.37903196704E+01 -0.43833989983E+01  0.65469491681E+01  0.51100000000E-03 0.  1.
        -12    1    4    4    0    0 -0.34223274273E+02  0.17464847212E+00  0.91925420971E+00  0.34236063330E+02  0.00000000000E+00 0.  1.
</event>
<event>
 8    1  0.1212194E-006  0.9118800E+02  0.7816164E-02  0.1184000E+00
        -11   -1    0    0    0    0  0.00000000000E+00  0.00000000000E+00  0.45593999997E+02  0.45594000000E+02  0.51100000000E-03 0.  1.
         11   -1    0    0    0    0 -0.00000000000E+00 -0.00000000000E+00 -0.45593999997E+02  0.45594000000E+02  0.51100000000E-03 0. -1.
         23    2    1    2    0    0  0.00000000000E+00  0.00000000000E+00 -0.17763568394E-14  0.91188000000E+02  0.91188000000E+02 0.  0.
    9900012    2    3    3    0    0 -0.10917821071E+02 -0.34414062746E+02 -0.72286891300E+01  0.54367075539E+02  0.39999980307E+02 0.  0.
         12    1    3    3    0    0  0.10917821071E+02  0.34414062746E+02  0.72286891300E+01  0.36820924461E+02  0.00000000000E+00 0. -1.
         11    1    4    4    0    0  0.96123812965E+01 -0.74244196234E+01 -0.50727989506E+01  0.13162567014E+02  0.51100000000E-03 0. -1.
        -11    1    4    4    0    0 -0.11816175909E+02 -0.16151145270E+02 -0.12744162608E+02  0.23725412272E+02  0.51100000000E-03 0.  1.
        -12    1    4    4    0    0 -0.87140264587E+01 -0.10838497852E+02  0.10588272429E+02  0.17479096254E+02  0.00000000000E+00 0.  1.
</event>
<event>
 8    1  0.1212194E-006  0.9118800E+02  0.7816164E-02  0.1184000E+00
        -11   -1    0    0    0    0  0.00000000000E+00  0.00000000000E+00  0.45593999997E+02  0.45594000000E+02  0.51100000000E-03 0.  1.
         11   -1    0    0    0    0 -0.00000000000E+00 -0.00000000000E+00 -0.45593999997E+02  0.45594000000E+02  0.51100000000E-03 0. -1.
         23    2    1    2    0    0  0.88817841970E-15  0.00000000000E+00  0.00000000000E+00  0.91188000000E+02  0.91188000000E+02 0.  0.
    9900012    2    3    3    0    0  0.54389586379E+01  0.12357917672E+02 -0.34256081472E+02  0.54367088576E+02  0.40000010027E+02 0.  0.
        -12    1    3    3    0    0 -0.54389586379E+01 -0.12357917672E+02  0.34256081472E+02  0.36820911424E+02  0.00000000000E+00 0.  1.
         11    1    4    4    0    0 -0.34629292929E+01 -0.82422335362E+01 -0.13851467983E+02  0.16486038290E+02  0.51100000000E-03 0. -1.
        -11    1    4    4    0    0 -0.47579759166E+01  0.95686803628E+01  0.35464461466E+00  0.10692228569E+02  0.51100000000E-03 0.  1.
         12    1    4    4    0    0  0.13659863847E+02  0.11031470846E+02 -0.20759258104E+02  0.27188821717E+02  0.00000000000E+00 0. -1.
</event>
<event>
 8    1  0.1212194E-006  0.9118800E+02  0.7816164E-02  0.1184000E+00
        -11   -1    0    0    0    0  0.00000000000E+00  0.00000000000E+00  0.45593999997E+02  0.45594000000E+02  0.51100000000E-03 0.  1.
         11   -1    0    0    0    0 -0.00000000000E+00 -0.00000000000E+00 -0.45593999997E+02  0.45594000000E+02  0.51100000000E-03 0. -1.
         23    2    1    2    0    0  0.17763568394E-14 -0.44408920985E-15  0.71054273576E-14  0.91188000000E+02  0.91188000000E+02 0.  0.
    9900012    2    3    3    0    0  0.10986446152E+02 -0.19661356738E+01 -0.35088646790E+02  0.54367070868E+02  0.39999969659E+02 0.  0.
        -12    1    3    3    0    0 -0.10986446152E+02  0.19661356738E+01  0.35088646790E+02  0.36820929132E+02  0.00000000000E+00 0.  1.
         11    1    4    4    0    0  0.15164880574E+01 -0.17961176745E+00  0.45484846421E+01  0.47979901226E+01  0.51100000000E-03 0. -1.
        -11    1    4    4    0    0  0.22043731336E+01 -0.12353023300E+02 -0.32622269460E+02  0.34952380614E+02  0.51100000000E-03 0.  1.
         12    1    4    4    0    0  0.72655849610E+01  0.10566499394E+02 -0.70148619722E+01  0.14616700132E+02  0.00000000000E+00 0. -1.
</event>
<event>
 8    1  0.1212194E-006  0.9118800E+02  0.7816164E-02  0.1184000E+00
        -11   -1    0    0    0    0  0.00000000000E+00  0.00000000000E+00  0.45593999997E+02  0.45594000000E+02  0.51100000000E-03 0.  1.
         11   -1    0    0    0    0 -0.00000000000E+00 -0.00000000000E+00 -0.45593999997E+02  0.45594000000E+02  0.51100000000E-03 0. -1.
         23    2    1    2    0    0 -0.88817841970E-15  0.00000000000E+00  0.00000000000E+00  0.91188000000E+02  0.91188000000E+02 0.  0.
    9900012    2    3    3    0    0 -0.48301038841E+01  0.12734279959E+02  0.34209479197E+02  0.54367078549E+02  0.39999987168E+02 0.  0.
         12    1    3    3    0    0  0.48301038841E+01 -0.12734279959E+02 -0.34209479197E+02  0.36820921451E+02  0.00000000000E+00 0. -1.
         11    1    4    4    0    0  0.39020509855E+01 -0.14980214881E+01 -0.55481653537E+00  0.42163837493E+01  0.51100000000E-03 0. -1.
        -11    1    4    4    0    0  0.62184303441E+01 -0.73695346994E+01  0.11958984781E+02  0.15362168951E+02  0.51100000000E-03 0.  1.
         12    1    4    4    0    0 -0.14950585214E+02  0.21601836146E+02  0.22805310951E+02  0.34788525848E+02  0.00000000000E+00 0. -1.
</event>
<event>
 8    1  0.1212194E-006  0.9118800E+02  0.7816164E-02  0.1184000E+00
        -11   -1    0    0    0    0  0.00000000000E+00  0.00000000000E+00  0.45593999997E+02  0.45594000000E+02  0.51100000000E-03 0. -1.
         11   -1    0    0    0    0 -0.00000000000E+00 -0.00000000000E+00 -0.45593999997E+02  0.45594000000E+02  0.51100000000E-03 0.  1.
         23    2    1    2    0    0  0.00000000000E+00  0.00000000000E+00  0.16514567491E-14  0.91188000000E+02  0.91188000000E+02 0.  0.
    9900012    2    3    3    0    0 -0.11460513551E+02 -0.34991844101E+02  0.91420123628E-01  0.54367070054E+02  0.39999967802E+02 0.  0.
        -12    1    3    3    0    0  0.11460513551E+02  0.34991844101E+02 -0.91420123628E-01  0.36820929946E+02  0.00000000000E+00 0.  1.
         11    1    4    4    0    0 -0.27028457142E+01 -0.21608546215E+02  0.15019572427E+02  0.26454152805E+02  0.51100000000E-03 0. -1.
        -11    1    4    4    0    0 -0.10269164910E+02 -0.44637170894E+00 -0.44689676910E+01  0.11208330301E+02  0.51100000000E-03 0.  1.
         12    1    4    4    0    0  0.15114970738E+01 -0.12936926177E+02 -0.10459184613E+02  0.16704586947E+02  0.00000000000E+00 0. -1.
</event>
<event>
 8    1  0.1212194E-006  0.9118800E+02  0.7816164E-02  0.1184000E+00
        -11   -1    0    0    0    0  0.00000000000E+00  0.00000000000E+00  0.45593999997E+02  0.45594000000E+02  0.51100000000E-03 0. -1.
         11   -1    0    0    0    0 -0.00000000000E+00 -0.00000000000E+00 -0.45593999997E+02  0.45594000000E+02  0.51100000000E-03 0.  1.
         23    2    1    2    0    0 -0.88817841970E-15  0.00000000000E+00  0.00000000000E+00  0.91188000000E+02  0.91188000000E+02 0.  0.
    9900012    2    3    3    0    0  0.54272885624E+01 -0.21289742647E+02 -0.29547784226E+02  0.54367079917E+02  0.39999990287E+02 0.  0.
         12    1    3    3    0    0 -0.54272885624E+01  0.21289742647E+02  0.29547784226E+02  0.36820920083E+02  0.00000000000E+00 0. -1.
         11    1    4    4    0    0 -0.79717675411E+01 -0.10250028472E+02 -0.12011377620E+02  0.17688565629E+02  0.51100000000E-03 0. -1.
        -11    1    4    4    0    0 -0.71513022218E+01 -0.10148542495E+01 -0.10520220877E+02  0.12761116729E+02  0.51100000000E-03 0.  1.
         12    1    4    4    0    0  0.20550358325E+02 -0.10024859925E+02 -0.70161857282E+01  0.23917397559E+02  0.00000000000E+00 0. -1.
</event>
<event>
 8    1  0.1212194E-006  0.9118800E+02  0.7816164E-02  0.1184000E+00
        -11   -1    0    0    0    0  0.00000000000E+00  0.00000000000E+00  0.45593999997E+02  0.45594000000E+02  0.51100000000E-03 0. -1.
         11   -1    0    0    0    0 -0.00000000000E+00 -0.00000000000E+00 -0.45593999997E+02  0.45594000000E+02  0.51100000000E-03 0.  1.
         23    2    1    2    0    0  0.00000000000E+00  0.17763568394E-14  0.35527136788E-14  0.91188000000E+02  0.91188000000E+02 0.  0.
    9900012    2    3    3    0    0  0.32399662986E+02 -0.42682227684E+01 -0.16965329711E+02  0.54367105125E+02  0.40000047754E+02 0.  0.
         12    1    3    3    0    0 -0.32399662986E+02  0.42682227684E+01  0.16965329711E+02  0.36820894875E+02  0.00000000000E+00 0. -1.
         11    1    4    4    0    0 -0.36615167708E+01 -0.45314849976E+01  0.55695259120E+01  0.80598188870E+01  0.51100000000E-03 0. -1.
        -11    1    4    4    0    0  0.14459781284E+02  0.91025309057E+01 -0.86759485972E+01  0.19162813677E+02  0.51100000000E-03 0.  1.
        -12    1    4    4    0    0  0.21601398472E+02 -0.88392686765E+01 -0.13858907026E+02  0.27144472561E+02  0.00000000000E+00 0.  1.
</event>
<event>
 8    1  0.1212194E-006  0.9118800E+02  0.7816164E-02  0.1184000E+00
        -11   -1    0    0    0    0  0.00000000000E+00  0.00000000000E+00  0.45593999997E+02  0.45594000000E+02  0.51100000000E-03 0. -1.
         11   -1    0    0    0    0 -0.00000000000E+00 -0.00000000000E+00 -0.45593999997E+02  0.45594000000E+02  0.51100000000E-03 0.  1.
         23    2    1    2    0    0  0.00000000000E+00 -0.35527136788E-14  0.71054273576E-14  0.91188000000E+02  0.91188000000E+02 0.  0.
    9900012    2    3    3    0    0 -0.74274812559E+01  0.11663243972E+02 -0.34125980367E+02  0.54367064735E+02  0.39999955676E+02 0.  0.
         12    1    3    3    0    0  0.74274812559E+01 -0.11663243972E+02  0.34125980367E+02  0.36820935265E+02  0.00000000000E+00 0. -1.
         11    1    4    4    0    0 -0.61135134633E+01 -0.92064910781E+01 -0.66657985527E+00  0.11071533489E+02  0.51100000000E-03 0. -1.
        -11    1    4    4    0    0  0.32692642551E+01  0.35567329346E+01 -0.20825221290E+02  0.21378219757E+02  0.51100000000E-03 0.  1.
         12    1    4    4    0    0 -0.45832320477E+01  0.17313002116E+02 -0.12634179222E+02  0.21917311488E+02  0.00000000000E+00 0. -1.
</event>
<event>
 8    1  0.1212194E-006  0.9118800E+02  0.7816164E-02  0.1184000E+00
        -11   -1    0    0    0    0  0.00000000000E+00  0.00000000000E+00  0.45593999997E+02  0.45594000000E+02  0.51100000000E-03 0. -1.
         11   -1    0    0    0    0 -0.00000000000E+00 -0.00000000000E+00 -0.45593999997E+02  0.45594000000E+02  0.51100000000E-03 0.  1.
         23    2    1    2    0    0  0.00000000000E+00  0.00000000000E+00  0.00000000000E+00  0.91188000000E+02  0.91188000000E+02 0.  0.
    9900012    2    3    3    0    0  0.10549206293E+02  0.35254428682E+02 -0.12729942925E+01  0.54367068323E+02  0.39999963855E+02 0.  0.
        -12    1    3    3    0    0 -0.10549206293E+02 -0.35254428682E+02  0.12729942925E+01  0.36820931677E+02  0.00000000000E+00 0.  1.
         11    1    4    4    0    0  0.20619467303E+01  0.56736838350E+01 -0.55360974845E+01  0.81908905618E+01  0.51100000000E-03 0.  1.
        -11    1    4    4    0    0  0.95542435839E+01  0.23510081306E+02 -0.12519538814E+02  0.28297461827E+02  0.51100000000E-03 0. -1.
        -12    1    4    4    0    0 -0.10669840207E+01  0.60706635409E+01  0.16782642006E+02  0.17878715934E+02  0.00000000000E+00 0.  1.
</event>
<event>
 8    1  0.1212194E-006  0.9118800E+02  0.7816164E-02  0.1184000E+00
        -11   -1    0    0    0    0  0.00000000000E+00  0.00000000000E+00  0.45593999997E+02  0.45594000000E+02  0.51100000000E-03 0. -1.
         11   -1    0    0    0    0 -0.00000000000E+00 -0.00000000000E+00 -0.45593999997E+02  0.45594000000E+02  0.51100000000E-03 0.  1.
         23    2    1    2    0    0 -0.44408920985E-15  0.00000000000E+00  0.17763568394E-14  0.91188000000E+02  0.91188000000E+02 0.  0.
    9900012    2    3    3    0    0  0.39501006745E+01 -0.35502444637E+02  0.89304356670E+01  0.54367088119E+02  0.40000008985E+02 0.  0.
        -12    1    3    3    0    0 -0.39501006745E+01  0.35502444637E+02 -0.89304356670E+01  0.36820911881E+02  0.00000000000E+00 0.  1.
         11    1    4    4    0    0  0.14074199011E+02 -0.23708483075E+02 -0.21325708346E+01  0.27653627359E+02  0.51100000000E-03 0. -1.
        -11    1    4    4    0    0 -0.59939339327E+01 -0.40686530567E+01 -0.47312655398E+01  0.86525172958E+01  0.51100000000E-03 0.  1.
        -12    1    4    4    0    0 -0.41301644034E+01 -0.77253085053E+01  0.15794272041E+02  0.18060943464E+02  0.00000000000E+00 0.  1.
</event>
<event>
 8    1  0.1212194E-006  0.9118800E+02  0.7816164E-02  0.1184000E+00
        -11   -1    0    0    0    0  0.00000000000E+00  0.00000000000E+00  0.45593999997E+02  0.45594000000E+02  0.51100000000E-03 0. -1.
         11   -1    0    0    0    0 -0.00000000000E+00 -0.00000000000E+00 -0.45593999997E+02  0.45594000000E+02  0.51100000000E-03 0.  1.
         23    2    1    2    0    0  0.00000000000E+00  0.00000000000E+00  0.17763568394E-14  0.91188000000E+02  0.91188000000E+02 0.  0.
    9900012    2    3    3    0    0  0.31935122143E+02 -0.16820171887E+02  0.72808529202E+01  0.54367068075E+02  0.39999963291E+02 0.  0.
        -12    1    3    3    0    0 -0.31935122143E+02  0.16820171887E+02 -0.72808529202E+01  0.36820931925E+02  0.00000000000E+00 0.  1.
         11    1    4    4    0    0  0.11933959081E+02 -0.66019509379E+01 -0.10572915412E+02  0.17256641507E+02  0.51100000000E-03 0. -1.
        -11    1    4    4    0    0  0.16517739067E+02 -0.64929386444E+01 -0.80584484650E+00  0.17766354221E+02  0.51100000000E-03 0.  1.
        -12    1    4    4    0    0  0.34834239945E+01 -0.37252823048E+01  0.18659613179E+02  0.19344072347E+02  0.00000000000E+00 0.  1.
</event>
<event>
 8    1  0.1212194E-006  0.9118800E+02  0.7816164E-02  0.1184000E+00
        -11   -1    0    0    0    0  0.00000000000E+00  0.00000000000E+00  0.45593999997E+02  0.45594000000E+02  0.51100000000E-03 0. -1.
         11   -1    0    0    0    0 -0.00000000000E+00 -0.00000000000E+00 -0.45593999997E+02  0.45594000000E+02  0.51100000000E-03 0.  1.
         23    2    1    2    0    0 -0.35527136788E-14  0.00000000000E+00  0.00000000000E+00  0.91188000000E+02  0.91188000000E+02 0.  0.
    9900012    2    3    3    0    0  0.21394994868E+02 -0.10625044620E+02  0.28020398786E+02  0.54367080312E+02  0.39999991187E+02 0.  0.
        -12    1    3    3    0    0 -0.21394994868E+02  0.10625044620E+02 -0.28020398786E+02  0.36820919688E+02  0.00000000000E+00 0.  1.
         11    1    4    4    0    0  0.60543164516E+01 -0.48922607455E+01  0.32161344238E+02  0.33089893115E+02  0.51100000000E-03 0. -1.
        -11    1    4    4    0    0  0.60772160518E+00 -0.28119341525E+01 -0.54889000491E+01  0.61971221739E+01  0.51100000000E-03 0.  1.
        -12    1    4    4    0    0  0.14732956811E+02 -0.29208497223E+01  0.13479545968E+01  0.15080065023E+02  0.00000000000E+00 0.  1.
</event>
<event>
 8    1  0.1212194E-006  0.9118800E+02  0.7816164E-02  0.1184000E+00
        -11   -1    0    0    0    0  0.00000000000E+00  0.00000000000E+00  0.45593999997E+02  0.45594000000E+02  0.51100000000E-03 0.  1.
         11   -1    0    0    0    0 -0.00000000000E+00 -0.00000000000E+00 -0.45593999997E+02  0.45594000000E+02  0.51100000000E-03 0. -1.
         23    2    1    2    0    0 -0.71054273576E-14  0.35527136788E-14 -0.17763568394E-14  0.91188000000E+02  0.91188000000E+02 0.  0.
    9900012    2    3    3    0    0 -0.19832954828E+02  0.27147876393E+02 -0.15014190341E+02  0.54367092876E+02  0.40000019829E+02 0.  0.
         12    1    3    3    0    0  0.19832954828E+02 -0.27147876393E+02  0.15014190341E+02  0.36820907124E+02  0.00000000000E+00 0. -1.
         11    1    4    4    0    0  0.87151933613E+01  0.72484339225E+01 -0.19318343953E+01  0.11498972739E+02  0.51100000000E-03 0. -1.
        -11    1    4    4    0    0 -0.26922068207E+02  0.21857512400E+02 -0.16664293525E+02  0.38473981908E+02  0.51100000000E-03 0.  1.
         12    1    4    4    0    0 -0.16260799819E+01 -0.19580699294E+01  0.35819375796E+01  0.43941382295E+01  0.00000000000E+00 0. -1.
</event>
<event>
 8    1  0.1212194E-006  0.9118800E+02  0.7816164E-02  0.1184000E+00
        -11   -1    0    0    0    0  0.00000000000E+00  0.00000000000E+00  0.45593999997E+02  0.45594000000E+02  0.51100000000E-03 0.  1.
         11   -1    0    0    0    0 -0.00000000000E+00 -0.00000000000E+00 -0.45593999997E+02  0.45594000000E+02  0.51100000000E-03 0. -1.
         23    2    1    2    0    0  0.00000000000E+00  0.17763568394E-14  0.00000000000E+00  0.91188000000E+02  0.91188000000E+02 0.  0.
    9900012    2    3    3    0    0 -0.48968585935E+01 -0.12463260639E+02  0.34299681202E+02  0.54367079039E+02  0.39999988286E+02 0.  0.
         12    1    3    3    0    0  0.48968585935E+01  0.12463260639E+02 -0.34299681202E+02  0.36820920961E+02  0.00000000000E+00 0. -1.
         11    1    4    4    0    0  0.24632801549E+01  0.42090585095E+01 -0.41286196384E+01  0.63897905316E+01  0.51100000000E-03 0. -1.
        -11    1    4    4    0    0 -0.57619048244E+01  0.35000549073E+01  0.18009611814E+02  0.19230081890E+02  0.51100000000E-03 0.  1.
        -12    1    4    4    0    0 -0.15982339240E+01 -0.20172374056E+02  0.20418689026E+02  0.28747206617E+02  0.00000000000E+00 0.  1.
</event>
<event>
 8    1  0.1212194E-006  0.9118800E+02  0.7816164E-02  0.1184000E+00
        -11   -1    0    0    0    0  0.00000000000E+00  0.00000000000E+00  0.45593999997E+02  0.45594000000E+02  0.51100000000E-03 0. -1.
         11   -1    0    0    0    0 -0.00000000000E+00 -0.00000000000E+00 -0.45593999997E+02  0.45594000000E+02  0.51100000000E-03 0.  1.
         23    2    1    2    0    0  0.38857805862E-15  0.00000000000E+00  0.00000000000E+00  0.91188000000E+02  0.91188000000E+02 0.  0.
    9900012    2    3    3    0    0 -0.33233949677E+00 -0.20752228821E+02 -0.30414046074E+02  0.54367086796E+02  0.40000005970E+02 0.  0.
         12    1    3    3    0    0  0.33233949677E+00  0.20752228821E+02  0.30414046074E+02  0.36820913204E+02  0.00000000000E+00 0. -1.
         11    1    4    4    0    0 -0.50044269740E+01 -0.10015813231E+02  0.74677881485E+00  0.11221340511E+02  0.51100000000E-03 0. -1.
        -11    1    4    4    0    0 -0.87896646770E+01 -0.13459143384E+02 -0.15792253502E+02  0.22534462866E+02  0.51100000000E-03 0.  1.
         12    1    4    4    0    0  0.13461752154E+02  0.27227277934E+01 -0.15368571387E+02  0.20611283419E+02  0.00000000000E+00 0. -1.
</event>
<event>
 8    1  0.1212194E-006  0.9118800E+02  0.7816164E-02  0.1184000E+00
        -11   -1    0    0    0    0  0.00000000000E+00  0.00000000000E+00  0.45593999997E+02  0.45594000000E+02  0.51100000000E-03 0.  1.
         11   -1    0    0    0    0 -0.00000000000E+00 -0.00000000000E+00 -0.45593999997E+02  0.45594000000E+02  0.51100000000E-03 0. -1.
         23    2    1    2    0    0  0.17763568394E-14  0.00000000000E+00  0.00000000000E+00  0.91188000000E+02  0.91188000000E+02 0.  0.
    9900012    2    3    3    0    0 -0.15184739818E+02 -0.34002242656E+01  0.33371352665E+02  0.54367013768E+02  0.39999839487E+02 0.  0.
         12    1    3    3    0    0  0.15184739818E+02  0.34002242656E+01 -0.33371352665E+02  0.36820986232E+02  0.00000000000E+00 0. -1.
         11    1    4    4    0    0 -0.25259271775E+01 -0.97651343902E+01  0.30124142900E+02  0.31767942072E+02  0.51100000000E-03 0.  1.
        -11    1    4    4    0    0 -0.59488856291E+01 -0.57546960067E+01  0.28040316639E+01  0.87388992551E+01  0.51100000000E-03 0. -1.
        -12    1    4    4    0    0 -0.67099270113E+01  0.12119606131E+02  0.44317810106E+00  0.13860172441E+02  0.00000000000E+00 0.  1.
</event>
<event>
 8    1  0.1212194E-006  0.9118800E+02  0.7816164E-02  0.1184000E+00
        -11   -1    0    0    0    0  0.00000000000E+00  0.00000000000E+00  0.45593999997E+02  0.45594000000E+02  0.51100000000E-03 0.  1.
         11   -1    0    0    0    0 -0.00000000000E+00 -0.00000000000E+00 -0.45593999997E+02  0.45594000000E+02  0.51100000000E-03 0. -1.
         23    2    1    2    0    0  0.00000000000E+00  0.00000000000E+00  0.00000000000E+00  0.91188000000E+02  0.91188000000E+02 0.  0.
    9900012    2    3    3    0    0 -0.20782559170E+02  0.29216316403E+02 -0.83828879225E+01  0.54367072259E+02  0.39999972829E+02 0.  0.
        -12    1    3    3    0    0  0.20782559170E+02 -0.29216316403E+02  0.83828879225E+01  0.36820927741E+02  0.00000000000E+00 0.  1.
         11    1    4    4    0    0 -0.15841937298E+02  0.21698410901E+02  0.87691268160E+01  0.28261026138E+02  0.51100000000E-03 0. -1.
        -11    1    4    4    0    0 -0.68534941055E+01  0.36797391250E+01 -0.19656576575E+02  0.21139817038E+02  0.51100000000E-03 0.  1.
         12    1    4    4    0    0  0.19128722337E+01  0.38381663764E+01  0.25045618367E+01  0.49662290834E+01  0.00000000000E+00 0. -1.
</event>
<event>
 8    1  0.1212194E-006  0.9118800E+02  0.7816164E-02  0.1184000E+00
        -11   -1    0    0    0    0  0.00000000000E+00  0.00000000000E+00  0.45593999997E+02  0.45594000000E+02  0.51100000000E-03 0.  1.
         11   -1    0    0    0    0 -0.00000000000E+00 -0.00000000000E+00 -0.45593999997E+02  0.45594000000E+02  0.51100000000E-03 0. -1.
         23    2    1    2    0    0  0.88817841970E-15  0.00000000000E+00 -0.17763568394E-14  0.91188000000E+02  0.91188000000E+02 0.  0.
    9900012    2    3    3    0    0  0.37145905428E+01  0.34488598770E+02  0.12349794720E+02  0.54367094829E+02  0.40000024282E+02 0.  0.
         12    1    3    3    0    0 -0.37145905428E+01 -0.34488598770E+02 -0.12349794720E+02  0.36820905171E+02  0.00000000000E+00 0. -1.
         11    1    4    4    0    0 -0.45305953160E+01  0.84557966561E+01 -0.70313628673E+01  0.11893983985E+02  0.51100000000E-03 0. -1.
        -11    1    4    4    0    0  0.13985374808E+02  0.22549991453E+02  0.22758193321E+02  0.34957519742E+02  0.51100000000E-03 0.  1.
        -12    1    4    4    0    0 -0.57401889487E+01  0.34828106609E+01 -0.33770357336E+01  0.75155911020E+01  0.00000000000E+00 0.  1.
</event>
<event>
 8    1  0.1212194E-006  0.9118800E+02  0.7816164E-02  0.1184000E+00
        -11   -1    0    0    0    0  0.00000000000E+00  0.00000000000E+00  0.45593999997E+02  0.45594000000E+02  0.51100000000E-03 0.  1.
         11   -1    0    0    0    0 -0.00000000000E+00 -0.00000000000E+00 -0.45593999997E+02  0.45594000000E+02  0.51100000000E-03 0. -1.
         23    2    1    2    0    0  0.00000000000E+00  0.71054273576E-14  0.00000000000E+00  0.91188000000E+02  0.91188000000E+02 0.  0.
    9900012    2    3    3    0    0 -0.46746903555E+01 -0.32714266087E+02  0.16238974006E+02  0.54367079150E+02  0.39999988538E+02 0.  0.
         12    1    3    3    0    0  0.46746903555E+01  0.32714266087E+02 -0.16238974006E+02  0.36820920850E+02  0.00000000000E+00 0. -1.
         11    1    4    4    0    0 -0.77607276573E+00  0.57381363661E+01  0.92772470580E+01  0.10935986976E+02  0.51100000000E-03 0. -1.
        -11    1    4    4    0    0  0.68283676735E+01 -0.20852030744E+02  0.95659236306E+00  0.21962442042E+02  0.51100000000E-03 0.  1.
         12    1    4    4    0    0 -0.10726985263E+02 -0.17600371708E+02  0.60051345848E+01  0.21468650132E+02  0.00000000000E+00 0. -1.
</event>
<event>
 8    1  0.1212194E-006  0.9118800E+02  0.7816164E-02  0.1184000E+00
        -11   -1    0    0    0    0  0.00000000000E+00  0.00000000000E+00  0.45593999997E+02  0.45594000000E+02  0.51100000000E-03 0. -1.
         11   -1    0    0    0    0 -0.00000000000E+00 -0.00000000000E+00 -0.45593999997E+02  0.45594000000E+02  0.51100000000E-03 0.  1.
         23    2    1    2    0    0  0.00000000000E+00  0.88817841970E-15  0.00000000000E+00  0.91188000000E+02  0.91188000000E+02 0.  0.
    9900012    2    3    3    0    0 -0.35616891623E+02 -0.61165453471E+01  0.70572296255E+01  0.54367087656E+02  0.40000007928E+02 0.  0.
        -12    1    3    3    0    0  0.35616891623E+02  0.61165453471E+01 -0.70572296255E+01  0.36820912344E+02  0.00000000000E+00 0.  1.
         11    1    4    4    0    0 -0.48820230509E+01  0.22990217018E+01  0.55666984393E+01  0.77529208451E+01  0.51100000000E-03 0. -1.
        -11    1    4    4    0    0  0.73351121376E+01 -0.34956006572E+01  0.12889476808E+01  0.82270578223E+01  0.51100000000E-03 0.  1.
        -12    1    4    4    0    0 -0.38069980710E+02 -0.49199663917E+01  0.20158350547E+00  0.38387108988E+02  0.00000000000E+00 0.  1.
</event>
<event>
 8    1  0.1212194E-006  0.9118800E+02  0.7816164E-02  0.1184000E+00
        -11   -1    0    0    0    0  0.00000000000E+00  0.00000000000E+00  0.45593999997E+02  0.45594000000E+02  0.51100000000E-03 0. -1.
         11   -1    0    0    0    0 -0.00000000000E+00 -0.00000000000E+00 -0.45593999997E+02  0.45594000000E+02  0.51100000000E-03 0.  1.
         23    2    1    2    0    0  0.00000000000E+00  0.88817841970E-15  0.26645352591E-14  0.91188000000E+02  0.91188000000E+02 0.  0.
    9900012    2    3    3    0    0 -0.36086290753E+02 -0.72247061132E+01  0.11681029864E+01  0.54367065420E+02  0.39999957238E+02 0.  0.
        -12    1    3    3    0    0  0.36086290753E+02  0.72247061132E+01 -0.11681029864E+01  0.36820934580E+02  0.00000000000E+00 0.  1.
         11    1    4    4    0    0 -0.72784422396E+01  0.91209044438E+01  0.38748600545E+00  0.11675477077E+02  0.51100000000E-03 0. -1.
        -11    1    4    4    0    0 -0.47535817752E+01 -0.87770977809E+01 -0.11004197579E+02  0.14856862043E+02  0.51100000000E-03 0.  1.
        -12    1    4    4    0    0 -0.24054266738E+02 -0.75685127762E+01  0.11784814560E+02  0.27834726300E+02  0.00000000000E+00 0.  1.
</event>
<event>
 8    1  0.1212194E-006  0.9118800E+02  0.7816164E-02  0.1184000E+00
        -11   -1    0    0    0    0  0.00000000000E+00  0.00000000000E+00  0.45593999997E+02  0.45594000000E+02  0.51100000000E-03 0. -1.
         11   -1    0    0    0    0 -0.00000000000E+00 -0.00000000000E+00 -0.45593999997E+02  0.45594000000E+02  0.51100000000E-03 0.  1.
         23    2    1    2    0    0  0.71054273576E-14  0.00000000000E+00  0.00000000000E+00  0.91188000000E+02  0.91188000000E+02 0.  0.
    9900012    2    3    3    0    0  0.32914060048E+02  0.86965415071E+01 -0.14029066168E+02  0.54367083654E+02  0.39999998806E+02 0.  0.
         12    1    3    3    0    0 -0.32914060048E+02 -0.86965415071E+01  0.14029066168E+02  0.36820916346E+02  0.00000000000E+00 0. -1.
         11    1    4    4    0    0  0.22342700487E+02  0.15437258375E+02 -0.84360987810E+01  0.28437175916E+02  0.51100000000E-03 0. -1.
        -11    1    4    4    0    0  0.12696400997E+02 -0.26373599880E+01 -0.12241782830E+02  0.17832989461E+02  0.51100000000E-03 0.  1.
        -12    1    4    4    0    0 -0.21250414362E+01 -0.41033568796E+01  0.66488154431E+01  0.80969182769E+01  0.00000000000E+00 0.  1.
</event>
<event>
 8    1  0.1212194E-006  0.9118800E+02  0.7816164E-02  0.1184000E+00
        -11   -1    0    0    0    0  0.00000000000E+00  0.00000000000E+00  0.45593999997E+02  0.45594000000E+02  0.51100000000E-03 0.  1.
         11   -1    0    0    0    0 -0.00000000000E+00 -0.00000000000E+00 -0.45593999997E+02  0.45594000000E+02  0.51100000000E-03 0. -1.
         23    2    1    2    0    0  0.66613381478E-15  0.00000000000E+00  0.00000000000E+00  0.91188000000E+02  0.91188000000E+02 0.  0.
    9900012    2    3    3    0    0 -0.19491861616E+01  0.31684393022E+02  0.18656953931E+02  0.54367054631E+02  0.39999932643E+02 0.  0.
         12    1    3    3    0    0  0.19491861616E+01 -0.31684393022E+02 -0.18656953931E+02  0.36820945369E+02  0.00000000000E+00 0. -1.
         11    1    4    4    0    0  0.11171837848E+02  0.65315242554E+01 -0.16976283253E+01  0.13051923697E+02  0.51100000000E-03 0. -1.
        -11    1    4    4    0    0  0.55377136445E+01  0.89192032597E+01  0.24452526281E+01  0.10779504621E+02  0.51100000000E-03 0.  1.
        -12    1    4    4    0    0 -0.18658737654E+02  0.16233665507E+02  0.17909329628E+02  0.30535626314E+02  0.00000000000E+00 0.  1.
</event>
<event>
 8    1  0.1212194E-006  0.9118800E+02  0.7816164E-02  0.1184000E+00
        -11   -1    0    0    0    0  0.00000000000E+00  0.00000000000E+00  0.45593999997E+02  0.45594000000E+02  0.51100000000E-03 0. -1.
         11   -1    0    0    0    0 -0.00000000000E+00 -0.00000000000E+00 -0.45593999997E+02  0.45594000000E+02  0.51100000000E-03 0.  1.
         23    2    1    2    0    0  0.17763568394E-14 -0.35527136788E-14  0.35527136788E-14  0.91188000000E+02  0.91188000000E+02 0.  0.
    9900012    2    3    3    0    0  0.58917931191E+01  0.27193010553E+02 -0.24116547975E+02  0.54367069331E+02  0.39999966154E+02 0.  0.
         12    1    3    3    0    0 -0.58917931191E+01 -0.27193010553E+02  0.24116547975E+02  0.36820930669E+02  0.00000000000E+00 0. -1.
         11    1    4    4    0    0 -0.11740800555E+02  0.58071986515E+01 -0.78149269106E+00  0.13121763789E+02  0.51100000000E-03 0. -1.
        -11    1    4    4    0    0  0.17642555511E+02  0.22170887424E+02 -0.26007237301E+02  0.38460166489E+02  0.51100000000E-03 0.  1.
        -12    1    4    4    0    0 -0.99618374395E-02 -0.78507552212E+00  0.26721820168E+01  0.27851390530E+01  0.00000000000E+00 0.  1.
</event>
<event>
 8    1  0.1212194E-006  0.9118800E+02  0.7816164E-02  0.1184000E+00
        -11   -1    0    0    0    0  0.00000000000E+00  0.00000000000E+00  0.45593999997E+02  0.45594000000E+02  0.51100000000E-03 0.  1.
         11   -1    0    0    0    0 -0.00000000000E+00 -0.00000000000E+00 -0.45593999997E+02  0.45594000000E+02  0.51100000000E-03 0. -1.
         23    2    1    2    0    0  0.35527136788E-14  0.00000000000E+00  0.35527136788E-14  0.91188000000E+02  0.91188000000E+02 0.  0.
    9900012    2    3    3    0    0  0.24918887040E+02 -0.15291676246E+02  0.22382881844E+02  0.54367086196E+02  0.40000004601E+02 0.  0.
        -12    1    3    3    0    0 -0.24918887040E+02  0.15291676246E+02 -0.22382881844E+02  0.36820913804E+02  0.00000000000E+00 0.  1.
         11    1    4    4    0    0  0.69111370868E+01  0.26927371569E+01 -0.67625025870E+00  0.74479503155E+01  0.51100000000E-03 0. -1.
        -11    1    4    4    0    0  0.12935492215E+02 -0.14832934166E+02  0.31160115631E+02  0.36855063441E+02  0.51100000000E-03 0.  1.
        -12    1    4    4    0    0  0.50722577380E+01 -0.31514792367E+01 -0.81009835282E+01  0.10064072439E+02  0.00000000000E+00 0.  1.
</event>
<event>
 8    1  0.1212194E-006  0.9118800E+02  0.7816164E-02  0.1184000E+00
        -11   -1    0    0    0    0  0.00000000000E+00  0.00000000000E+00  0.45593999997E+02  0.45594000000E+02  0.51100000000E-03 0. -1.
         11   -1    0    0    0    0 -0.00000000000E+00 -0.00000000000E+00 -0.45593999997E+02  0.45594000000E+02  0.51100000000E-03 0.  1.
         23    2    1    2    0    0  0.00000000000E+00  0.00000000000E+00 -0.35527136788E-14  0.91188000000E+02  0.91188000000E+02 0.  0.
    9900012    2    3    3    0    0 -0.10446038636E+02  0.24344966005E+02  0.25572983857E+02  0.54367155410E+02  0.40000162387E+02 0.  0.
        -12    1    3    3    0    0  0.10446038636E+02 -0.24344966005E+02 -0.25572983857E+02  0.36820844590E+02  0.00000000000E+00 0.  1.
         11    1    4    4    0    0 -0.11351455903E+02  0.22235915370E+02  0.15023916371E+02  0.29137768391E+02  0.51100000000E-03 0. -1.
        -11    1    4    4    0    0  0.10112008042E+02  0.63391028964E+01  0.90701660816E+01  0.14990158278E+02  0.51100000000E-03 0.  1.
         12    1    4    4    0    0 -0.92065907761E+01 -0.42300522604E+01  0.14789014044E+01  0.10239228741E+02  0.00000000000E+00 0. -1.
</event>
<event>
 8    1  0.1212194E-006  0.9118800E+02  0.7816164E-02  0.1184000E+00
        -11   -1    0    0    0    0  0.00000000000E+00  0.00000000000E+00  0.45593999997E+02  0.45594000000E+02  0.51100000000E-03 0.  1.
         11   -1    0    0    0    0 -0.00000000000E+00 -0.00000000000E+00 -0.45593999997E+02  0.45594000000E+02  0.51100000000E-03 0. -1.
         23    2    1    2    0    0  0.00000000000E+00  0.88817841970E-15 -0.35527136788E-14  0.91188000000E+02  0.91188000000E+02 0.  0.
    9900012    2    3    3    0    0 -0.30973904131E+02  0.73203971978E+01  0.18515091056E+02  0.54367088156E+02  0.40000009069E+02 0.  0.
         12    1    3    3    0    0  0.30973904131E+02 -0.73203971978E+01 -0.18515091056E+02  0.36820911844E+02  0.00000000000E+00 0. -1.
         11    1    4    4    0    0 -0.42147637270E+00 -0.40908087844E+01  0.76499096862E+01  0.86852448043E+01  0.51100000000E-03 0. -1.
        -11    1    4    4    0    0 -0.15758300963E+02 -0.88920934054E+00  0.19079720460E+02  0.24761875445E+02  0.51100000000E-03 0.  1.
         12    1    4    4    0    0 -0.14794126795E+02  0.12300415323E+02 -0.82145390898E+01  0.20919967906E+02  0.00000000000E+00 0. -1.
</event>
<event>
 8    1  0.1212194E-006  0.9118800E+02  0.7816164E-02  0.1184000E+00
        -11   -1    0    0    0    0  0.00000000000E+00  0.00000000000E+00  0.45593999997E+02  0.45594000000E+02  0.51100000000E-03 0.  1.
         11   -1    0    0    0    0 -0.00000000000E+00 -0.00000000000E+00 -0.45593999997E+02  0.45594000000E+02  0.51100000000E-03 0. -1.
         23    2    1    2    0    0  0.00000000000E+00  0.35527136788E-14  0.35527136788E-14  0.91188000000E+02  0.91188000000E+02 0.  0.
    9900012    2    3    3    0    0 -0.15504060190E+02 -0.22309187923E+02 -0.24853657932E+02  0.54367081207E+02  0.39999993228E+02 0.  0.
         12    1    3    3    0    0  0.15504060190E+02  0.22309187923E+02  0.24853657932E+02  0.36820918793E+02  0.00000000000E+00 0. -1.
         11    1    4    4    0    0  0.17010730562E-01  0.13518742913E+01  0.92766153600E+01  0.93746171262E+01  0.51100000000E-03 0. -1.
        -11    1    4    4    0    0 -0.62089543623E+01 -0.16281869359E+02 -0.19734021079E+02  0.26326450051E+02  0.51100000000E-03 0.  1.
         12    1    4    4    0    0 -0.93121165581E+01 -0.73791928550E+01 -0.14396252213E+02  0.18666014030E+02  0.00000000000E+00 0. -1.
</event>
<event>
 8    1  0.1212194E-006  0.9118800E+02  0.7816164E-02  0.1184000E+00
        -11   -1    0    0    0    0  0.00000000000E+00  0.00000000000E+00  0.45593999997E+02  0.45594000000E+02  0.51100000000E-03 0.  1.
         11   -1    0    0    0    0 -0.00000000000E+00 -0.00000000000E+00 -0.45593999997E+02  0.45594000000E+02  0.51100000000E-03 0. -1.
         23    2    1    2    0    0 -0.35527136788E-14  0.00000000000E+00  0.17763568394E-14  0.91188000000E+02  0.91188000000E+02 0.  0.
    9900012    2    3    3    0    0 -0.28327273076E+02 -0.23309808421E+02 -0.31620691301E+01  0.54367078641E+02  0.39999987378E+02 0.  0.
         12    1    3    3    0    0  0.28327273076E+02  0.23309808421E+02  0.31620691301E+01  0.36820921359E+02  0.00000000000E+00 0. -1.
         11    1    4    4    0    0 -0.41002044634E+01 -0.59290233297E+01  0.91752840268E+01  0.11668368846E+02  0.51100000000E-03 0. -1.
        -11    1    4    4    0    0  0.24529598792E+01 -0.66835030094E+01  0.53878457102E+01  0.89283316640E+01  0.51100000000E-03 0.  1.
         12    1    4    4    0    0 -0.26680028492E+02 -0.10697282081E+02 -0.17725198867E+02  0.33770378131E+02  0.00000000000E+00 0. -1.
</event>
<event>
 8    1  0.1212194E-006  0.9118800E+02  0.7816164E-02  0.1184000E+00
        -11   -1    0    0    0    0  0.00000000000E+00  0.00000000000E+00  0.45593999997E+02  0.45594000000E+02  0.51100000000E-03 0. -1.
         11   -1    0    0    0    0 -0.00000000000E+00 -0.00000000000E+00 -0.45593999997E+02  0.45594000000E+02  0.51100000000E-03 0.  1.
         23    2    1    2    0    0 -0.17763568394E-14  0.00000000000E+00  0.00000000000E+00  0.91188000000E+02  0.91188000000E+02 0.  0.
    9900012    2    3    3    0    0  0.97995080254E+01 -0.20690297889E+02  0.28838541024E+02  0.54367078872E+02  0.39999987906E+02 0.  0.
        -12    1    3    3    0    0 -0.97995080254E+01  0.20690297889E+02 -0.28838541024E+02  0.36820921128E+02  0.00000000000E+00 0.  1.
         11    1    4    4    0    0 -0.74841957162E+01 -0.86670015113E+01  0.27617046072E+01  0.11779520929E+02  0.51100000000E-03 0. -1.
        -11    1    4    4    0    0 -0.25077849305E+01  0.57457081927E+01  0.16679796395E+01  0.64872416505E+01  0.51100000000E-03 0.  1.
        -12    1    4    4    0    0  0.19791488672E+02 -0.17769004570E+02  0.24408856778E+02  0.36100316293E+02  0.00000000000E+00 0.  1.
</event>
<event>
 8    1  0.1212194E-006  0.9118800E+02  0.7816164E-02  0.1184000E+00
        -11   -1    0    0    0    0  0.00000000000E+00  0.00000000000E+00  0.45593999997E+02  0.45594000000E+02  0.51100000000E-03 0.  1.
         11   -1    0    0    0    0 -0.00000000000E+00 -0.00000000000E+00 -0.45593999997E+02  0.45594000000E+02  0.51100000000E-03 0. -1.
         23    2    1    2    0    0  0.00000000000E+00  0.00000000000E+00  0.00000000000E+00  0.91188000000E+02  0.91188000000E+02 0.  0.
    9900012    2    3    3    0    0  0.33474784473E+02 -0.72728855476E+01  0.13502745368E+02  0.54367079422E+02  0.39999989159E+02 0.  0.
         12    1    3    3    0    0 -0.33474784473E+02  0.72728855476E+01 -0.13502745368E+02  0.36820920578E+02  0.00000000000E+00 0. -1.
         11    1    4    4    0    0  0.15270790035E+02  0.30269958558E+01  0.21506686114E+02  0.26549901696E+02  0.51100000000E-03 0.  1.
        -11    1    4    4    0    0  0.87591588645E+01 -0.13779973189E+02 -0.67706626440E+01  0.17676323091E+02  0.51100000000E-03 0. -1.
        -12    1    4    4    0    0  0.94448355742E+01  0.34800917858E+01 -0.12332781025E+01  0.10140854636E+02  0.00000000000E+00 0.  1.
</event>
<event>
 8    1  0.1212194E-006  0.9118800E+02  0.7816164E-02  0.1184000E+00
        -11   -1    0    0    0    0  0.00000000000E+00  0.00000000000E+00  0.45593999997E+02  0.45594000000E+02  0.51100000000E-03 0.  1.
         11   -1    0    0    0    0 -0.00000000000E+00 -0.00000000000E+00 -0.45593999997E+02  0.45594000000E+02  0.51100000000E-03 0. -1.
         23    2    1    2    0    0  0.00000000000E+00 -0.71054273576E-14 -0.17763568394E-14  0.91188000000E+02  0.91188000000E+02 0.  0.
    9900012    2    3    3    0    0 -0.71993679663E+01 -0.35857203402E+02 -0.42673097324E+01  0.54367083834E+02  0.39999999216E+02 0.  0.
        -12    1    3    3    0    0  0.71993679663E+01  0.35857203402E+02  0.42673097324E+01  0.36820916166E+02  0.00000000000E+00 0.  1.
         11    1    4    4    0    0  0.10166674579E+01 -0.49566687618E+01  0.53684814760E+01  0.73771791054E+01  0.51100000000E-03 0. -1.
        -11    1    4    4    0    0 -0.11945184920E+01  0.67084163729E+01 -0.49993019425E+01  0.84511978343E+01  0.51100000000E-03 0.  1.
         12    1    4    4    0    0 -0.70215169322E+01 -0.37608951014E+02 -0.46364892658E+01  0.38538706894E+02  0.00000000000E+00 0. -1.
</event>
<event>
 8    1  0.1212194E-006  0.9118800E+02  0.7816164E-02  0.1184000E+00
        -11   -1    0    0    0    0  0.00000000000E+00  0.00000000000E+00  0.45593999997E+02  0.45594000000E+02  0.51100000000E-03 0. -1.
         11   -1    0    0    0    0 -0.00000000000E+00 -0.00000000000E+00 -0.45593999997E+02  0.45594000000E+02  0.51100000000E-03 0.  1.
         23    2    1    2    0    0  0.00000000000E+00 -0.17763568394E-14  0.00000000000E+00  0.91188000000E+02  0.91188000000E+02 0.  0.
    9900012    2    3    3    0    0  0.21249997740E+02 -0.13968858863E+02 -0.26628824631E+02  0.54367004317E+02  0.39999817940E+02 0.  0.
         12    1    3    3    0    0 -0.21249997740E+02  0.13968858863E+02  0.26628824631E+02  0.36820995683E+02  0.00000000000E+00 0. -1.
         11    1    4    4    0    0  0.12131420350E+02 -0.80436128533E+01 -0.29988248100E+02  0.33334158033E+02  0.51100000000E-03 0. -1.
        -11    1    4    4    0    0 -0.19023345175E+00  0.57876885350E+01  0.12382053537E+01  0.59217125989E+01  0.51100000000E-03 0.  1.
         12    1    4    4    0    0  0.93088108419E+01 -0.11712934545E+02  0.21212181153E+01  0.15111133685E+02  0.00000000000E+00 0. -1.
</event>
<event>
 8    1  0.1212194E-006  0.9118800E+02  0.7816164E-02  0.1184000E+00
        -11   -1    0    0    0    0  0.00000000000E+00  0.00000000000E+00  0.45593999997E+02  0.45594000000E+02  0.51100000000E-03 0. -1.
         11   -1    0    0    0    0 -0.00000000000E+00 -0.00000000000E+00 -0.45593999997E+02  0.45594000000E+02  0.51100000000E-03 0.  1.
         23    2    1    2    0    0  0.35527136788E-14  0.00000000000E+00  0.00000000000E+00  0.91188000000E+02  0.91188000000E+02 0.  0.
    9900012    2    3    3    0    0  0.18257067882E+02 -0.13991688881E+02  0.28752252984E+02  0.54367082887E+02  0.39999997058E+02 0.  0.
        -12    1    3    3    0    0 -0.18257067882E+02  0.13991688881E+02 -0.28752252984E+02  0.36820917113E+02  0.00000000000E+00 0.  1.
         11    1    4    4    0    0  0.73101371498E+01  0.11808312527E+02  0.95913695157E+01  0.16878054371E+02  0.51100000000E-03 0. -1.
        -11    1    4    4    0    0  0.32234290106E+01 -0.18546190552E+02  0.44218034091E+01  0.19336598053E+02  0.51100000000E-03 0.  1.
        -12    1    4    4    0    0  0.77235017213E+01 -0.72538108555E+01  0.14739080059E+02  0.18152430464E+02  0.00000000000E+00 0.  1.
</event>
<event>
 8    1  0.1212194E-006  0.9118800E+02  0.7816164E-02  0.1184000E+00
        -11   -1    0    0    0    0  0.00000000000E+00  0.00000000000E+00  0.45593999997E+02  0.45594000000E+02  0.51100000000E-03 0.  1.
         11   -1    0    0    0    0 -0.00000000000E+00 -0.00000000000E+00 -0.45593999997E+02  0.45594000000E+02  0.51100000000E-03 0. -1.
         23    2    1    2    0    0  0.00000000000E+00  0.35527136788E-14 -0.35527136788E-14  0.91188000000E+02  0.91188000000E+02 0.  0.
    9900012    2    3    3    0    0  0.17326847178E+02  0.31623024622E+02  0.74527839441E+01  0.54367091430E+02  0.40000016533E+02 0.  0.
        -12    1    3    3    0    0 -0.17326847178E+02 -0.31623024622E+02 -0.74527839441E+01  0.36820908570E+02  0.00000000000E+00 0.  1.
         11    1    4    4    0    0  0.65889947843E+01  0.52164243085E+01 -0.13074128015E+02  0.15542160675E+02  0.51100000000E-03 0. -1.
        -11    1    4    4    0    0  0.10795311392E+01  0.10624313267E+02  0.16866953189E+02  0.19963354678E+02  0.51100000000E-03 0.  1.
         12    1    4    4    0    0  0.96583212548E+01  0.15782287047E+02  0.36599587710E+01  0.18861576077E+02  0.00000000000E+00 0. -1.
</event>
<event>
 8    1  0.1212194E-006  0.9118800E+02  0.7816164E-02  0.1184000E+00
        -11   -1    0    0    0    0  0.00000000000E+00  0.00000000000E+00  0.45593999997E+02  0.45594000000E+02  0.51100000000E-03 0. -1.
         11   -1    0    0    0    0 -0.00000000000E+00 -0.00000000000E+00 -0.45593999997E+02  0.45594000000E+02  0.51100000000E-03 0.  1.
         23    2    1    2    0    0 -0.17763568394E-14  0.00000000000E+00  0.00000000000E+00  0.91188000000E+02  0.91188000000E+02 0.  0.
    9900012    2    3    3    0    0 -0.12976100629E+02 -0.14009226317E+02  0.31482399222E+02  0.54367094657E+02  0.40000023889E+02 0.  0.
        -12    1    3    3    0    0  0.12976100629E+02  0.14009226317E+02 -0.31482399222E+02  0.36820905343E+02  0.00000000000E+00 0.  1.
         11    1    4    4    0    0  0.56329900928E+00 -0.10487979186E+02  0.13231091907E+02  0.16893099375E+02  0.51100000000E-03 0. -1.
        -11    1    4    4    0    0 -0.37078645059E+01  0.12970957712E+02  0.84267933314E+01  0.15906126156E+02  0.51100000000E-03 0.  1.
         12    1    4    4    0    0 -0.98315351322E+01 -0.16492204844E+02  0.98245139831E+01  0.21567869127E+02  0.00000000000E+00 0. -1.
</event>
<event>
 8    1  0.1212194E-006  0.9118800E+02  0.7816164E-02  0.1184000E+00
        -11   -1    0    0    0    0  0.00000000000E+00  0.00000000000E+00  0.45593999997E+02  0.45594000000E+02  0.51100000000E-03 0.  1.
         11   -1    0    0    0    0 -0.00000000000E+00 -0.00000000000E+00 -0.45593999997E+02  0.45594000000E+02  0.51100000000E-03 0. -1.
         23    2    1    2    0    0  0.35527136788E-14  0.00000000000E+00  0.00000000000E+00  0.91188000000E+02  0.91188000000E+02 0.  0.
    9900012    2    3    3    0    0 -0.22836550727E+02  0.21138511384E+02  0.19683367001E+02  0.54367086797E+02  0.40000005970E+02 0.  0.
         12    1    3    3    0    0  0.22836550727E+02 -0.21138511384E+02 -0.19683367001E+02  0.36820913203E+02  0.00000000000E+00 0. -1.
         11    1    4    4    0    0  0.75547396503E+00  0.38858186877E+01  0.11841413679E+01  0.41318904663E+01  0.51100000000E-03 0. -1.
        -11    1    4    4    0    0 -0.45898450286E+01  0.21076084477E+02 -0.24331470944E+01  0.21706870325E+02  0.51100000000E-03 0.  1.
        -12    1    4    4    0    0 -0.19002179663E+02 -0.38233917803E+01  0.20932372727E+02  0.28528326005E+02  0.00000000000E+00 0.  1.
</event>
<event>
 8    1  0.1212194E-006  0.9118800E+02  0.7816164E-02  0.1184000E+00
        -11   -1    0    0    0    0  0.00000000000E+00  0.00000000000E+00  0.45593999997E+02  0.45594000000E+02  0.51100000000E-03 0. -1.
         11   -1    0    0    0    0 -0.00000000000E+00 -0.00000000000E+00 -0.45593999997E+02  0.45594000000E+02  0.51100000000E-03 0.  1.
         23    2    1    2    0    0  0.00000000000E+00 -0.23314683517E-14  0.00000000000E+00  0.91188000000E+02  0.91188000000E+02 0.  0.
    9900012    2    3    3    0    0  0.36715462302E+02  0.33953925638E+00 -0.27637690020E+01  0.54367097267E+02  0.40000029841E+02 0.  0.
        -12    1    3    3    0    0 -0.36715462302E+02 -0.33953925638E+00  0.27637690020E+01  0.36820902733E+02  0.00000000000E+00 0.  1.
         11    1    4    4    0    0  0.20411269582E+02  0.16721470640E+02 -0.34402123658E+01  0.26609445085E+02  0.51100000000E-03 0. -1.
        -11    1    4    4    0    0  0.59549892053E+00 -0.85968493508E+01 -0.41625416069E+01  0.95701196761E+01  0.51100000000E-03 0.  1.
         12    1    4    4    0    0  0.15708693799E+02 -0.77850820331E+01  0.48389849706E+01  0.18187532507E+02  0.00000000000E+00 0. -1.
</event>
<event>
 8    1  0.1212194E-006  0.9118800E+02  0.7816164E-02  0.1184000E+00
        -11   -1    0    0    0    0  0.00000000000E+00  0.00000000000E+00  0.45593999997E+02  0.45594000000E+02  0.51100000000E-03 0.  1.
         11   -1    0    0    0    0 -0.00000000000E+00 -0.00000000000E+00 -0.45593999997E+02  0.45594000000E+02  0.51100000000E-03 0. -1.
         23    2    1    2    0    0  0.00000000000E+00  0.35527136788E-14  0.00000000000E+00  0.91188000000E+02  0.91188000000E+02 0.  0.
    9900012    2    3    3    0    0 -0.17620368714E+02  0.31498101119E+02 -0.72918166320E+01  0.54367104336E+02  0.40000045954E+02 0.  0.
        -12    1    3    3    0    0  0.17620368714E+02 -0.31498101119E+02  0.72918166320E+01  0.36820895664E+02  0.00000000000E+00 0.  1.
         11    1    4    4    0    0  0.28136644555E+01  0.17472007007E+01 -0.29824054875E+01  0.44569227848E+01  0.51100000000E-03 0. -1.
        -11    1    4    4    0    0  0.75668702466E+01  0.93798951583E+01 -0.88980282320E+01  0.14980482809E+02  0.51100000000E-03 0.  1.
         12    1    4    4    0    0 -0.28000903416E+02  0.20371005260E+02  0.45886170875E+01  0.34929698742E+02  0.00000000000E+00 0. -1.
</event>
<event>
 8    1  0.1212194E-006  0.9118800E+02  0.7816164E-02  0.1184000E+00
        -11   -1    0    0    0    0  0.00000000000E+00  0.00000000000E+00  0.45593999997E+02  0.45594000000E+02  0.51100000000E-03 0. -1.
         11   -1    0    0    0    0 -0.00000000000E+00 -0.00000000000E+00 -0.45593999997E+02  0.45594000000E+02  0.51100000000E-03 0.  1.
         23    2    1    2    0    0  0.00000000000E+00  0.88817841970E-15 -0.35527136788E-14  0.91188000000E+02  0.91188000000E+02 0.  0.
    9900012    2    3    3    0    0  0.22124580897E+02 -0.58056505957E+01  0.28854420984E+02  0.54367078379E+02  0.39999986781E+02 0.  0.
        -12    1    3    3    0    0 -0.22124580897E+02  0.58056505957E+01 -0.28854420984E+02  0.36820921621E+02  0.00000000000E+00 0.  1.
         11    1    4    4    0    0 -0.48866985859E+01  0.49659236115E+01  0.14793105274E+02  0.16351641639E+02  0.51100000000E-03 0. -1.
        -11    1    4    4    0    0  0.30159245270E+02 -0.90505508717E+01  0.13912750707E+02  0.34424659459E+02  0.51100000000E-03 0.  1.
        -12    1    4    4    0    0 -0.31479657878E+01 -0.17210233355E+01  0.14856500334E+00  0.35907772811E+01  0.00000000000E+00 0.  1.
</event>
<event>
 8    1  0.1212194E-006  0.9118800E+02  0.7816164E-02  0.1184000E+00
        -11   -1    0    0    0    0  0.00000000000E+00  0.00000000000E+00  0.45593999997E+02  0.45594000000E+02  0.51100000000E-03 0. -1.
         11   -1    0    0    0    0 -0.00000000000E+00 -0.00000000000E+00 -0.45593999997E+02  0.45594000000E+02  0.51100000000E-03 0.  1.
         23    2    1    2    0    0  0.88817841970E-15  0.00000000000E+00 -0.17763568394E-14  0.91188000000E+02  0.91188000000E+02 0.  0.
    9900012    2    3    3    0    0 -0.70190472687E+01 -0.34398221577E+02  0.11102993807E+02  0.54367066502E+02  0.39999959704E+02 0.  0.
        -12    1    3    3    0    0  0.70190472687E+01  0.34398221577E+02 -0.11102993807E+02  0.36820933498E+02  0.00000000000E+00 0.  1.
         11    1    4    4    0    0 -0.24402437207E+00 -0.24967079099E+01 -0.69423379137E+01  0.73816769267E+01  0.51100000000E-03 0.  1.
        -11    1    4    4    0    0  0.31288470962E+01 -0.32619091952E+02  0.10166906725E+02  0.34309777565E+02  0.51100000000E-03 0. -1.
         12    1    4    4    0    0 -0.99038699928E+01  0.71757828521E+00  0.78784249955E+01  0.12675612010E+02  0.00000000000E+00 0. -1.
</event>
<event>
 8    1  0.1212194E-006  0.9118800E+02  0.7816164E-02  0.1184000E+00
        -11   -1    0    0    0    0  0.00000000000E+00  0.00000000000E+00  0.45593999997E+02  0.45594000000E+02  0.51100000000E-03 0.  1.
         11   -1    0    0    0    0 -0.00000000000E+00 -0.00000000000E+00 -0.45593999997E+02  0.45594000000E+02  0.51100000000E-03 0. -1.
         23    2    1    2    0    0  0.00000000000E+00  0.17763568394E-14  0.00000000000E+00  0.91188000000E+02  0.91188000000E+02 0.  0.
    9900012    2    3    3    0    0 -0.33957091856E+02 -0.11113918107E+02  0.88981247940E+01  0.54367083555E+02  0.39999998581E+02 0.  0.
        -12    1    3    3    0    0  0.33957091856E+02  0.11113918107E+02 -0.88981247940E+01  0.36820916445E+02  0.00000000000E+00 0.  1.
         11    1    4    4    0    0 -0.28965225881E+01 -0.94549086177E+01 -0.27780292802E+01  0.10271445225E+02  0.51100000000E-03 0. -1.
        -11    1    4    4    0    0 -0.22903021998E+02  0.12501704030E+02  0.85416329452E+01  0.27455427768E+02  0.51100000000E-03 0.  1.
        -12    1    4    4    0    0 -0.81575472694E+01 -0.14160713519E+02  0.31345211290E+01  0.16640210562E+02  0.00000000000E+00 0.  1.
</event>
<event>
 8    1  0.1212194E-006  0.9118800E+02  0.7816164E-02  0.1184000E+00
        -11   -1    0    0    0    0  0.00000000000E+00  0.00000000000E+00  0.45593999997E+02  0.45594000000E+02  0.51100000000E-03 0. -1.
         11   -1    0    0    0    0 -0.00000000000E+00 -0.00000000000E+00 -0.45593999997E+02  0.45594000000E+02  0.51100000000E-03 0.  1.
         23    2    1    2    0    0 -0.35527136788E-14  0.17763568394E-14  0.00000000000E+00  0.91188000000E+02  0.91188000000E+02 0.  0.
    9900012    2    3    3    0    0 -0.23740595879E+02  0.12304518505E+02  0.25313304700E+02  0.54367075742E+02  0.39999980770E+02 0.  0.
        -12    1    3    3    0    0  0.23740595879E+02 -0.12304518505E+02 -0.25313304700E+02  0.36820924258E+02  0.00000000000E+00 0.  1.
         11    1    4    4    0    0  0.97748067777E+01  0.33588647877E+01  0.45794975973E+01  0.11304893574E+02  0.51100000000E-03 0. -1.
        -11    1    4    4    0    0  0.88267122612E+00 -0.15708505642E+00  0.33361835901E+01  0.34545485113E+01  0.51100000000E-03 0.  1.
         12    1    4    4    0    0 -0.34398073883E+02  0.91027387742E+01  0.17397623513E+02  0.39607633658E+02  0.00000000000E+00 0. -1.
</event>
<event>
 8    1  0.1212194E-006  0.9118800E+02  0.7816164E-02  0.1184000E+00
        -11   -1    0    0    0    0  0.00000000000E+00  0.00000000000E+00  0.45593999997E+02  0.45594000000E+02  0.51100000000E-03 0.  1.
         11   -1    0    0    0    0 -0.00000000000E+00 -0.00000000000E+00 -0.45593999997E+02  0.45594000000E+02  0.51100000000E-03 0. -1.
         23    2    1    2    0    0 -0.71054273576E-14  0.17763568394E-14  0.00000000000E+00  0.91188000000E+02  0.91188000000E+02 0.  0.
    9900012    2    3    3    0    0  0.35120945664E+02 -0.10587787869E+02 -0.31934688631E+01  0.54367077691E+02  0.39999985212E+02 0.  0.
        -12    1    3    3    0    0 -0.35120945664E+02  0.10587787869E+02  0.31934688631E+01  0.36820922309E+02  0.00000000000E+00 0.  1.
         11    1    4    4    0    0  0.80050567022E+01 -0.10184795266E+02  0.52729302345E+01  0.13986235410E+02  0.51100000000E-03 0. -1.
        -11    1    4    4    0    0  0.27694653663E+02  0.66237037766E+01  0.11000498985E+01  0.28496971826E+02  0.51100000000E-03 0.  1.
        -12    1    4    4    0    0 -0.57876470109E+00 -0.70266963793E+01 -0.95664489961E+01  0.11883870455E+02  0.00000000000E+00 0.  1.
</event>
<event>
 8    1  0.1212194E-006  0.9118800E+02  0.7816164E-02  0.1184000E+00
        -11   -1    0    0    0    0  0.00000000000E+00  0.00000000000E+00  0.45593999997E+02  0.45594000000E+02  0.51100000000E-03 0.  1.
         11   -1    0    0    0    0 -0.00000000000E+00 -0.00000000000E+00 -0.45593999997E+02  0.45594000000E+02  0.51100000000E-03 0. -1.
         23    2    1    2    0    0  0.71054273576E-14 -0.88817841970E-15  0.00000000000E+00  0.91188000000E+02  0.91188000000E+02 0.  0.
    9900012    2    3    3    0    0  0.36381693842E+02  0.35164552740E+01  0.44482748472E+01  0.54367078588E+02  0.39999987256E+02 0.  0.
        -12    1    3    3    0    0 -0.36381693842E+02 -0.35164552740E+01 -0.44482748472E+01  0.36820921412E+02  0.00000000000E+00 0.  1.
         11    1    4    4    0    0  0.68990613119E+01 -0.59116532384E+01 -0.66906908253E+01  0.11283174862E+02  0.51100000000E-03 0. -1.
        -11    1    4    4    0    0  0.31923051263E+01  0.10940415144E+02  0.12243672516E+02  0.16726954668E+02  0.51100000000E-03 0.  1.
        -12    1    4    4    0    0  0.26290327404E+02 -0.15123066318E+01 -0.11047068433E+01  0.26356949057E+02  0.00000000000E+00 0.  1.
</event>
<event>
 8    1  0.1212194E-006  0.9118800E+02  0.7816164E-02  0.1184000E+00
        -11   -1    0    0    0    0  0.00000000000E+00  0.00000000000E+00  0.45593999997E+02  0.45594000000E+02  0.51100000000E-03 0. -1.
         11   -1    0    0    0    0 -0.00000000000E+00 -0.00000000000E+00 -0.45593999997E+02  0.45594000000E+02  0.51100000000E-03 0.  1.
         23    2    1    2    0    0 -0.88817841970E-15  0.00000000000E+00 -0.35527136788E-14  0.91188000000E+02  0.91188000000E+02 0.  0.
    9900012    2    3    3    0    0 -0.43214455679E+01  0.32869410100E+02 -0.16022065822E+02  0.54367087392E+02  0.40000007327E+02 0.  0.
         12    1    3    3    0    0  0.43214455679E+01 -0.32869410100E+02  0.16022065822E+02  0.36820912608E+02  0.00000000000E+00 0. -1.
         11    1    4    4    0    0 -0.85576379407E+01  0.96560192182E+01  0.15039443399E+01  0.12989754544E+02  0.51100000000E-03 0. -1.
        -11    1    4    4    0    0 -0.40093259319E+01 -0.55772506780E+01 -0.65210306353E+01  0.94712333073E+01  0.51100000000E-03 0.  1.
         12    1    4    4    0    0  0.82455183047E+01  0.28790641560E+02 -0.11004979526E+02  0.31906099541E+02  0.00000000000E+00 0. -1.
</event>
<event>
 8    1  0.1212194E-006  0.9118800E+02  0.7816164E-02  0.1184000E+00
        -11   -1    0    0    0    0  0.00000000000E+00  0.00000000000E+00  0.45593999997E+02  0.45594000000E+02  0.51100000000E-03 0.  1.
         11   -1    0    0    0    0 -0.00000000000E+00 -0.00000000000E+00 -0.45593999997E+02  0.45594000000E+02  0.51100000000E-03 0. -1.
         23    2    1    2    0    0 -0.11102230246E-15  0.00000000000E+00  0.00000000000E+00  0.91188000000E+02  0.91188000000E+02 0.  0.
    9900012    2    3    3    0    0 -0.59879127539E+00  0.30236172389E+02 -0.21004652335E+02  0.54367080791E+02  0.39999992279E+02 0.  0.
        -12    1    3    3    0    0  0.59879127539E+00 -0.30236172389E+02  0.21004652335E+02  0.36820919209E+02  0.00000000000E+00 0.  1.
         11    1    4    4    0    0  0.77490996474E+01  0.12172421201E+02 -0.61802006578E+01  0.15697492273E+02  0.51100000000E-03 0. -1.
        -11    1    4    4    0    0  0.85082263274E+01  0.67906676072E+01  0.34008007606E+01  0.11404759001E+02  0.51100000000E-03 0.  1.
        -12    1    4    4    0    0 -0.16856117250E+02  0.11273083581E+02 -0.18225252437E+02  0.27264829517E+02  0.00000000000E+00 0.  1.
</event>
<event>
 8    1  0.1212194E-006  0.9118800E+02  0.7816164E-02  0.1184000E+00
        -11   -1    0    0    0    0  0.00000000000E+00  0.00000000000E+00  0.45593999997E+02  0.45594000000E+02  0.51100000000E-03 0. -1.
         11   -1    0    0    0    0 -0.00000000000E+00 -0.00000000000E+00 -0.45593999997E+02  0.45594000000E+02  0.51100000000E-03 0.  1.
         23    2    1    2    0    0  0.00000000000E+00  0.00000000000E+00  0.88817841970E-15  0.91188000000E+02  0.91188000000E+02 0.  0.
    9900012    2    3    3    0    0 -0.10166517023E+02  0.35066294598E+02 -0.47725409572E+01  0.54367078876E+02  0.39999987914E+02 0.  0.
        -12    1    3    3    0    0  0.10166517023E+02 -0.35066294598E+02  0.47725409572E+01  0.36820921124E+02  0.00000000000E+00 0.  1.
         11    1    4    4    0    0 -0.40425487344E+01  0.18461049881E+02  0.32767183244E+01  0.19180444370E+02  0.51100000000E-03 0. -1.
        -11    1    4    4    0    0 -0.42306164650E+01 -0.61427114670E+01 -0.97741778138E+01  0.12294940912E+02  0.51100000000E-03 0.  1.
        -12    1    4    4    0    0 -0.18933518238E+01  0.22747956184E+02  0.17249185322E+01  0.22891693594E+02  0.00000000000E+00 0.  1.
</event>
<event>
 8    1  0.1212194E-006  0.9118800E+02  0.7816164E-02  0.1184000E+00
        -11   -1    0    0    0    0  0.00000000000E+00  0.00000000000E+00  0.45593999997E+02  0.45594000000E+02  0.51100000000E-03 0. -1.
         11   -1    0    0    0    0 -0.00000000000E+00 -0.00000000000E+00 -0.45593999997E+02  0.45594000000E+02  0.51100000000E-03 0.  1.
         23    2    1    2    0    0 -0.88817841970E-15  0.00000000000E+00 -0.71054273576E-14  0.91188000000E+02  0.91188000000E+02 0.  0.
    9900012    2    3    3    0    0 -0.61280672070E+01 -0.18909342698E+02 -0.30994564365E+02  0.54367089241E+02  0.40000011542E+02 0.  0.
         12    1    3    3    0    0  0.61280672070E+01  0.18909342698E+02  0.30994564365E+02  0.36820910759E+02  0.00000000000E+00 0. -1.
         11    1    4    4    0    0 -0.12968677376E+02 -0.12478160101E+02 -0.15064223029E+02  0.23469594971E+02  0.51100000000E-03 0. -1.
        -11    1    4    4    0    0  0.12198423423E+01  0.29444882961E-02  0.66468658474E+01  0.67578731761E+01  0.51100000000E-03 0.  1.
        -12    1    4    4    0    0  0.56207678268E+01 -0.64341270858E+01 -0.22577207184E+02  0.24139621094E+02  0.00000000000E+00 0.  1.
</event>
<event>
 8    1  0.1212194E-006  0.9118800E+02  0.7816164E-02  0.1184000E+00
        -11   -1    0    0    0    0  0.00000000000E+00  0.00000000000E+00  0.45593999997E+02  0.45594000000E+02  0.51100000000E-03 0.  1.
         11   -1    0    0    0    0 -0.00000000000E+00 -0.00000000000E+00 -0.45593999997E+02  0.45594000000E+02  0.51100000000E-03 0. -1.
         23    2    1    2    0    0  0.00000000000E+00  0.00000000000E+00  0.00000000000E+00  0.91188000000E+02  0.91188000000E+02 0.  0.
    9900012    2    3    3    0    0  0.30554966065E+02 -0.18176021762E+02  0.95815694041E+01  0.54367079444E+02  0.39999989209E+02 0.  0.
        -12    1    3    3    0    0 -0.30554966065E+02  0.18176021762E+02 -0.95815694041E+01  0.36820920556E+02  0.00000000000E+00 0.  1.
         11    1    4    4    0    0  0.35160792524E+02 -0.18829779167E+02  0.12718239615E+02  0.41864012392E+02  0.51100000000E-03 0. -1.
        -11    1    4    4    0    0 -0.13655307743E+01  0.29452828190E+01  0.34977748025E+01  0.47721896452E+01  0.51100000000E-03 0.  1.
         12    1    4    4    0    0 -0.32402956843E+01 -0.22915254134E+01 -0.66344450137E+01  0.77308774070E+01  0.00000000000E+00 0. -1.
</event>
<event>
 8    1  0.1212194E-006  0.9118800E+02  0.7816164E-02  0.1184000E+00
        -11   -1    0    0    0    0  0.00000000000E+00  0.00000000000E+00  0.45593999997E+02  0.45594000000E+02  0.51100000000E-03 0. -1.
         11   -1    0    0    0    0 -0.00000000000E+00 -0.00000000000E+00 -0.45593999997E+02  0.45594000000E+02  0.51100000000E-03 0.  1.
         23    2    1    2    0    0 -0.17763568394E-14  0.00000000000E+00 -0.35527136788E-14  0.91188000000E+02  0.91188000000E+02 0.  0.
    9900012    2    3    3    0    0 -0.15161958677E+02  0.21195116297E+02  0.26012771486E+02  0.54367051803E+02  0.39999926195E+02 0.  0.
        -12    1    3    3    0    0  0.15161958677E+02 -0.21195116297E+02 -0.26012771486E+02  0.36820948197E+02  0.00000000000E+00 0.  1.
         11    1    4    4    0    0 -0.45929482476E+01 -0.56807994239E+01  0.24056690897E+02  0.25141420661E+02  0.51100000000E-03 0. -1.
        -11    1    4    4    0    0 -0.76146386719E+01  0.23121305837E+02  0.10689679722E+01  0.24366374341E+02  0.51100000000E-03 0.  1.
        -12    1    4    4    0    0 -0.29543717578E+01  0.37546098835E+01  0.88711261645E+00  0.48592568007E+01  0.00000000000E+00 0.  1.
</event>
<event>
 8    1  0.1212194E-006  0.9118800E+02  0.7816164E-02  0.1184000E+00
        -11   -1    0    0    0    0  0.00000000000E+00  0.00000000000E+00  0.45593999997E+02  0.45594000000E+02  0.51100000000E-03 0. -1.
         11   -1    0    0    0    0 -0.00000000000E+00 -0.00000000000E+00 -0.45593999997E+02  0.45594000000E+02  0.51100000000E-03 0.  1.
         23    2    1    2    0    0  0.00000000000E+00  0.35527136788E-14  0.00000000000E+00  0.91188000000E+02  0.91188000000E+02 0.  0.
    9900012    2    3    3    0    0 -0.24195056145E+02 -0.24686347676E+02 -0.12687093446E+02  0.54367097736E+02  0.40000030909E+02 0.  0.
        -12    1    3    3    0    0  0.24195056145E+02  0.24686347676E+02  0.12687093446E+02  0.36820902264E+02  0.00000000000E+00 0.  1.
         11    1    4    4    0    0 -0.26970436298E+02 -0.22595416519E+02 -0.97385867816E+00  0.35198092033E+02  0.51100000000E-03 0. -1.
        -11    1    4    4    0    0  0.43597714646E+01 -0.63068954150E+01 -0.12434011909E+02  0.14607846844E+02  0.51100000000E-03 0.  1.
         12    1    4    4    0    0 -0.15843913112E+01  0.42159642578E+01  0.72077714107E+00  0.45611588591E+01  0.00000000000E+00 0. -1.
</event>
<event>
 8    1  0.1212194E-006  0.9118800E+02  0.7816164E-02  0.1184000E+00
        -11   -1    0    0    0    0  0.00000000000E+00  0.00000000000E+00  0.45593999997E+02  0.45594000000E+02  0.51100000000E-03 0. -1.
         11   -1    0    0    0    0 -0.00000000000E+00 -0.00000000000E+00 -0.45593999997E+02  0.45594000000E+02  0.51100000000E-03 0.  1.
         23    2    1    2    0    0  0.35527136788E-14 -0.35527136788E-14  0.17763568394E-14  0.91188000000E+02  0.91188000000E+02 0.  0.
    9900012    2    3    3    0    0  0.25263718416E+02 -0.25097679812E+02  0.93611084329E+01  0.54367090841E+02  0.40000015191E+02 0.  0.
         12    1    3    3    0    0 -0.25263718416E+02  0.25097679812E+02 -0.93611084329E+01  0.36820909159E+02  0.00000000000E+00 0. -1.
         11    1    4    4    0    0  0.35751083379E+01  0.79161559131E+00  0.54843071658E+01  0.65943673102E+01  0.51100000000E-03 0. -1.
        -11    1    4    4    0    0  0.17475898591E+02  0.26954128603E+01  0.63154958554E+01  0.18776521781E+02  0.51100000000E-03 0.  1.
         12    1    4    4    0    0  0.42127114874E+01 -0.28584708264E+02 -0.24386945882E+01  0.28996201750E+02  0.00000000000E+00 0. -1.
</event>
<event>
 8    1  0.1212194E-006  0.9118800E+02  0.7816164E-02  0.1184000E+00
        -11   -1    0    0    0    0  0.00000000000E+00  0.00000000000E+00  0.45593999997E+02  0.45594000000E+02  0.51100000000E-03 0. -1.
         11   -1    0    0    0    0 -0.00000000000E+00 -0.00000000000E+00 -0.45593999997E+02  0.45594000000E+02  0.51100000000E-03 0.  1.
         23    2    1    2    0    0  0.00000000000E+00  0.17763568394E-14  0.00000000000E+00  0.91188000000E+02  0.91188000000E+02 0.  0.
    9900012    2    3    3    0    0 -0.13338030835E+02 -0.19640090800E+01 -0.34263952084E+02  0.54367098182E+02  0.40000031926E+02 0.  0.
         12    1    3    3    0    0  0.13338030835E+02  0.19640090800E+01  0.34263952084E+02  0.36820901818E+02  0.00000000000E+00 0. -1.
         11    1    4    4    0    0 -0.77331294034E+01  0.73947008611E+01 -0.14229733614E+02  0.17803601045E+02  0.51100000000E-03 0. -1.
        -11    1    4    4    0    0 -0.86233011969E+01  0.73334791088E+01 -0.15148911624E+02  0.18911128021E+02  0.51100000000E-03 0.  1.
        -12    1    4    4    0    0  0.30183997651E+01 -0.16692189050E+02 -0.48853068458E+01  0.17652369116E+02  0.00000000000E+00 0.  1.
</event>
<event>
 8    1  0.1212194E-006  0.9118800E+02  0.7816164E-02  0.1184000E+00
        -11   -1    0    0    0    0  0.00000000000E+00  0.00000000000E+00  0.45593999997E+02  0.45594000000E+02  0.51100000000E-03 0. -1.
         11   -1    0    0    0    0 -0.00000000000E+00 -0.00000000000E+00 -0.45593999997E+02  0.45594000000E+02  0.51100000000E-03 0.  1.
         23    2    1    2    0    0 -0.35527136788E-14 -0.44408920985E-15  0.00000000000E+00  0.91188000000E+02  0.91188000000E+02 0.  0.
    9900012    2    3    3    0    0  0.20204648648E+02 -0.37758340935E+01 -0.30549886881E+02  0.54367077435E+02  0.39999984628E+02 0.  0.
         12    1    3    3    0    0 -0.20204648648E+02  0.37758340935E+01  0.30549886881E+02  0.36820922565E+02  0.00000000000E+00 0. -1.
         11    1    4    4    0    0 -0.28965993964E+01 -0.10897603758E+02 -0.19250912618E+02  0.22310214984E+02  0.51100000000E-03 0. -1.
        -11    1    4    4    0    0 -0.20818747383E+01  0.11133357477E+01 -0.48221035425E+01  0.53690224202E+01  0.51100000000E-03 0.  1.
        -12    1    4    4    0    0  0.25183122782E+02  0.60084339166E+01 -0.64768707209E+01  0.26687840031E+02  0.00000000000E+00 0.  1.
</event>
<event>
 8    1  0.1212194E-006  0.9118800E+02  0.7816164E-02  0.1184000E+00
        -11   -1    0    0    0    0  0.00000000000E+00  0.00000000000E+00  0.45593999997E+02  0.45594000000E+02  0.51100000000E-03 0.  1.
         11   -1    0    0    0    0 -0.00000000000E+00 -0.00000000000E+00 -0.45593999997E+02  0.45594000000E+02  0.51100000000E-03 0. -1.
         23    2    1    2    0    0  0.00000000000E+00  0.00000000000E+00  0.00000000000E+00  0.91188000000E+02  0.91188000000E+02 0.  0.
    9900012    2    3    3    0    0  0.18167877267E+02 -0.28971435867E+02  0.13651566057E+02  0.54367066872E+02  0.39999960548E+02 0.  0.
        -12    1    3    3    0    0 -0.18167877267E+02  0.28971435867E+02 -0.13651566057E+02  0.36820933128E+02  0.00000000000E+00 0.  1.
         11    1    4    4    0    0  0.49540157812E+01 -0.29873796051E+02  0.12691069250E+01  0.30308358509E+02  0.51100000000E-03 0. -1.
        -11    1    4    4    0    0  0.11750767787E+02  0.19108998010E+01  0.36515264614E+00  0.11910727028E+02  0.51100000000E-03 0.  1.
         12    1    4    4    0    0  0.14630936989E+01 -0.10085396170E+01  0.12017306486E+02  0.12147981335E+02  0.00000000000E+00 0. -1.
</event>
<event>
 8    1  0.1212194E-006  0.9118800E+02  0.7816164E-02  0.1184000E+00
        -11   -1    0    0    0    0  0.00000000000E+00  0.00000000000E+00  0.45593999997E+02  0.45594000000E+02  0.51100000000E-03 0.  1.
         11   -1    0    0    0    0 -0.00000000000E+00 -0.00000000000E+00 -0.45593999997E+02  0.45594000000E+02  0.51100000000E-03 0. -1.
         23    2    1    2    0    0  0.00000000000E+00 -0.33306690739E-15  0.71054273576E-14  0.91188000000E+02  0.91188000000E+02 0.  0.
    9900012    2    3    3    0    0 -0.34541270458E+01 -0.94740553837E+00 -0.36646288831E+02  0.54367094851E+02  0.40000024331E+02 0.  0.
        -12    1    3    3    0    0  0.34541270458E+01  0.94740553837E+00  0.36646288831E+02  0.36820905149E+02  0.00000000000E+00 0.  1.
         11    1    4    4    0    0 -0.74887895094E+01  0.46508832293E+01 -0.12500729656E+02  0.15296435052E+02  0.51100000000E-03 0. -1.
        -11    1    4    4    0    0 -0.11359205612E+02  0.83001583204E+00 -0.23597943740E+01  0.11631384619E+02  0.51100000000E-03 0.  1.
        -12    1    4    4    0    0  0.15393868075E+02 -0.64283045997E+01 -0.21785764802E+02  0.27439275179E+02  0.00000000000E+00 0.  1.
</event>
<event>
 8    1  0.1212194E-006  0.9118800E+02  0.7816164E-02  0.1184000E+00
        -11   -1    0    0    0    0  0.00000000000E+00  0.00000000000E+00  0.45593999997E+02  0.45594000000E+02  0.51100000000E-03 0.  1.
         11   -1    0    0    0    0 -0.00000000000E+00 -0.00000000000E+00 -0.45593999997E+02  0.45594000000E+02  0.51100000000E-03 0. -1.
         23    2    1    2    0    0  0.00000000000E+00 -0.17763568394E-14  0.00000000000E+00  0.91188000000E+02  0.91188000000E+02 0.  0.
    9900012    2    3    3    0    0  0.35464579107E+01 -0.11527466972E+02  0.34789886004E+02  0.54366864402E+02  0.39999498975E+02 0.  0.
         12    1    3    3    0    0 -0.35464579107E+01  0.11527466972E+02 -0.34789886004E+02  0.36821135598E+02  0.00000000000E+00 0. -1.
         11    1    4    4    0    0 -0.37778181859E+01  0.70511168439E+01  0.15508723844E+02  0.17450234225E+02  0.51100000000E-03 0. -1.
        -11    1    4    4    0    0  0.39625502721E+01 -0.11059114671E+02  0.24496433117E+02  0.27167647261E+02  0.51100000000E-03 0.  1.
         12    1    4    4    0    0  0.33617258246E+01 -0.75194691454E+01 -0.52152709568E+01  0.97489829162E+01  0.00000000000E+00 0. -1.
</event>
<event>
 8    1  0.1212194E-006  0.9118800E+02  0.7816164E-02  0.1184000E+00
        -11   -1    0    0    0    0  0.00000000000E+00  0.00000000000E+00  0.45593999997E+02  0.45594000000E+02  0.51100000000E-03 0. -1.
         11   -1    0    0    0    0 -0.00000000000E+00 -0.00000000000E+00 -0.45593999997E+02  0.45594000000E+02  0.51100000000E-03 0.  1.
         23    2    1    2    0    0  0.17763568394E-14  0.00000000000E+00  0.88817841970E-15  0.91188000000E+02  0.91188000000E+02 0.  0.
    9900012    2    3    3    0    0  0.93038712056E+01  0.35555747736E+02  0.22373514580E+01  0.54367096181E+02  0.40000027364E+02 0.  0.
        -12    1    3    3    0    0 -0.93038712056E+01 -0.35555747736E+02 -0.22373514580E+01  0.36820903819E+02  0.00000000000E+00 0.  1.
         11    1    4    4    0    0  0.20196603092E+02  0.63424349404E+01  0.49989225070E+01  0.21751286949E+02  0.51100000000E-03 0. -1.
        -11    1    4    4    0    0 -0.61313096802E+01  0.24851753560E+02 -0.43555778576E+01  0.25964854557E+02  0.51100000000E-03 0.  1.
         12    1    4    4    0    0 -0.47614222064E+01  0.43615592352E+01  0.15940068086E+01  0.66509546755E+01  0.00000000000E+00 0. -1.
</event>
<event>
 8    1  0.1212194E-006  0.9118800E+02  0.7816164E-02  0.1184000E+00
        -11   -1    0    0    0    0  0.00000000000E+00  0.00000000000E+00  0.45593999997E+02  0.45594000000E+02  0.51100000000E-03 0.  1.
         11   -1    0    0    0    0 -0.00000000000E+00 -0.00000000000E+00 -0.45593999997E+02  0.45594000000E+02  0.51100000000E-03 0. -1.
         23    2    1    2    0    0  0.00000000000E+00  0.44408920985E-15 -0.35527136788E-14  0.91188000000E+02  0.91188000000E+02 0.  0.
    9900012    2    3    3    0    0  0.19458936698E+02  0.31241200877E+01 -0.31102555200E+02  0.54367091759E+02  0.40000017283E+02 0.  0.
        -12    1    3    3    0    0 -0.19458936698E+02 -0.31241200877E+01  0.31102555200E+02  0.36820908241E+02  0.00000000000E+00 0.  1.
         11    1    4    4    0    0  0.44871169376E+01  0.44513919000E+01 -0.37007648194E+02  0.37543509870E+02  0.51100000000E-03 0. -1.
        -11    1    4    4    0    0  0.43361613889E+01 -0.64208967965E+00 -0.46375863432E+00  0.44079073356E+01  0.51100000000E-03 0.  1.
        -12    1    4    4    0    0  0.10635658371E+02 -0.68518213261E+00  0.63688516283E+01  0.12415674553E+02  0.00000000000E+00 0.  1.
</event>
<event>
 8    1  0.1212194E-006  0.9118800E+02  0.7816164E-02  0.1184000E+00
        -11   -1    0    0    0    0  0.00000000000E+00  0.00000000000E+00  0.45593999997E+02  0.45594000000E+02  0.51100000000E-03 0.  1.
         11   -1    0    0    0    0 -0.00000000000E+00 -0.00000000000E+00 -0.45593999997E+02  0.45594000000E+02  0.51100000000E-03 0. -1.
         23    2    1    2    0    0  0.35527136788E-14 -0.35527136788E-14 -0.35527136788E-14  0.91188000000E+02  0.91188000000E+02 0.  0.
    9900012    2    3    3    0    0 -0.18455064094E+02  0.20416619841E+02  0.24461303793E+02  0.54367039397E+02  0.39999897913E+02 0.  0.
         12    1    3    3    0    0  0.18455064094E+02 -0.20416619841E+02 -0.24461303793E+02  0.36820960603E+02  0.00000000000E+00 0. -1.
         11    1    4    4    0    0  0.81503299751E+00  0.20361900864E+01 -0.17908809373E+01  0.28315373294E+01  0.51100000000E-03 0. -1.
        -11    1    4    4    0    0  0.61416601856E+01  0.23499831916E+01  0.19720808420E+02  0.20788282657E+02  0.51100000000E-03 0.  1.
        -12    1    4    4    0    0 -0.25411757277E+02  0.16030446563E+02  0.65313763106E+01  0.30747219410E+02  0.00000000000E+00 0.  1.
</event>
<event>
 8    1  0.1212194E-006  0.9118800E+02  0.7816164E-02  0.1184000E+00
        -11   -1    0    0    0    0  0.00000000000E+00  0.00000000000E+00  0.45593999997E+02  0.45594000000E+02  0.51100000000E-03 0.  1.
         11   -1    0    0    0    0 -0.00000000000E+00 -0.00000000000E+00 -0.45593999997E+02  0.45594000000E+02  0.51100000000E-03 0. -1.
         23    2    1    2    0    0  0.00000000000E+00  0.00000000000E+00  0.35527136788E-14  0.91188000000E+02  0.91188000000E+02 0.  0.
    9900012    2    3    3    0    0  0.18149005337E+02  0.66840496593E+01  0.31332354559E+02  0.54367090767E+02  0.40000015021E+02 0.  0.
         12    1    3    3    0    0 -0.18149005337E+02 -0.66840496593E+01 -0.31332354559E+02  0.36820909233E+02  0.00000000000E+00 0. -1.
         11    1    4    4    0    0  0.70900861469E+01  0.12136091334E+02  0.14273443903E+02  0.20032105120E+02  0.51100000000E-03 0.  1.
        -11    1    4    4    0    0  0.10132646779E+02 -0.95115722235E+01  0.23123564557E+02  0.26978505796E+02  0.51100000000E-03 0. -1.
         12    1    4    4    0    0  0.92627241069E+00  0.40595305491E+01 -0.60646539007E+01  0.73564798506E+01  0.00000000000E+00 0. -1.
</event>
<event>
 8    1  0.1212194E-006  0.9118800E+02  0.7816164E-02  0.1184000E+00
        -11   -1    0    0    0    0  0.00000000000E+00  0.00000000000E+00  0.45593999997E+02  0.45594000000E+02  0.51100000000E-03 0. -1.
         11   -1    0    0    0    0 -0.00000000000E+00 -0.00000000000E+00 -0.45593999997E+02  0.45594000000E+02  0.51100000000E-03 0.  1.
         23    2    1    2    0    0  0.00000000000E+00  0.17763568394E-14  0.00000000000E+00  0.91188000000E+02  0.91188000000E+02 0.  0.
    9900012    2    3    3    0    0  0.34670124733E+02  0.66899868983E+01  0.10440566544E+02  0.54367096923E+02  0.40000029055E+02 0.  0.
        -12    1    3    3    0    0 -0.34670124733E+02 -0.66899868983E+01 -0.10440566544E+02  0.36820903077E+02  0.00000000000E+00 0.  1.
         11    1    4    4    0    0  0.99209175950E+01 -0.35337077084E+01  0.14002991160E+02  0.17521285849E+02  0.51100000000E-03 0. -1.
        -11    1    4    4    0    0  0.26902837549E+02  0.81168359732E+01 -0.99283176491E+01  0.29802972772E+02  0.51100000000E-03 0.  1.
        -12    1    4    4    0    0 -0.21536304118E+01  0.21068586336E+01  0.63658930326E+01  0.70428383025E+01  0.00000000000E+00 0.  1.
</event>
<event>
 8    1  0.1212194E-006  0.9118800E+02  0.7816164E-02  0.1184000E+00
        -11   -1    0    0    0    0  0.00000000000E+00  0.00000000000E+00  0.45593999997E+02  0.45594000000E+02  0.51100000000E-03 0. -1.
         11   -1    0    0    0    0 -0.00000000000E+00 -0.00000000000E+00 -0.45593999997E+02  0.45594000000E+02  0.51100000000E-03 0.  1.
         23    2    1    2    0    0  0.00000000000E+00  0.00000000000E+00 -0.35527136788E-14  0.91188000000E+02  0.91188000000E+02 0.  0.
    9900012    2    3    3    0    0 -0.27368822934E+02 -0.19560717023E+02  0.14970139711E+02  0.54367092866E+02  0.40000019806E+02 0.  0.
        -12    1    3    3    0    0  0.27368822934E+02  0.19560717023E+02 -0.14970139711E+02  0.36820907134E+02  0.00000000000E+00 0.  1.
         11    1    4    4    0    0 -0.16192200871E+02 -0.15451888981E+02 -0.91566362353E+01  0.24182477738E+02  0.51100000000E-03 0. -1.
        -11    1    4    4    0    0 -0.21780816467E+01  0.48151165818E+01  0.91386196320E+01  0.10556692493E+02  0.51100000000E-03 0.  1.
        -12    1    4    4    0    0 -0.89985404159E+01 -0.89239446241E+01  0.14988156314E+02  0.19627922635E+02  0.00000000000E+00 0.  1.
</event>
<event>
 8    1  0.1212194E-006  0.9118800E+02  0.7816164E-02  0.1184000E+00
        -11   -1    0    0    0    0  0.00000000000E+00  0.00000000000E+00  0.45593999997E+02  0.45594000000E+02  0.51100000000E-03 0.  1.
         11   -1    0    0    0    0 -0.00000000000E+00 -0.00000000000E+00 -0.45593999997E+02  0.45594000000E+02  0.51100000000E-03 0. -1.
         23    2    1    2    0    0  0.00000000000E+00 -0.44408920985E-15 -0.17763568394E-14  0.91188000000E+02  0.91188000000E+02 0.  0.
    9900012    2    3    3    0    0  0.33572700981E+02 -0.26419954078E+01 -0.14888658973E+02  0.54367101628E+02  0.40000039781E+02 0.  0.
        -12    1    3    3    0    0 -0.33572700981E+02  0.26419954078E+01  0.14888658973E+02  0.36820898372E+02  0.00000000000E+00 0.  1.
         11    1    4    4    0    0  0.32266330485E+02 -0.27085711738E+00 -0.14443899268E+02  0.35352732184E+02  0.51100000000E-03 0. -1.
        -11    1    4    4    0    0  0.98210241246E+00 -0.54271931268E+01  0.81759185714E+01  0.98622814364E+01  0.51100000000E-03 0.  1.
        -12    1    4    4    0    0  0.32426808380E+00  0.30560548363E+01 -0.86206782768E+01  0.91520880079E+01  0.00000000000E+00 0.  1.
</event>
<event>
 8    1  0.1212194E-006  0.9118800E+02  0.7816164E-02  0.1184000E+00
        -11   -1    0    0    0    0  0.00000000000E+00  0.00000000000E+00  0.45593999997E+02  0.45594000000E+02  0.51100000000E-03 0. -1.
         11   -1    0    0    0    0 -0.00000000000E+00 -0.00000000000E+00 -0.45593999997E+02  0.45594000000E+02  0.51100000000E-03 0.  1.
         23    2    1    2    0    0 -0.71054273576E-14  0.00000000000E+00  0.88817841970E-15  0.91188000000E+02  0.91188000000E+02 0.  0.
    9900012    2    3    3    0    0  0.28421368925E+02 -0.22729989573E+02 -0.55992676660E+01  0.54367103271E+02  0.40000043527E+02 0.  0.
        -12    1    3    3    0    0 -0.28421368925E+02  0.22729989573E+02  0.55992676660E+01  0.36820896729E+02  0.00000000000E+00 0.  1.
         11    1    4    4    0    0  0.13031649583E+01  0.38917799692E+01  0.10943766698E+02  0.11688037476E+02  0.51100000000E-03 0. -1.
        -11    1    4    4    0    0  0.11650777955E+02 -0.16923485391E+02 -0.12263360114E+02  0.23927703323E+02  0.51100000000E-03 0.  1.
        -12    1    4    4    0    0  0.15467426011E+02 -0.96982841508E+01 -0.42796742503E+01  0.18751362472E+02  0.00000000000E+00 0.  1.
</event>
<event>
 8    1  0.1212194E-006  0.9118800E+02  0.7816164E-02  0.1184000E+00
        -11   -1    0    0    0    0  0.00000000000E+00  0.00000000000E+00  0.45593999997E+02  0.45594000000E+02  0.51100000000E-03 0. -1.
         11   -1    0    0    0    0 -0.00000000000E+00 -0.00000000000E+00 -0.45593999997E+02  0.45594000000E+02  0.51100000000E-03 0.  1.
         23    2    1    2    0    0  0.35527136788E-14 -0.17763568394E-14 -0.17763568394E-14  0.91188000000E+02  0.91188000000E+02 0.  0.
    9900012    2    3    3    0    0  0.31582569396E+02 -0.15496061938E+02 -0.10871752574E+02  0.54367059908E+02  0.39999944672E+02 0.  0.
         12    1    3    3    0    0 -0.31582569396E+02  0.15496061938E+02  0.10871752574E+02  0.36820940092E+02  0.00000000000E+00 0. -1.
         11    1    4    4    0    0  0.39284652746E+00  0.34997179884E-01  0.10979063683E+01  0.11665984106E+01  0.51100000000E-03 0. -1.
        -11    1    4    4    0    0  0.27691562535E+01 -0.90181022359E+01 -0.20713295826E+02  0.22760382653E+02  0.51100000000E-03 0.  1.
        -12    1    4    4    0    0  0.28420566615E+02 -0.65129568821E+01  0.87436368838E+01  0.30440078844E+02  0.00000000000E+00 0.  1.
</event>
<event>
 8    1  0.1212194E-006  0.9118800E+02  0.7816164E-02  0.1184000E+00
        -11   -1    0    0    0    0  0.00000000000E+00  0.00000000000E+00  0.45593999997E+02  0.45594000000E+02  0.51100000000E-03 0.  1.
         11   -1    0    0    0    0 -0.00000000000E+00 -0.00000000000E+00 -0.45593999997E+02  0.45594000000E+02  0.51100000000E-03 0. -1.
         23    2    1    2    0    0  0.35527136788E-14  0.00000000000E+00  0.00000000000E+00  0.91188000000E+02  0.91188000000E+02 0.  0.
    9900012    2    3    3    0    0 -0.17422011067E+02  0.19312782396E+02  0.26062813555E+02  0.54367078177E+02  0.39999986321E+02 0.  0.
         12    1    3    3    0    0  0.17422011067E+02 -0.19312782396E+02 -0.26062813555E+02  0.36820921823E+02  0.00000000000E+00 0. -1.
         11    1    4    4    0    0  0.41904467124E+01 -0.12875749845E+01 -0.29718945250E+01  0.52962109398E+01  0.51100000000E-03 0. -1.
        -11    1    4    4    0    0  0.38964722198E+01  0.97719050087E+01  0.14095397082E+02  0.17588429220E+02  0.51100000000E-03 0.  1.
        -12    1    4    4    0    0 -0.25508929999E+02  0.10828452372E+02  0.14939310997E+02  0.31482438017E+02  0.00000000000E+00 0.  1.
</event>
<event>
 8    1  0.1212194E-006  0.9118800E+02  0.7816164E-02  0.1184000E+00
        -11   -1    0    0    0    0  0.00000000000E+00  0.00000000000E+00  0.45593999997E+02  0.45594000000E+02  0.51100000000E-03 0.  1.
         11   -1    0    0    0    0 -0.00000000000E+00 -0.00000000000E+00 -0.45593999997E+02  0.45594000000E+02  0.51100000000E-03 0. -1.
         23    2    1    2    0    0  0.35527136788E-14  0.88817841970E-15  0.00000000000E+00  0.91188000000E+02  0.91188000000E+02 0.  0.
    9900012    2    3    3    0    0 -0.25074415899E+02 -0.79592156665E+01  0.25762463917E+02  0.54367082117E+02  0.39999995301E+02 0.  0.
         12    1    3    3    0    0  0.25074415899E+02  0.79592156665E+01 -0.25762463917E+02  0.36820917883E+02  0.00000000000E+00 0. -1.
         11    1    4    4    0    0 -0.17505427526E+01 -0.50875909572E+01 -0.84929291804E+01  0.10053746963E+02  0.51100000000E-03 0. -1.
        -11    1    4    4    0    0 -0.93617791201E+01  0.60472857478E+01  0.10223050237E+02  0.15123601741E+02  0.51100000000E-03 0.  1.
        -12    1    4    4    0    0 -0.13962094027E+02 -0.89189104572E+01  0.24032342860E+02  0.29189733412E+02  0.00000000000E+00 0.  1.
</event>
<event>
 8    1  0.1212194E-006  0.9118800E+02  0.7816164E-02  0.1184000E+00
        -11   -1    0    0    0    0  0.00000000000E+00  0.00000000000E+00  0.45593999997E+02  0.45594000000E+02  0.51100000000E-03 0. -1.
         11   -1    0    0    0    0 -0.00000000000E+00 -0.00000000000E+00 -0.45593999997E+02  0.45594000000E+02  0.51100000000E-03 0.  1.
         23    2    1    2    0    0 -0.44408920985E-15 -0.71054273576E-14  0.00000000000E+00  0.91188000000E+02  0.91188000000E+02 0.  0.
    9900012    2    3    3    0    0 -0.33481649764E+01  0.34762270963E+02  0.11668633998E+02  0.54367045224E+02  0.39999911197E+02 0.  0.
         12    1    3    3    0    0  0.33481649764E+01 -0.34762270963E+02 -0.11668633998E+02  0.36820954776E+02  0.00000000000E+00 0. -1.
         11    1    4    4    0    0 -0.44940371802E+01  0.15977932202E+02  0.17724848556E+02  0.24282935248E+02  0.51100000000E-03 0. -1.
        -11    1    4    4    0    0 -0.87710710206E+01  0.11367353096E+02  0.30929194387E+01  0.14687224182E+02  0.51100000000E-03 0.  1.
         12    1    4    4    0    0  0.99169432244E+01  0.74169856652E+01 -0.91491339966E+01  0.15396885794E+02  0.00000000000E+00 0. -1.
</event>
<event>
 8    1  0.1212194E-006  0.9118800E+02  0.7816164E-02  0.1184000E+00
        -11   -1    0    0    0    0  0.00000000000E+00  0.00000000000E+00  0.45593999997E+02  0.45594000000E+02  0.51100000000E-03 0.  1.
         11   -1    0    0    0    0 -0.00000000000E+00 -0.00000000000E+00 -0.45593999997E+02  0.45594000000E+02  0.51100000000E-03 0. -1.
         23    2    1    2    0    0 -0.35527136788E-14 -0.35527136788E-14 -0.35527136788E-14  0.91188000000E+02  0.91188000000E+02 0.  0.
    9900012    2    3    3    0    0 -0.18983090085E+02  0.16028400749E+02 -0.27175574728E+02  0.54367092874E+02  0.40000019826E+02 0.  0.
        -12    1    3    3    0    0  0.18983090085E+02 -0.16028400749E+02  0.27175574728E+02  0.36820907126E+02  0.00000000000E+00 0.  1.
         11    1    4    4    0    0 -0.23527235096E+02  0.92429945252E+01 -0.38256062413E+01  0.25565582380E+02  0.51100000000E-03 0. -1.
        -11    1    4    4    0    0 -0.17460972485E+01  0.76372704340E+01 -0.47819093658E+01  0.91784210367E+01  0.51100000000E-03 0.  1.
         12    1    4    4    0    0  0.62902422598E+01 -0.85186421048E+00 -0.18568059121E+02  0.19623089457E+02  0.00000000000E+00 0. -1.
</event>
<event>
 8    1  0.1212194E-006  0.9118800E+02  0.7816164E-02  0.1184000E+00
        -11   -1    0    0    0    0  0.00000000000E+00  0.00000000000E+00  0.45593999997E+02  0.45594000000E+02  0.51100000000E-03 0.  1.
         11   -1    0    0    0    0 -0.00000000000E+00 -0.00000000000E+00 -0.45593999997E+02  0.45594000000E+02  0.51100000000E-03 0. -1.
         23    2    1    2    0    0 -0.88817841970E-15 -0.44408920985E-15  0.00000000000E+00  0.91188000000E+02  0.91188000000E+02 0.  0.
    9900012    2    3    3    0    0 -0.75697774948E+01 -0.37318728115E+01 -0.35840638380E+02  0.54367085216E+02  0.40000002367E+02 0.  0.
        -12    1    3    3    0    0  0.75697774948E+01  0.37318728115E+01  0.35840638380E+02  0.36820914784E+02  0.00000000000E+00 0.  1.
         11    1    4    4    0    0  0.12025836211E+01  0.13471389920E+02 -0.21734068081E+02  0.25598716166E+02  0.51100000000E-03 0. -1.
        -11    1    4    4    0    0 -0.39106743612E+01 -0.12281413548E+02 -0.16945587687E+02  0.21290360143E+02  0.51100000000E-03 0.  1.
        -12    1    4    4    0    0 -0.48616867547E+01 -0.49218491836E+01  0.28390173881E+01  0.74780089072E+01  0.00000000000E+00 0.  1.
</event>
<event>
 8    1  0.1212194E-006  0.9118800E+02  0.7816164E-02  0.1184000E+00
        -11   -1    0    0    0    0  0.00000000000E+00  0.00000000000E+00  0.45593999997E+02  0.45594000000E+02  0.51100000000E-03 0.  1.
         11   -1    0    0    0    0 -0.00000000000E+00 -0.00000000000E+00 -0.45593999997E+02  0.45594000000E+02  0.51100000000E-03 0. -1.
         23    2    1    2    0    0  0.00000000000E+00 -0.35527136788E-14  0.00000000000E+00  0.91188000000E+02  0.91188000000E+02 0.  0.
    9900012    2    3    3    0    0  0.29149037778E+02 -0.20709469250E+02  0.87882135425E+01  0.54367065502E+02  0.39999957426E+02 0.  0.
         12    1    3    3    0    0 -0.29149037778E+02  0.20709469250E+02 -0.87882135425E+01  0.36820934498E+02  0.00000000000E+00 0. -1.
         11    1    4    4    0    0  0.87103331087E+01 -0.90142431511E+01  0.81776055247E+01  0.14966620020E+02  0.51100000000E-03 0.  1.
        -11    1    4    4    0    0 -0.20330705904E+01  0.97343822609E+00  0.11266258442E+02  0.11489540354E+02  0.51100000000E-03 0. -1.
         12    1    4    4    0    0  0.22471775260E+02 -0.12668664325E+02 -0.10655650424E+02  0.27910905128E+02  0.00000000000E+00 0. -1.
</event>
<event>
 8    1  0.1212194E-006  0.9118800E+02  0.7816164E-02  0.1184000E+00
        -11   -1    0    0    0    0  0.00000000000E+00  0.00000000000E+00  0.45593999997E+02  0.45594000000E+02  0.51100000000E-03 0.  1.
         11   -1    0    0    0    0 -0.00000000000E+00 -0.00000000000E+00 -0.45593999997E+02  0.45594000000E+02  0.51100000000E-03 0. -1.
         23    2    1    2    0    0  0.35527136788E-14  0.00000000000E+00  0.00000000000E+00  0.91188000000E+02  0.91188000000E+02 0.  0.
    9900012    2    3    3    0    0 -0.19119406494E+02  0.12305137612E+02 -0.28962237894E+02  0.54367090992E+02  0.40000015535E+02 0.  0.
        -12    1    3    3    0    0  0.19119406494E+02 -0.12305137612E+02  0.28962237894E+02  0.36820909008E+02  0.00000000000E+00 0.  1.
         11    1    4    4    0    0 -0.34870031156E+01  0.12119545834E+02 -0.17515681605E+01  0.12732265047E+02  0.51100000000E-03 0. -1.
        -11    1    4    4    0    0  0.66629691716E+01 -0.47589365579E+01 -0.10607899155E+02  0.13400379103E+02  0.51100000000E-03 0.  1.
         12    1    4    4    0    0 -0.22295372551E+02  0.49445283363E+01 -0.16602770578E+02  0.28234446843E+02  0.00000000000E+00 0. -1.
</event>
<event>
 8    1  0.1212194E-006  0.9118800E+02  0.7816164E-02  0.1184000E+00
        -11   -1    0    0    0    0  0.00000000000E+00  0.00000000000E+00  0.45593999997E+02  0.45594000000E+02  0.51100000000E-03 0.  1.
         11   -1    0    0    0    0 -0.00000000000E+00 -0.00000000000E+00 -0.45593999997E+02  0.45594000000E+02  0.51100000000E-03 0. -1.
         23    2    1    2    0    0 -0.44408920985E-15  0.00000000000E+00  0.00000000000E+00  0.91188000000E+02  0.91188000000E+02 0.  0.
    9900012    2    3    3    0    0 -0.19941243654E+01  0.36695345686E+02 -0.22922331127E+01  0.54367092086E+02  0.40000018028E+02 0.  0.
         12    1    3    3    0    0  0.19941243654E+01 -0.36695345686E+02  0.22922331127E+01  0.36820907914E+02  0.00000000000E+00 0. -1.
         11    1    4    4    0    0  0.15141900005E+02  0.17317781321E+02 -0.32785874978E+01  0.23236433072E+02  0.51100000000E-03 0. -1.
        -11    1    4    4    0    0 -0.15412653420E+02  0.47757767770E+01 -0.15517834764E+01  0.16210057418E+02  0.51100000000E-03 0.  1.
        -12    1    4    4    0    0 -0.17233709510E+01  0.14601787588E+02  0.25381378615E+01  0.14920601596E+02  0.00000000000E+00 0.  1.
</event>
<event>
 8    1  0.1212194E-006  0.9118800E+02  0.7816164E-02  0.1184000E+00
        -11   -1    0    0    0    0  0.00000000000E+00  0.00000000000E+00  0.45593999997E+02  0.45594000000E+02  0.51100000000E-03 0.  1.
         11   -1    0    0    0    0 -0.00000000000E+00 -0.00000000000E+00 -0.45593999997E+02  0.45594000000E+02  0.51100000000E-03 0. -1.
         23    2    1    2    0    0 -0.88817841970E-15  0.00000000000E+00  0.35527136788E-14  0.91188000000E+02  0.91188000000E+02 0.  0.
    9900012    2    3    3    0    0 -0.58770835089E+01 -0.30429655091E+02  0.19881533173E+02  0.54367090440E+02  0.40000014276E+02 0.  0.
         12    1    3    3    0    0  0.58770835089E+01  0.30429655091E+02 -0.19881533173E+02  0.36820909560E+02  0.00000000000E+00 0. -1.
         11    1    4    4    0    0 -0.54048315587E+01 -0.18602171686E+02 -0.53879682724E+01  0.20106794821E+02  0.51100000000E-03 0. -1.
        -11    1    4    4    0    0  0.27812037197E+01  0.51079398416E+01  0.52249297332E+01  0.78183140468E+01  0.51100000000E-03 0.  1.
         12    1    4    4    0    0 -0.32534556699E+01 -0.16935423246E+02  0.20044571712E+02  0.26441981572E+02  0.00000000000E+00 0. -1.
</event>
<event>
 8    1  0.1212194E-006  0.9118800E+02  0.7816164E-02  0.1184000E+00
        -11   -1    0    0    0    0  0.00000000000E+00  0.00000000000E+00  0.45593999997E+02  0.45594000000E+02  0.51100000000E-03 0. -1.
         11   -1    0    0    0    0 -0.00000000000E+00 -0.00000000000E+00 -0.45593999997E+02  0.45594000000E+02  0.51100000000E-03 0.  1.
         23    2    1    2    0    0  0.77715611724E-15  0.00000000000E+00  0.35527136788E-14  0.91188000000E+02  0.91188000000E+02 0.  0.
    9900012    2    3    3    0    0  0.80862518606E+00 -0.21090343553E+02  0.30171572798E+02  0.54367078352E+02  0.39999986720E+02 0.  0.
        -12    1    3    3    0    0 -0.80862518606E+00  0.21090343553E+02 -0.30171572798E+02  0.36820921648E+02  0.00000000000E+00 0.  1.
         11    1    4    4    0    0  0.22871105367E+01  0.22414457881E+01 -0.29412958973E+01  0.43481232324E+01  0.51100000000E-03 0. -1.
        -11    1    4    4    0    0 -0.78618547949E+01 -0.16367300873E+02  0.29304217815E+01  0.18392516705E+02  0.51100000000E-03 0.  1.
         12    1    4    4    0    0  0.63833694443E+01 -0.69644884679E+01  0.30182446914E+02  0.31626438415E+02  0.00000000000E+00 0. -1.
</event>
<event>
 8    1  0.1212194E-006  0.9118800E+02  0.7816164E-02  0.1184000E+00
        -11   -1    0    0    0    0  0.00000000000E+00  0.00000000000E+00  0.45593999997E+02  0.45594000000E+02  0.51100000000E-03 0.  1.
         11   -1    0    0    0    0 -0.00000000000E+00 -0.00000000000E+00 -0.45593999997E+02  0.45594000000E+02  0.51100000000E-03 0. -1.
         23    2    1    2    0    0  0.00000000000E+00  0.35527136788E-14 -0.88817841970E-15  0.91188000000E+02  0.91188000000E+02 0.  0.
    9900012    2    3    3    0    0  0.32684015577E+02  0.16163873976E+02 -0.51248513257E+01  0.54367084786E+02  0.40000001386E+02 0.  0.
        -12    1    3    3    0    0 -0.32684015577E+02 -0.16163873976E+02  0.51248513257E+01  0.36820915214E+02  0.00000000000E+00 0.  1.
         11    1    4    4    0    0 -0.20777208956E+01 -0.99328468207E+01  0.13125695123E+01  0.10232360875E+02  0.51100000000E-03 0. -1.
        -11    1    4    4    0    0  0.25376068911E+02  0.18618163863E+02 -0.64809039854E+01  0.32133829771E+02  0.51100000000E-03 0.  1.
         12    1    4    4    0    0  0.93856675611E+01  0.74785569340E+01  0.43483147333E-01  0.12000894140E+02  0.00000000000E+00 0. -1.
</event>
<event>
 8    1  0.1212194E-006  0.9118800E+02  0.7816164E-02  0.1184000E+00
        -11   -1    0    0    0    0  0.00000000000E+00  0.00000000000E+00  0.45593999997E+02  0.45594000000E+02  0.51100000000E-03 0.  1.
         11   -1    0    0    0    0 -0.00000000000E+00 -0.00000000000E+00 -0.45593999997E+02  0.45594000000E+02  0.51100000000E-03 0. -1.
         23    2    1    2    0    0  0.00000000000E+00  0.00000000000E+00  0.00000000000E+00  0.91188000000E+02  0.91188000000E+02 0.  0.
    9900012    2    3    3    0    0  0.20974836551E+02 -0.17949415055E+01 -0.30209508592E+02  0.54367082131E+02  0.39999995335E+02 0.  0.
        -12    1    3    3    0    0 -0.20974836551E+02  0.17949415055E+01  0.30209508592E+02  0.36820917869E+02  0.00000000000E+00 0.  1.
         11    1    4    4    0    0  0.10154945711E+02 -0.61664217670E+01 -0.32541374316E+02  0.34642296726E+02  0.51100000000E-03 0. -1.
        -11    1    4    4    0    0 -0.22628806727E+01 -0.35927259051E+01  0.10312066523E+00  0.42472276253E+01  0.51100000000E-03 0.  1.
         12    1    4    4    0    0  0.13082771512E+02  0.79642061666E+01  0.22287450590E+01  0.15477557780E+02  0.00000000000E+00 0. -1.
</event>
<event>
 8    1  0.1212194E-006  0.9118800E+02  0.7816164E-02  0.1184000E+00
        -11   -1    0    0    0    0  0.00000000000E+00  0.00000000000E+00  0.45593999997E+02  0.45594000000E+02  0.51100000000E-03 0. -1.
         11   -1    0    0    0    0 -0.00000000000E+00 -0.00000000000E+00 -0.45593999997E+02  0.45594000000E+02  0.51100000000E-03 0.  1.
         23    2    1    2    0    0  0.00000000000E+00  0.00000000000E+00  0.00000000000E+00  0.91188000000E+02  0.91188000000E+02 0.  0.
    9900012    2    3    3    0    0  0.77054132877E+01  0.26987404097E+02  0.23834551013E+02  0.54367092952E+02  0.40000020002E+02 0.  0.
        -12    1    3    3    0    0 -0.77054132877E+01 -0.26987404097E+02 -0.23834551013E+02  0.36820907048E+02  0.00000000000E+00 0.  1.
         11    1    4    4    0    0  0.33757022707E+01  0.14634130409E+02  0.28151216576E+02  0.31906803877E+02  0.51100000000E-03 0. -1.
        -11    1    4    4    0    0 -0.25338398654E+01  0.13890643737E+02 -0.58123936958E+01  0.15269389268E+02  0.51100000000E-03 0.  1.
         12    1    4    4    0    0  0.68635508824E+01 -0.15373700491E+01  0.14957281331E+01  0.71908998068E+01  0.00000000000E+00 0. -1.
</event>
<event>
 8    1  0.1212194E-006  0.9118800E+02  0.7816164E-02  0.1184000E+00
        -11   -1    0    0    0    0  0.00000000000E+00  0.00000000000E+00  0.45593999997E+02  0.45594000000E+02  0.51100000000E-03 0. -1.
         11   -1    0    0    0    0 -0.00000000000E+00 -0.00000000000E+00 -0.45593999997E+02  0.45594000000E+02  0.51100000000E-03 0.  1.
         23    2    1    2    0    0  0.00000000000E+00  0.00000000000E+00  0.00000000000E+00  0.91188000000E+02  0.91188000000E+02 0.  0.
    9900012    2    3    3    0    0 -0.20440821310E+02 -0.28231039889E+02 -0.11872727940E+02  0.54367075816E+02  0.39999980937E+02 0.  0.
         12    1    3    3    0    0  0.20440821310E+02  0.28231039889E+02  0.11872727940E+02  0.36820924184E+02  0.00000000000E+00 0. -1.
         11    1    4    4    0    0 -0.68990668521E+01 -0.12394526384E+02 -0.19990992465E+02  0.24512470045E+02  0.51100000000E-03 0. -1.
        -11    1    4    4    0    0 -0.30893569776E+01 -0.60293833947E+01 -0.64952652846E+01  0.93854175205E+01  0.51100000000E-03 0.  1.
        -12    1    4    4    0    0 -0.10452397481E+02 -0.98071301105E+01  0.14613529810E+02  0.20469188250E+02  0.00000000000E+00 0.  1.
</event>
<event>
 8    1  0.1212194E-006  0.9118800E+02  0.7816164E-02  0.1184000E+00
        -11   -1    0    0    0    0  0.00000000000E+00  0.00000000000E+00  0.45593999997E+02  0.45594000000E+02  0.51100000000E-03 0. -1.
         11   -1    0    0    0    0 -0.00000000000E+00 -0.00000000000E+00 -0.45593999997E+02  0.45594000000E+02  0.51100000000E-03 0.  1.
         23    2    1    2    0    0 -0.35527136788E-14  0.35527136788E-14 -0.35527136788E-14  0.91188000000E+02  0.91188000000E+02 0.  0.
    9900012    2    3    3    0    0  0.16781821248E+02 -0.16609840591E+02  0.28253555475E+02  0.54367085755E+02  0.40000003595E+02 0.  0.
        -12    1    3    3    0    0 -0.16781821248E+02  0.16609840591E+02 -0.28253555475E+02  0.36820914245E+02  0.00000000000E+00 0.  1.
         11    1    4    4    0    0  0.61696501873E+01 -0.12945540955E+02  0.14570028644E+02  0.20443516062E+02  0.51100000000E-03 0. -1.
        -11    1    4    4    0    0  0.16185417693E+02 -0.11236979478E+02  0.14531860826E+02  0.24482900829E+02  0.51100000000E-03 0.  1.
        -12    1    4    4    0    0 -0.55732466322E+01  0.75726798420E+01 -0.84833399481E+00  0.94406688629E+01  0.00000000000E+00 0.  1.
</event>
<event>
 8    1  0.1212194E-006  0.9118800E+02  0.7816164E-02  0.1184000E+00
        -11   -1    0    0    0    0  0.00000000000E+00  0.00000000000E+00  0.45593999997E+02  0.45594000000E+02  0.51100000000E-03 0. -1.
         11   -1    0    0    0    0 -0.00000000000E+00 -0.00000000000E+00 -0.45593999997E+02  0.45594000000E+02  0.51100000000E-03 0.  1.
         23    2    1    2    0    0  0.26645352591E-14  0.00000000000E+00  0.00000000000E+00  0.91188000000E+02  0.91188000000E+02 0.  0.
    9900012    2    3    3    0    0 -0.85903354546E+00  0.18097802190E+02 -0.32054818094E+02  0.54367085484E+02  0.40000002977E+02 0.  0.
         12    1    3    3    0    0  0.85903354546E+00 -0.18097802190E+02  0.32054818094E+02  0.36820914516E+02  0.00000000000E+00 0. -1.
         11    1    4    4    0    0 -0.61521356954E+01  0.17330094017E+02 -0.52271624592E+01  0.19118163089E+02  0.51100000000E-03 0. -1.
        -11    1    4    4    0    0  0.92234121632E+01 -0.12361999478E+01 -0.28909746750E+02  0.30370593996E+02  0.51100000000E-03 0.  1.
        -12    1    4    4    0    0 -0.39303100132E+01  0.20039081212E+01  0.20820911152E+01  0.48783283992E+01  0.00000000000E+00 0.  1.
</event>
<event>
 8    1  0.1212194E-006  0.9118800E+02  0.7816164E-02  0.1184000E+00
        -11   -1    0    0    0    0  0.00000000000E+00  0.00000000000E+00  0.45593999997E+02  0.45594000000E+02  0.51100000000E-03 0. -1.
         11   -1    0    0    0    0 -0.00000000000E+00 -0.00000000000E+00 -0.45593999997E+02  0.45594000000E+02  0.51100000000E-03 0.  1.
         23    2    1    2    0    0  0.00000000000E+00  0.00000000000E+00  0.00000000000E+00  0.91188000000E+02  0.91188000000E+02 0.  0.
    9900012    2    3    3    0    0  0.33818069755E+02  0.13174848884E+02 -0.62081631462E+01  0.54367085092E+02  0.40000002083E+02 0.  0.
         12    1    3    3    0    0 -0.33818069755E+02 -0.13174848884E+02  0.62081631462E+01  0.36820914908E+02  0.00000000000E+00 0. -1.
         11    1    4    4    0    0  0.17113397655E+02  0.19705061336E+02 -0.69118213082E+01  0.26998723963E+02  0.51100000000E-03 0. -1.
        -11    1    4    4    0    0  0.32963496913E+01 -0.75836924970E+01 -0.78723255211E+01  0.11417172266E+02  0.51100000000E-03 0.  1.
         12    1    4    4    0    0  0.13408322408E+02  0.10534800447E+01  0.85759836831E+01  0.15951188863E+02  0.00000000000E+00 0. -1.
</event>
<event>
 8    1  0.1212194E-006  0.9118800E+02  0.7816164E-02  0.1184000E+00
        -11   -1    0    0    0    0  0.00000000000E+00  0.00000000000E+00  0.45593999997E+02  0.45594000000E+02  0.51100000000E-03 0. -1.
         11   -1    0    0    0    0 -0.00000000000E+00 -0.00000000000E+00 -0.45593999997E+02  0.45594000000E+02  0.51100000000E-03 0.  1.
         23    2    1    2    0    0 -0.88817841970E-15 -0.66613381478E-15  0.00000000000E+00  0.91188000000E+02  0.91188000000E+02 0.  0.
    9900012    2    3    3    0    0  0.59415073129E+01  0.14542627319E+01 -0.36309288262E+02  0.54367071123E+02  0.39999970240E+02 0.  0.
         12    1    3    3    0    0 -0.59415073129E+01 -0.14542627319E+01  0.36309288262E+02  0.36820928877E+02  0.00000000000E+00 0. -1.
         11    1    4    4    0    0  0.34574420590E+01 -0.91458424175E+01 -0.31597424251E+01  0.10275422695E+02  0.51100000000E-03 0. -1.
        -11    1    4    4    0    0  0.10583613271E+02 -0.48230003798E+01 -0.14091806720E+02  0.18271650704E+02  0.51100000000E-03 0.  1.
        -12    1    4    4    0    0 -0.80995480169E+01  0.15423105529E+02 -0.19057739117E+02  0.25819997724E+02  0.00000000000E+00 0.  1.
</event>
<event>
 8    1  0.1212194E-006  0.9118800E+02  0.7816164E-02  0.1184000E+00
        -11   -1    0    0    0    0  0.00000000000E+00  0.00000000000E+00  0.45593999997E+02  0.45594000000E+02  0.51100000000E-03 0.  1.
         11   -1    0    0    0    0 -0.00000000000E+00 -0.00000000000E+00 -0.45593999997E+02  0.45594000000E+02  0.51100000000E-03 0. -1.
         23    2    1    2    0    0 -0.35527136788E-14  0.00000000000E+00 -0.35527136788E-14  0.91188000000E+02  0.91188000000E+02 0.  0.
    9900012    2    3    3    0    0 -0.24094571787E+02  0.86719365634E+01 -0.26458096000E+02  0.54367058712E+02  0.39999941947E+02 0.  0.
        -12    1    3    3    0    0  0.24094571787E+02 -0.86719365634E+01  0.26458096000E+02  0.36820941288E+02  0.00000000000E+00 0.  1.
         11    1    4    4    0    0 -0.26061963063E+01 -0.40962024442E+01 -0.21904535240E+02  0.22436127072E+02  0.51100000000E-03 0. -1.
        -11    1    4    4    0    0  0.18211531258E+01  0.63420905392E+01 -0.40588114198E+01  0.77467839467E+01  0.51100000000E-03 0.  1.
         12    1    4    4    0    0 -0.23309528606E+02  0.64260484685E+01 -0.49474934037E+00  0.24184147694E+02  0.00000000000E+00 0. -1.
</event>
<event>
 8    1  0.1212194E-006  0.9118800E+02  0.7816164E-02  0.1184000E+00
        -11   -1    0    0    0    0  0.00000000000E+00  0.00000000000E+00  0.45593999997E+02  0.45594000000E+02  0.51100000000E-03 0. -1.
         11   -1    0    0    0    0 -0.00000000000E+00 -0.00000000000E+00 -0.45593999997E+02  0.45594000000E+02  0.51100000000E-03 0.  1.
         23    2    1    2    0    0  0.00000000000E+00  0.00000000000E+00  0.00000000000E+00  0.91188000000E+02  0.91188000000E+02 0.  0.
    9900012    2    3    3    0    0 -0.23828938026E+02 -0.14507745429E+02 -0.24030996749E+02  0.54367058002E+02  0.39999940327E+02 0.  0.
         12    1    3    3    0    0  0.23828938026E+02  0.14507745429E+02  0.24030996749E+02  0.36820941998E+02  0.00000000000E+00 0. -1.
         11    1    4    4    0    0  0.10879169946E+01 -0.10606554736E+02 -0.13606405407E+02  0.17286319305E+02  0.51100000000E-03 0. -1.
        -11    1    4    4    0    0  0.33499220781E+01 -0.62356705428E+01 -0.34411967309E+01  0.78706670778E+01  0.51100000000E-03 0.  1.
        -12    1    4    4    0    0 -0.28266777099E+02  0.23344798495E+01 -0.69833946111E+01  0.29210071620E+02  0.00000000000E+00 0.  1.
</event>
<event>
 8    1  0.1212194E-006  0.9118800E+02  0.7816164E-02  0.1184000E+00
        -11   -1    0    0    0    0  0.00000000000E+00  0.00000000000E+00  0.45593999997E+02  0.45594000000E+02  0.51100000000E-03 0.  1.
         11   -1    0    0    0    0 -0.00000000000E+00 -0.00000000000E+00 -0.45593999997E+02  0.45594000000E+02  0.51100000000E-03 0. -1.
         23    2    1    2    0    0  0.00000000000E+00  0.00000000000E+00  0.35527136788E-14  0.91188000000E+02  0.91188000000E+02 0.  0.
    9900012    2    3    3    0    0 -0.16431617027E+02  0.31061559451E+02  0.10998289792E+02  0.54367069920E+02  0.39999967497E+02 0.  0.
         12    1    3    3    0    0  0.16431617027E+02 -0.31061559451E+02 -0.10998289792E+02  0.36820930080E+02  0.00000000000E+00 0. -1.
         11    1    4    4    0    0  0.36480966653E+01  0.68291724060E+01 -0.38578801504E+01  0.86504014096E+01  0.51100000000E-03 0. -1.
        -11    1    4    4    0    0  0.41775871439E+00 -0.45307584214E+01  0.87652871073E+01  0.98758570540E+01  0.51100000000E-03 0.  1.
         12    1    4    4    0    0 -0.20497472406E+02  0.28763145466E+02  0.60908828348E+01  0.35840811456E+02  0.00000000000E+00 0. -1.
</event>
<event>
 8    1  0.1212194E-006  0.9118800E+02  0.7816164E-02  0.1184000E+00
        -11   -1    0    0    0    0  0.00000000000E+00  0.00000000000E+00  0.45593999997E+02  0.45594000000E+02  0.51100000000E-03 0.  1.
         11   -1    0    0    0    0 -0.00000000000E+00 -0.00000000000E+00 -0.45593999997E+02  0.45594000000E+02  0.51100000000E-03 0. -1.
         23    2    1    2    0    0  0.00000000000E+00 -0.53290705182E-14 -0.35527136788E-14  0.91188000000E+02  0.91188000000E+02 0.  0.
    9900012    2    3    3    0    0  0.17868705659E+02  0.13337045676E+02  0.29302088229E+02  0.54367084695E+02  0.40000001180E+02 0.  0.
         12    1    3    3    0    0 -0.17868705659E+02 -0.13337045676E+02 -0.29302088229E+02  0.36820915305E+02  0.00000000000E+00 0. -1.
         11    1    4    4    0    0  0.51180871264E+01  0.20021349188E+01 -0.28784096299E+01  0.62039183042E+01  0.51100000000E-03 0. -1.
        -11    1    4    4    0    0 -0.17282509617E+01 -0.85604005325E+01  0.15437791337E+01  0.88685152612E+01  0.51100000000E-03 0.  1.
        -12    1    4    4    0    0  0.14478869495E+02  0.19895311290E+02  0.30636718725E+02  0.39294651130E+02  0.00000000000E+00 0.  1.
</event>
<event>
 8    1  0.1212194E-006  0.9118800E+02  0.7816164E-02  0.1184000E+00
        -11   -1    0    0    0    0  0.00000000000E+00  0.00000000000E+00  0.45593999997E+02  0.45594000000E+02  0.51100000000E-03 0. -1.
         11   -1    0    0    0    0 -0.00000000000E+00 -0.00000000000E+00 -0.45593999997E+02  0.45594000000E+02  0.51100000000E-03 0.  1.
         23    2    1    2    0    0 -0.35527136788E-14  0.00000000000E+00  0.17763568394E-14  0.91188000000E+02  0.91188000000E+02 0.  0.
    9900012    2    3    3    0    0 -0.23146203277E+02 -0.27256486404E+02 -0.87816544499E+01  0.54367078881E+02  0.39999987924E+02 0.  0.
         12    1    3    3    0    0  0.23146203277E+02  0.27256486404E+02  0.87816544499E+01  0.36820921119E+02  0.00000000000E+00 0. -1.
         11    1    4    4    0    0  0.44101009649E+00 -0.13347114329E+00 -0.40793410891E+00  0.61539820412E+00  0.51100000000E-03 0. -1.
        -11    1    4    4    0    0  0.63125604266E+01 -0.16494589783E+02  0.63519109758E+01  0.18768768861E+02  0.51100000000E-03 0.  1.
        -12    1    4    4    0    0 -0.29899773800E+02 -0.10628425478E+02 -0.14725631317E+02  0.34982911816E+02  0.00000000000E+00 0.  1.
</event>
<event>
 8    1  0.1212194E-006  0.9118800E+02  0.7816164E-02  0.1184000E+00
        -11   -1    0    0    0    0  0.00000000000E+00  0.00000000000E+00  0.45593999997E+02  0.45594000000E+02  0.51100000000E-03 0.  1.
         11   -1    0    0    0    0 -0.00000000000E+00 -0.00000000000E+00 -0.45593999997E+02  0.45594000000E+02  0.51100000000E-03 0. -1.
         23    2    1    2    0    0  0.00000000000E+00  0.71054273576E-14  0.17763568394E-14  0.91188000000E+02  0.91188000000E+02 0.  0.
    9900012    2    3    3    0    0  0.68327939165E+01 -0.36045668091E+02  0.31305669084E+01  0.54367113128E+02  0.40000065998E+02 0.  0.
         12    1    3    3    0    0 -0.68327939165E+01  0.36045668091E+02 -0.31305669084E+01  0.36820886872E+02  0.00000000000E+00 0. -1.
         11    1    4    4    0    0 -0.44546071942E+01 -0.14696081211E+02 -0.15027380786E+02  0.21485820947E+02  0.51100000000E-03 0. -1.
        -11    1    4    4    0    0  0.42510737677E+01 -0.36369385980E+01 -0.11932151020E+01  0.57203770055E+01  0.51100000000E-03 0.  1.
        -12    1    4    4    0    0  0.70363273429E+01 -0.17712648282E+02  0.19351162796E+02  0.27160915176E+02  0.00000000000E+00 0.  1.
</event>
<event>
 8    1  0.1212194E-006  0.9118800E+02  0.7816164E-02  0.1184000E+00
        -11   -1    0    0    0    0  0.00000000000E+00  0.00000000000E+00  0.45593999997E+02  0.45594000000E+02  0.51100000000E-03 0.  1.
         11   -1    0    0    0    0 -0.00000000000E+00 -0.00000000000E+00 -0.45593999997E+02  0.45594000000E+02  0.51100000000E-03 0. -1.
         23    2    1    2    0    0  0.22204460493E-15 -0.71054273576E-14  0.17763568394E-14  0.91188000000E+02  0.91188000000E+02 0.  0.
    9900012    2    3    3    0    0  0.18984127672E+01 -0.35333010007E+02  0.10185925890E+02  0.54367100317E+02  0.40000036793E+02 0.  0.
         12    1    3    3    0    0 -0.18984127672E+01  0.35333010007E+02 -0.10185925890E+02  0.36820899683E+02  0.00000000000E+00 0. -1.
         11    1    4    4    0    0  0.80710586433E+00 -0.22325611096E+02  0.53262625800E+01  0.22966353738E+02  0.51100000000E-03 0.  1.
        -11    1    4    4    0    0  0.12251001635E+02 -0.12195561803E+02  0.89766730654E+01  0.19478178260E+02  0.51100000000E-03 0. -1.
         12    1    4    4    0    0 -0.11159694732E+02 -0.81183710887E+00 -0.41170097556E+01  0.11922568319E+02  0.00000000000E+00 0. -1.
</event>
<event>
 8    1  0.1212194E-006  0.9118800E+02  0.7816164E-02  0.1184000E+00
        -11   -1    0    0    0    0  0.00000000000E+00  0.00000000000E+00  0.45593999997E+02  0.45594000000E+02  0.51100000000E-03 0.  1.
         11   -1    0    0    0    0 -0.00000000000E+00 -0.00000000000E+00 -0.45593999997E+02  0.45594000000E+02  0.51100000000E-03 0. -1.
         23    2    1    2    0    0  0.00000000000E+00 -0.35527136788E-14 -0.35527136788E-14  0.91188000000E+02  0.91188000000E+02 0.  0.
    9900012    2    3    3    0    0  0.21973251192E+01 -0.20940902518E+02  0.30206460437E+02  0.54367083552E+02  0.39999998573E+02 0.  0.
         12    1    3    3    0    0 -0.21973251192E+01  0.20940902518E+02 -0.30206460437E+02  0.36820916448E+02  0.00000000000E+00 0. -1.
         11    1    4    4    0    0 -0.11647780581E+02  0.55989437409E-01  0.23670869317E+02  0.26381508330E+02  0.51100000000E-03 0. -1.
        -11    1    4    4    0    0  0.21620617657E+01 -0.11721178459E+02  0.61082828989E+00  0.11934556841E+02  0.51100000000E-03 0.  1.
        -12    1    4    4    0    0  0.11683043934E+02 -0.92757134969E+01  0.59247628305E+01  0.16051018380E+02  0.00000000000E+00 0.  1.
</event>
<event>
 8    1  0.1212194E-006  0.9118800E+02  0.7816164E-02  0.1184000E+00
        -11   -1    0    0    0    0  0.00000000000E+00  0.00000000000E+00  0.45593999997E+02  0.45594000000E+02  0.51100000000E-03 0. -1.
         11   -1    0    0    0    0 -0.00000000000E+00 -0.00000000000E+00 -0.45593999997E+02  0.45594000000E+02  0.51100000000E-03 0.  1.
         23    2    1    2    0    0  0.17763568394E-14 -0.71054273576E-14 -0.17763568394E-14  0.91188000000E+02  0.91188000000E+02 0.  0.
    9900012    2    3    3    0    0  0.51076856879E+01 -0.33408169044E+02 -0.14614594761E+02  0.54367073993E+02  0.39999976782E+02 0.  0.
         12    1    3    3    0    0 -0.51076856879E+01  0.33408169044E+02  0.14614594761E+02  0.36820926007E+02  0.00000000000E+00 0. -1.
         11    1    4    4    0    0 -0.52070571617E+01  0.10090235746E+01 -0.10296171654E+02  0.11581999994E+02  0.51100000000E-03 0. -1.
        -11    1    4    4    0    0 -0.18343961222E+01  0.26580928788E+01 -0.17795557615E+01  0.36874497766E+01  0.51100000000E-03 0.  1.
        -12    1    4    4    0    0  0.12149138972E+02 -0.37075285497E+02 -0.25388673453E+01  0.39097624223E+02  0.00000000000E+00 0.  1.
</event>
<event>
 8    1  0.1212194E-006  0.9118800E+02  0.7816164E-02  0.1184000E+00
        -11   -1    0    0    0    0  0.00000000000E+00  0.00000000000E+00  0.45593999997E+02  0.45594000000E+02  0.51100000000E-03 0.  1.
         11   -1    0    0    0    0 -0.00000000000E+00 -0.00000000000E+00 -0.45593999997E+02  0.45594000000E+02  0.51100000000E-03 0. -1.
         23    2    1    2    0    0  0.00000000000E+00  0.00000000000E+00  0.00000000000E+00  0.91188000000E+02  0.91188000000E+02 0.  0.
    9900012    2    3    3    0    0 -0.17556685949E+02 -0.18565428560E+02 -0.26511645352E+02  0.54367086127E+02  0.40000004445E+02 0.  0.
        -12    1    3    3    0    0  0.17556685949E+02  0.18565428560E+02  0.26511645352E+02  0.36820913873E+02  0.00000000000E+00 0.  1.
         11    1    4    4    0    0  0.67237560107E+01 -0.13447826592E+02 -0.94491794801E+01  0.17757813155E+02  0.51100000000E-03 0. -1.
        -11    1    4    4    0    0 -0.16732587791E+02 -0.12007349544E+02 -0.16473227780E+02  0.26372773291E+02  0.51100000000E-03 0.  1.
        -12    1    4    4    0    0 -0.75478541681E+01  0.68897475761E+01 -0.58923809203E+00  0.10236499682E+02  0.00000000000E+00 0.  1.
</event>
<event>
 8    1  0.1212194E-006  0.9118800E+02  0.7816164E-02  0.1184000E+00
        -11   -1    0    0    0    0  0.00000000000E+00  0.00000000000E+00  0.45593999997E+02  0.45594000000E+02  0.51100000000E-03 0. -1.
         11   -1    0    0    0    0 -0.00000000000E+00 -0.00000000000E+00 -0.45593999997E+02  0.45594000000E+02  0.51100000000E-03 0.  1.
         23    2    1    2    0    0  0.00000000000E+00 -0.35527136788E-14  0.53290705182E-14  0.91188000000E+02  0.91188000000E+02 0.  0.
    9900012    2    3    3    0    0 -0.25575156938E+02  0.24016805870E+02 -0.11175229575E+02  0.54367063393E+02  0.39999952616E+02 0.  0.
         12    1    3    3    0    0  0.25575156938E+02 -0.24016805870E+02  0.11175229575E+02  0.36820936607E+02  0.00000000000E+00 0. -1.
         11    1    4    4    0    0 -0.10274038606E+01  0.24315315804E+00  0.78307573739E+01  0.79016101816E+01  0.51100000000E-03 0. -1.
        -11    1    4    4    0    0 -0.75298089451E+01  0.24214287856E+02 -0.10689665112E+02  0.27519060660E+02  0.51100000000E-03 0.  1.
         12    1    4    4    0    0 -0.17017944132E+02 -0.44063514388E+00 -0.83163218364E+01  0.18946392551E+02  0.00000000000E+00 0. -1.
</event>
<event>
 8    1  0.1212194E-006  0.9118800E+02  0.7816164E-02  0.1184000E+00
        -11   -1    0    0    0    0  0.00000000000E+00  0.00000000000E+00  0.45593999997E+02  0.45594000000E+02  0.51100000000E-03 0.  1.
         11   -1    0    0    0    0 -0.00000000000E+00 -0.00000000000E+00 -0.45593999997E+02  0.45594000000E+02  0.51100000000E-03 0. -1.
         23    2    1    2    0    0 -0.17763568394E-14  0.00000000000E+00  0.17763568394E-14  0.91188000000E+02  0.91188000000E+02 0.  0.
    9900012    2    3    3    0    0  0.13428307486E+02  0.31552632957E+02 -0.13412392802E+02  0.54367077020E+02  0.39999983682E+02 0.  0.
        -12    1    3    3    0    0 -0.13428307486E+02 -0.31552632957E+02  0.13412392802E+02  0.36820922980E+02  0.00000000000E+00 0.  1.
         11    1    4    4    0    0  0.17317821896E+02  0.22246752045E+02  0.31470858930E+01  0.28367747208E+02  0.51100000000E-03 0. -1.
        -11    1    4    4    0    0 -0.29703291154E+01  0.28222052597E+01  0.31898820820E+01  0.51925952606E+01  0.51100000000E-03 0.  1.
         12    1    4    4    0    0 -0.91918529516E+00  0.64836756523E+01 -0.19749360777E+02  0.20806734551E+02  0.00000000000E+00 0. -1.
</event>
<event>
 8    1  0.1212194E-006  0.9118800E+02  0.7816164E-02  0.1184000E+00
        -11   -1    0    0    0    0  0.00000000000E+00  0.00000000000E+00  0.45593999997E+02  0.45594000000E+02  0.51100000000E-03 0.  1.
         11   -1    0    0    0    0 -0.00000000000E+00 -0.00000000000E+00 -0.45593999997E+02  0.45594000000E+02  0.51100000000E-03 0. -1.
         23    2    1    2    0    0 -0.71054273576E-14  0.88817841970E-15 -0.17763568394E-14  0.91188000000E+02  0.91188000000E+02 0.  0.
    9900012    2    3    3    0    0 -0.34529137402E+02  0.64271194547E+01 -0.11054917039E+02  0.54367076804E+02  0.39999983191E+02 0.  0.
        -12    1    3    3    0    0  0.34529137402E+02 -0.64271194547E+01  0.11054917039E+02  0.36820923196E+02  0.00000000000E+00 0.  1.
         11    1    4    4    0    0 -0.13532713187E+02 -0.33430338185E+01  0.98187345662E+01  0.17050447209E+02  0.51100000000E-03 0. -1.
        -11    1    4    4    0    0 -0.94687515988E+01  0.15407186682E+02 -0.12802970005E+02  0.22157497591E+02  0.51100000000E-03 0.  1.
         12    1    4    4    0    0 -0.11527672617E+02 -0.56370334087E+01 -0.80706816007E+01  0.15159132004E+02  0.00000000000E+00 0. -1.
</event>
<event>
 8    1  0.1212194E-006  0.9118800E+02  0.7816164E-02  0.1184000E+00
        -11   -1    0    0    0    0  0.00000000000E+00  0.00000000000E+00  0.45593999997E+02  0.45594000000E+02  0.51100000000E-03 0.  1.
         11   -1    0    0    0    0 -0.00000000000E+00 -0.00000000000E+00 -0.45593999997E+02  0.45594000000E+02  0.51100000000E-03 0. -1.
         23    2    1    2    0    0  0.00000000000E+00  0.22204460493E-14  0.00000000000E+00  0.91188000000E+02  0.91188000000E+02 0.  0.
    9900012    2    3    3    0    0  0.25571655252E+02 -0.35725708857E+01  0.26250840871E+02  0.54367089344E+02  0.40000011778E+02 0.  0.
         12    1    3    3    0    0 -0.25571655252E+02  0.35725708857E+01 -0.26250840871E+02  0.36820910656E+02  0.00000000000E+00 0. -1.
         11    1    4    4    0    0  0.99684635086E+01  0.93314547554E+01  0.11131125872E+01  0.13699829651E+02  0.51100000000E-03 0. -1.
        -11    1    4    4    0    0  0.16611769318E+02 -0.17442429867E+02  0.26511250095E+02  0.35819486616E+02  0.51100000000E-03 0.  1.
         12    1    4    4    0    0 -0.10085775747E+01  0.45384042262E+01 -0.13735218112E+01  0.48477730774E+01  0.00000000000E+00 0. -1.
</event>
<event>
 8    1  0.1212194E-006  0.9118800E+02  0.7816164E-02  0.1184000E+00
        -11   -1    0    0    0    0  0.00000000000E+00  0.00000000000E+00  0.45593999997E+02  0.45594000000E+02  0.51100000000E-03 0.  1.
         11   -1    0    0    0    0 -0.00000000000E+00 -0.00000000000E+00 -0.45593999997E+02  0.45594000000E+02  0.51100000000E-03 0. -1.
         23    2    1    2    0    0  0.17763568394E-14 -0.35527136788E-14  0.00000000000E+00  0.91188000000E+02  0.91188000000E+02 0.  0.
    9900012    2    3    3    0    0 -0.13382575880E+02  0.23206430934E+02  0.25261612161E+02  0.54367070858E+02  0.39999969634E+02 0.  0.
         12    1    3    3    0    0  0.13382575880E+02 -0.23206430934E+02 -0.25261612161E+02  0.36820929142E+02  0.00000000000E+00 0. -1.
         11    1    4    4    0    0  0.10412576055E+02  0.17876671569E+01 -0.41090287241E+00  0.10572905721E+02  0.51100000000E-03 0. -1.
        -11    1    4    4    0    0 -0.21065547840E+02  0.21880031845E+02  0.17252019379E+02  0.34930291615E+02  0.51100000000E-03 0.  1.
         12    1    4    4    0    0 -0.27296040949E+01 -0.46126806734E+00  0.84204956543E+01  0.88638735217E+01  0.00000000000E+00 0. -1.
</event>
<event>
 8    1  0.1212194E-006  0.9118800E+02  0.7816164E-02  0.1184000E+00
        -11   -1    0    0    0    0  0.00000000000E+00  0.00000000000E+00  0.45593999997E+02  0.45594000000E+02  0.51100000000E-03 0. -1.
         11   -1    0    0    0    0 -0.00000000000E+00 -0.00000000000E+00 -0.45593999997E+02  0.45594000000E+02  0.51100000000E-03 0.  1.
         23    2    1    2    0    0  0.00000000000E+00 -0.22204460493E-15  0.00000000000E+00  0.91188000000E+02  0.91188000000E+02 0.  0.
    9900012    2    3    3    0    0  0.13353213355E+02  0.14528099929E+01  0.34283498756E+02  0.54367119364E+02  0.40000080215E+02 0.  0.
        -12    1    3    3    0    0 -0.13353213355E+02 -0.14528099929E+01 -0.34283498756E+02  0.36820880636E+02  0.00000000000E+00 0.  1.
         11    1    4    4    0    0  0.24065456672E+01 -0.64797212080E+01  0.14990643981E+02  0.16507503027E+02  0.51100000000E-03 0. -1.
        -11    1    4    4    0    0  0.10509494677E+02 -0.98480540509E+01  0.11548309944E+02  0.18460690934E+02  0.51100000000E-03 0.  1.
        -12    1    4    4    0    0  0.43717301152E+00  0.17780585252E+02  0.77445448321E+01  0.19398925403E+02  0.00000000000E+00 0.  1.
</event>
<event>
 8    1  0.1212194E-006  0.9118800E+02  0.7816164E-02  0.1184000E+00
        -11   -1    0    0    0    0  0.00000000000E+00  0.00000000000E+00  0.45593999997E+02  0.45594000000E+02  0.51100000000E-03 0. -1.
         11   -1    0    0    0    0 -0.00000000000E+00 -0.00000000000E+00 -0.45593999997E+02  0.45594000000E+02  0.51100000000E-03 0.  1.
         23    2    1    2    0    0  0.00000000000E+00  0.00000000000E+00 -0.35527136788E-14  0.91188000000E+02  0.91188000000E+02 0.  0.
    9900012    2    3    3    0    0  0.62148287411E+01 -0.29502639041E+02  0.21136468972E+02  0.54367080304E+02  0.39999991169E+02 0.  0.
        -12    1    3    3    0    0 -0.62148287411E+01  0.29502639041E+02 -0.21136468972E+02  0.36820919696E+02  0.00000000000E+00 0.  1.
         11    1    4    4    0    0  0.11235543111E+02 -0.29182850567E+02  0.22626456562E+02  0.38598351429E+02  0.51100000000E-03 0. -1.
        -11    1    4    4    0    0 -0.53385334040E+01 -0.64299908913E+01 -0.38620716314E+01  0.92065367710E+01  0.51100000000E-03 0.  1.
        -12    1    4    4    0    0  0.31781903387E+00  0.61102024169E+01  0.23720840413E+01  0.65621921042E+01  0.00000000000E+00 0.  1.
</event>
<event>
 8    1  0.1212194E-006  0.9118800E+02  0.7816164E-02  0.1184000E+00
        -11   -1    0    0    0    0  0.00000000000E+00  0.00000000000E+00  0.45593999997E+02  0.45594000000E+02  0.51100000000E-03 0.  1.
         11   -1    0    0    0    0 -0.00000000000E+00 -0.00000000000E+00 -0.45593999997E+02  0.45594000000E+02  0.51100000000E-03 0. -1.
         23    2    1    2    0    0  0.00000000000E+00  0.00000000000E+00 -0.35527136788E-14  0.91188000000E+02  0.91188000000E+02 0.  0.
    9900012    2    3    3    0    0  0.20908484511E+02  0.28022904442E+02 -0.11546936451E+02  0.54367086930E+02  0.40000006275E+02 0.  0.
        -12    1    3    3    0    0 -0.20908484511E+02 -0.28022904442E+02  0.11546936451E+02  0.36820913070E+02  0.00000000000E+00 0.  1.
         11    1    4    4    0    0  0.15020802410E+01 -0.19074509486E+01 -0.55770001082E+01  0.60825606976E+01  0.51100000000E-03 0. -1.
        -11    1    4    4    0    0  0.16735621981E+02  0.26619224489E+02  0.90130678657E+01  0.32709318979E+02  0.51100000000E-03 0.  1.
        -12    1    4    4    0    0  0.26707822886E+01  0.33111309017E+01 -0.14983004208E+02  0.15575207253E+02  0.00000000000E+00 0.  1.
</event>
<event>
 8    1  0.1212194E-006  0.9118800E+02  0.7816164E-02  0.1184000E+00
        -11   -1    0    0    0    0  0.00000000000E+00  0.00000000000E+00  0.45593999997E+02  0.45594000000E+02  0.51100000000E-03 0.  1.
         11   -1    0    0    0    0 -0.00000000000E+00 -0.00000000000E+00 -0.45593999997E+02  0.45594000000E+02  0.51100000000E-03 0. -1.
         23    2    1    2    0    0 -0.88817841970E-15 -0.35527136788E-14 -0.35527136788E-14  0.91188000000E+02  0.91188000000E+02 0.  0.
    9900012    2    3    3    0    0  0.30435846484E+01 -0.21173848002E+02 -0.29969717345E+02  0.54367092835E+02  0.40000019736E+02 0.  0.
        -12    1    3    3    0    0 -0.30435846484E+01  0.21173848002E+02  0.29969717345E+02  0.36820907165E+02  0.00000000000E+00 0.  1.
         11    1    4    4    0    0 -0.21884093835E+00 -0.19712808739E+02 -0.26745940152E+02  0.33226315394E+02  0.51100000000E-03 0. -1.
        -11    1    4    4    0    0 -0.68688145418E+01 -0.66045092446E+01 -0.16340770167E+01  0.96680072161E+01  0.51100000000E-03 0.  1.
        -12    1    4    4    0    0  0.10131240129E+02  0.51434699816E+01 -0.15897001758E+01  0.11472770225E+02  0.00000000000E+00 0.  1.
</event>
<event>
 8    1  0.1212194E-006  0.9118800E+02  0.7816164E-02  0.1184000E+00
        -11   -1    0    0    0    0  0.00000000000E+00  0.00000000000E+00  0.45593999997E+02  0.45594000000E+02  0.51100000000E-03 0. -1.
         11   -1    0    0    0    0 -0.00000000000E+00 -0.00000000000E+00 -0.45593999997E+02  0.45594000000E+02  0.51100000000E-03 0.  1.
         23    2    1    2    0    0  0.00000000000E+00  0.00000000000E+00 -0.71054273576E-14  0.91188000000E+02  0.91188000000E+02 0.  0.
    9900012    2    3    3    0    0 -0.36172039505E+01 -0.10790475157E+02 -0.35018020428E+02  0.54367078322E+02  0.39999986651E+02 0.  0.
         12    1    3    3    0    0  0.36172039505E+01  0.10790475157E+02  0.35018020428E+02  0.36820921678E+02  0.00000000000E+00 0. -1.
         11    1    4    4    0    0 -0.69243912587E+01 -0.22513540009E+01  0.51341448821E+01  0.89092779209E+01  0.51100000000E-03 0. -1.
        -11    1    4    4    0    0 -0.60242536221E+00 -0.13569401110E+02 -0.33950777743E+02  0.36567018917E+02  0.51100000000E-03 0.  1.
        -12    1    4    4    0    0  0.39096126703E+01  0.50302799546E+01 -0.62013875667E+01  0.88907814846E+01  0.00000000000E+00 0.  1.
</event>
<event>
 8    1  0.1212194E-006  0.9118800E+02  0.7816164E-02  0.1184000E+00
        -11   -1    0    0    0    0  0.00000000000E+00  0.00000000000E+00  0.45593999997E+02  0.45594000000E+02  0.51100000000E-03 0.  1.
         11   -1    0    0    0    0 -0.00000000000E+00 -0.00000000000E+00 -0.45593999997E+02  0.45594000000E+02  0.51100000000E-03 0. -1.
         23    2    1    2    0    0  0.00000000000E+00  0.00000000000E+00  0.00000000000E+00  0.91188000000E+02  0.91188000000E+02 0.  0.
    9900012    2    3    3    0    0  0.42927893653E+01 -0.17288193242E+02  0.32225334008E+02  0.54367057344E+02  0.39999938828E+02 0.  0.
         12    1    3    3    0    0 -0.42927893653E+01  0.17288193242E+02 -0.32225334008E+02  0.36820942656E+02  0.00000000000E+00 0. -1.
         11    1    4    4    0    0  0.15004094018E+02 -0.13683727240E+02  0.18570497662E+02  0.27517823536E+02  0.51100000000E-03 0. -1.
        -11    1    4    4    0    0 -0.55721787418E+01 -0.11717887712E+02  0.49504787758E+01  0.13887595498E+02  0.51100000000E-03 0.  1.
         12    1    4    4    0    0 -0.51391259106E+01  0.81134217099E+01  0.87043575708E+01  0.12961638310E+02  0.00000000000E+00 0. -1.
</event>
<event>
 8    1  0.1212194E-006  0.9118800E+02  0.7816164E-02  0.1184000E+00
        -11   -1    0    0    0    0  0.00000000000E+00  0.00000000000E+00  0.45593999997E+02  0.45594000000E+02  0.51100000000E-03 0.  1.
         11   -1    0    0    0    0 -0.00000000000E+00 -0.00000000000E+00 -0.45593999997E+02  0.45594000000E+02  0.51100000000E-03 0. -1.
         23    2    1    2    0    0  0.00000000000E+00  0.00000000000E+00  0.17763568394E-14  0.91188000000E+02  0.91188000000E+02 0.  0.
    9900012    2    3    3    0    0  0.30467852845E+02 -0.15135949200E+02  0.14085206913E+02  0.54367081096E+02  0.39999992974E+02 0.  0.
        -12    1    3    3    0    0 -0.30467852845E+02  0.15135949200E+02 -0.14085206913E+02  0.36820918904E+02  0.00000000000E+00 0.  1.
         11    1    4    4    0    0  0.50258970062E+01 -0.66447847434E+01 -0.27832812157E+01  0.87840457416E+01  0.51100000000E-03 0. -1.
        -11    1    4    4    0    0  0.16511745338E+02 -0.10434647427E+02 -0.64239473508E+01  0.20561777667E+02  0.51100000000E-03 0.  1.
        -12    1    4    4    0    0  0.89302105016E+01  0.19434829702E+01  0.23292435479E+02  0.25021257687E+02  0.00000000000E+00 0.  1.
</event>
<event>
 8    1  0.1212194E-006  0.9118800E+02  0.7816164E-02  0.1184000E+00
        -11   -1    0    0    0    0  0.00000000000E+00  0.00000000000E+00  0.45593999997E+02  0.45594000000E+02  0.51100000000E-03 0.  1.
         11   -1    0    0    0    0 -0.00000000000E+00 -0.00000000000E+00 -0.45593999997E+02  0.45594000000E+02  0.51100000000E-03 0. -1.
         23    2    1    2    0    0  0.88817841970E-15  0.00000000000E+00 -0.35527136788E-14  0.91188000000E+02  0.91188000000E+02 0.  0.
    9900012    2    3    3    0    0 -0.45262307768E+01  0.24582809731E+02 -0.27036609712E+02  0.54367087952E+02  0.40000008605E+02 0.  0.
        -12    1    3    3    0    0  0.45262307768E+01 -0.24582809731E+02  0.27036609712E+02  0.36820912048E+02  0.00000000000E+00 0.  1.
         11    1    4    4    0    0 -0.14064040456E+02  0.10215848586E+02 -0.24800016051E+02  0.30285336265E+02  0.51100000000E-03 0. -1.
        -11    1    4    4    0    0  0.60754964237E+01 -0.24238864774E+01  0.10516163537E+01  0.66251626143E+01  0.51100000000E-03 0.  1.
        -12    1    4    4    0    0  0.34623132552E+01  0.16790847623E+02 -0.32882100146E+01  0.17456589073E+02  0.00000000000E+00 0.  1.
</event>
<event>
 8    1  0.1212194E-006  0.9118800E+02  0.7816164E-02  0.1184000E+00
        -11   -1    0    0    0    0  0.00000000000E+00  0.00000000000E+00  0.45593999997E+02  0.45594000000E+02  0.51100000000E-03 0.  1.
         11   -1    0    0    0    0 -0.00000000000E+00 -0.00000000000E+00 -0.45593999997E+02  0.45594000000E+02  0.51100000000E-03 0. -1.
         23    2    1    2    0    0  0.00000000000E+00  0.00000000000E+00  0.00000000000E+00  0.91188000000E+02  0.91188000000E+02 0.  0.
    9900012    2    3    3    0    0  0.15459704546E+02  0.19458259146E+02  0.27168962465E+02  0.54367097851E+02  0.40000031172E+02 0.  0.
         12    1    3    3    0    0 -0.15459704546E+02 -0.19458259146E+02 -0.27168962465E+02  0.36820902149E+02  0.00000000000E+00 0. -1.
         11    1    4    4    0    0  0.60807416620E+00 -0.70380367303E+01  0.66240864141E+01  0.96841228973E+01  0.51100000000E-03 0. -1.
        -11    1    4    4    0    0  0.21478887211E+02  0.24394105205E+02  0.15033897837E+02  0.35811074391E+02  0.51100000000E-03 0.  1.
        -12    1    4    4    0    0 -0.66272568319E+01  0.21021906711E+01  0.55109782135E+01  0.88719005632E+01  0.00000000000E+00 0.  1.
</event>
<event>
 8    1  0.1212194E-006  0.9118800E+02  0.7816164E-02  0.1184000E+00
        -11   -1    0    0    0    0  0.00000000000E+00  0.00000000000E+00  0.45593999997E+02  0.45594000000E+02  0.51100000000E-03 0.  1.
         11   -1    0    0    0    0 -0.00000000000E+00 -0.00000000000E+00 -0.45593999997E+02  0.45594000000E+02  0.51100000000E-03 0. -1.
         23    2    1    2    0    0  0.00000000000E+00  0.88817841970E-15  0.88817841970E-15  0.91188000000E+02  0.91188000000E+02 0.  0.
    9900012    2    3    3    0    0  0.36138352852E+02 -0.19389150289E+01 -0.67849139277E+01  0.54367149992E+02  0.40000150035E+02 0.  0.
        -12    1    3    3    0    0 -0.36138352852E+02  0.19389150289E+01  0.67849139277E+01  0.36820850008E+02  0.00000000000E+00 0.  1.
         11    1    4    4    0    0  0.18416016931E+02  0.17439695121E+02 -0.43528602541E+01  0.25734024912E+02  0.51100000000E-03 0. -1.
        -11    1    4    4    0    0  0.19177744861E+02 -0.16726410899E+02 -0.27300225629E+01  0.25593197201E+02  0.51100000000E-03 0.  1.
         12    1    4    4    0    0 -0.14554089396E+01 -0.26521992507E+01  0.29796888935E+00  0.30399278784E+01  0.00000000000E+00 0. -1.
</event>
<event>
 8    1  0.1212194E-006  0.9118800E+02  0.7816164E-02  0.1184000E+00
        -11   -1    0    0    0    0  0.00000000000E+00  0.00000000000E+00  0.45593999997E+02  0.45594000000E+02  0.51100000000E-03 0.  1.
         11   -1    0    0    0    0 -0.00000000000E+00 -0.00000000000E+00 -0.45593999997E+02  0.45594000000E+02  0.51100000000E-03 0. -1.
         23    2    1    2    0    0  0.00000000000E+00  0.00000000000E+00  0.00000000000E+00  0.91188000000E+02  0.91188000000E+02 0.  0.
    9900012    2    3    3    0    0 -0.31488347178E+02 -0.74159396895E+01 -0.17585902729E+02  0.54367134390E+02  0.40000114468E+02 0.  0.
        -12    1    3    3    0    0  0.31488347178E+02  0.74159396895E+01  0.17585902729E+02  0.36820865610E+02  0.00000000000E+00 0.  1.
         11    1    4    4    0    0 -0.10211749407E+02 -0.20293271511E+02 -0.17659277349E+02  0.28774064212E+02  0.51100000000E-03 0. -1.
        -11    1    4    4    0    0 -0.30495698908E+01  0.87080330024E+00  0.18891927040E+01  0.36915070419E+01  0.51100000000E-03 0.  1.
        -12    1    4    4    0    0 -0.18227027880E+02  0.12006528521E+02 -0.18158180842E+01  0.21901563136E+02  0.00000000000E+00 0.  1.
</event>
<event>
 8    1  0.1212194E-006  0.9118800E+02  0.7816164E-02  0.1184000E+00
        -11   -1    0    0    0    0  0.00000000000E+00  0.00000000000E+00  0.45593999997E+02  0.45594000000E+02  0.51100000000E-03 0.  1.
         11   -1    0    0    0    0 -0.00000000000E+00 -0.00000000000E+00 -0.45593999997E+02  0.45594000000E+02  0.51100000000E-03 0. -1.
         23    2    1    2    0    0  0.00000000000E+00  0.17763568394E-14  0.00000000000E+00  0.91188000000E+02  0.91188000000E+02 0.  0.
    9900012    2    3    3    0    0  0.27799832515E+02  0.94095903092E+01 -0.22235282350E+02  0.54367097528E+02  0.40000030436E+02 0.  0.
        -12    1    3    3    0    0 -0.27799832515E+02 -0.94095903092E+01  0.22235282350E+02  0.36820902472E+02  0.00000000000E+00 0.  1.
         11    1    4    4    0    0  0.21100347648E+02  0.20587010624E+02 -0.14338477213E+02  0.32781726714E+02  0.51100000000E-03 0. -1.
        -11    1    4    4    0    0  0.64513806194E+01 -0.14956053152E+02 -0.60872931784E+01  0.17388472512E+02  0.51100000000E-03 0.  1.
        -12    1    4    4    0    0  0.24810424812E+00  0.37786328375E+01 -0.18095119585E+01  0.41968983031E+01  0.00000000000E+00 0.  1.
</event>
<event>
 8    1  0.1212194E-006  0.9118800E+02  0.7816164E-02  0.1184000E+00
        -11   -1    0    0    0    0  0.00000000000E+00  0.00000000000E+00  0.45593999997E+02  0.45594000000E+02  0.51100000000E-03 0.  1.
         11   -1    0    0    0    0 -0.00000000000E+00 -0.00000000000E+00 -0.45593999997E+02  0.45594000000E+02  0.51100000000E-03 0. -1.
         23    2    1    2    0    0 -0.71054273576E-14  0.15543122345E-14  0.00000000000E+00  0.91188000000E+02  0.91188000000E+02 0.  0.
    9900012    2    3    3    0    0  0.34760535534E+02 -0.17447082517E+01 -0.12018381608E+02  0.54367077497E+02  0.39999984769E+02 0.  0.
        -12    1    3    3    0    0 -0.34760535534E+02  0.17447082517E+01  0.12018381608E+02  0.36820922503E+02  0.00000000000E+00 0.  1.
         11    1    4    4    0    0  0.14402897089E+02 -0.19675559506E+02 -0.32829187905E+01  0.24603833898E+02  0.51100000000E-03 0. -1.
        -11    1    4    4    0    0  0.16874883263E+02  0.96115177143E+01 -0.63882702541E+01  0.20443897745E+02  0.51100000000E-03 0.  1.
        -12    1    4    4    0    0  0.34827551829E+01  0.83193335401E+01 -0.23471925637E+01  0.93193458540E+01  0.00000000000E+00 0.  1.
</event>
<event>
 8    1  0.1212194E-006  0.9118800E+02  0.7816164E-02  0.1184000E+00
        -11   -1    0    0    0    0  0.00000000000E+00  0.00000000000E+00  0.45593999997E+02  0.45594000000E+02  0.51100000000E-03 0. -1.
         11   -1    0    0    0    0 -0.00000000000E+00 -0.00000000000E+00 -0.45593999997E+02  0.45594000000E+02  0.51100000000E-03 0.  1.
         23    2    1    2    0    0  0.35527136788E-14  0.00000000000E+00  0.83266726847E-16  0.91188000000E+02  0.91188000000E+02 0.  0.
    9900012    2    3    3    0    0  0.18429566550E+02  0.31876031606E+02 -0.22292151825E+00  0.54367081922E+02  0.39999994857E+02 0.  0.
         12    1    3    3    0    0 -0.18429566550E+02 -0.31876031606E+02  0.22292151825E+00  0.36820918078E+02  0.00000000000E+00 0. -1.
         11    1    4    4    0    0  0.46821757749E+01  0.14467913163E+02  0.16231979198E+02  0.22242311710E+02  0.51100000000E-03 0. -1.
        -11    1    4    4    0    0  0.32038992846E+01  0.15096191524E+02 -0.46251582700E+01  0.16110619431E+02  0.51100000000E-03 0.  1.
         12    1    4    4    0    0  0.10543491490E+02  0.23119269177E+01 -0.11829742446E+02  0.16014150780E+02  0.00000000000E+00 0. -1.
</event>
<event>
 8    1  0.1212194E-006  0.9118800E+02  0.7816164E-02  0.1184000E+00
        -11   -1    0    0    0    0  0.00000000000E+00  0.00000000000E+00  0.45593999997E+02  0.45594000000E+02  0.51100000000E-03 0. -1.
         11   -1    0    0    0    0 -0.00000000000E+00 -0.00000000000E+00 -0.45593999997E+02  0.45594000000E+02  0.51100000000E-03 0.  1.
         23    2    1    2    0    0  0.00000000000E+00  0.00000000000E+00 -0.19428902931E-14  0.91188000000E+02  0.91188000000E+02 0.  0.
    9900012    2    3    3    0    0 -0.35203202146E+02  0.10790612251E+02 -0.28211079167E+00  0.54367050249E+02  0.39999922652E+02 0.  0.
         12    1    3    3    0    0  0.35203202146E+02 -0.10790612251E+02  0.28211079167E+00  0.36820949751E+02  0.00000000000E+00 0. -1.
         11    1    4    4    0    0  0.82384832516E+00  0.15027602106E+01  0.18231798566E+01  0.25021989058E+01  0.51100000000E-03 0. -1.
        -11    1    4    4    0    0 -0.13865599621E+02 -0.46271772859E+01  0.14727880564E+02  0.20750327435E+02  0.51100000000E-03 0.  1.
        -12    1    4    4    0    0 -0.22161450851E+02  0.13915029326E+02 -0.16833171213E+02  0.31114523908E+02  0.00000000000E+00 0.  1.
</event>
<event>
 8    1  0.1212194E-006  0.9118800E+02  0.7816164E-02  0.1184000E+00
        -11   -1    0    0    0    0  0.00000000000E+00  0.00000000000E+00  0.45593999997E+02  0.45594000000E+02  0.51100000000E-03 0. -1.
         11   -1    0    0    0    0 -0.00000000000E+00 -0.00000000000E+00 -0.45593999997E+02  0.45594000000E+02  0.51100000000E-03 0.  1.
         23    2    1    2    0    0 -0.61062266354E-15  0.00000000000E+00  0.71054273576E-14  0.91188000000E+02  0.91188000000E+02 0.  0.
    9900012    2    3    3    0    0 -0.45534040470E+00  0.16159501188E+02 -0.33082372636E+02  0.54367079415E+02  0.39999989142E+02 0.  0.
         12    1    3    3    0    0  0.45534040470E+00 -0.16159501188E+02  0.33082372636E+02  0.36820920585E+02  0.00000000000E+00 0. -1.
         11    1    4    4    0    0 -0.53551506910E+01  0.11228480663E+01  0.92924197673E+00  0.55499475327E+01  0.51100000000E-03 0. -1.
        -11    1    4    4    0    0  0.12603777021E+02  0.21455174309E+02 -0.25933844967E+02  0.35940840486E+02  0.51100000000E-03 0.  1.
        -12    1    4    4    0    0 -0.77039667349E+01 -0.64185211866E+01 -0.80777696455E+01  0.12876291396E+02  0.00000000000E+00 0.  1.
</event>
<event>
 8    1  0.1212194E-006  0.9118800E+02  0.7816164E-02  0.1184000E+00
        -11   -1    0    0    0    0  0.00000000000E+00  0.00000000000E+00  0.45593999997E+02  0.45594000000E+02  0.51100000000E-03 0.  1.
         11   -1    0    0    0    0 -0.00000000000E+00 -0.00000000000E+00 -0.45593999997E+02  0.45594000000E+02  0.51100000000E-03 0. -1.
         23    2    1    2    0    0  0.35527136788E-14  0.13322676296E-14  0.00000000000E+00  0.91188000000E+02  0.91188000000E+02 0.  0.
    9900012    2    3    3    0    0 -0.16686738981E+02 -0.24845323779E+01 -0.32728587162E+02  0.54367074202E+02  0.39999977259E+02 0.  0.
        -12    1    3    3    0    0  0.16686738981E+02  0.24845323779E+01  0.32728587162E+02  0.36820925798E+02  0.00000000000E+00 0.  1.
         11    1    4    4    0    0 -0.47372635050E+01 -0.20860450143E+00 -0.30772581918E-01  0.47419540874E+01  0.51100000000E-03 0. -1.
        -11    1    4    4    0    0 -0.16899742488E+02 -0.12794009109E+02 -0.86089174954E+01  0.22877968134E+02  0.51100000000E-03 0.  1.
        -12    1    4    4    0    0  0.49502670126E+01  0.10518081232E+02 -0.24088897085E+02  0.26747151981E+02  0.00000000000E+00 0.  1.
</event>
<event>
 8    1  0.1212194E-006  0.9118800E+02  0.7816164E-02  0.1184000E+00
        -11   -1    0    0    0    0  0.00000000000E+00  0.00000000000E+00  0.45593999997E+02  0.45594000000E+02  0.51100000000E-03 0.  1.
         11   -1    0    0    0    0 -0.00000000000E+00 -0.00000000000E+00 -0.45593999997E+02  0.45594000000E+02  0.51100000000E-03 0. -1.
         23    2    1    2    0    0  0.17763568394E-14  0.00000000000E+00 -0.35527136788E-14  0.91188000000E+02  0.91188000000E+02 0.  0.
    9900012    2    3    3    0    0  0.14426443106E+02  0.25625304767E+02  0.22158545632E+02  0.54367086790E+02  0.40000005955E+02 0.  0.
         12    1    3    3    0    0 -0.14426443106E+02 -0.25625304767E+02 -0.22158545632E+02  0.36820913210E+02  0.00000000000E+00 0. -1.
         11    1    4    4    0    0  0.61337158976E+01  0.18686992974E+02 -0.66747194790E+01  0.20769642691E+02  0.51100000000E-03 0. -1.
        -11    1    4    4    0    0 -0.30917946202E+01  0.32194972056E+01  0.38613122462E+01  0.59020410668E+01  0.51100000000E-03 0.  1.
         12    1    4    4    0    0  0.11384521828E+02  0.37188145873E+01  0.24971952865E+02  0.27695403032E+02  0.00000000000E+00 0. -1.
</event>
<event>
 8    1  0.1212194E-006  0.9118800E+02  0.7816164E-02  0.1184000E+00
        -11   -1    0    0    0    0  0.00000000000E+00  0.00000000000E+00  0.45593999997E+02  0.45594000000E+02  0.51100000000E-03 0. -1.
         11   -1    0    0    0    0 -0.00000000000E+00 -0.00000000000E+00 -0.45593999997E+02  0.45594000000E+02  0.51100000000E-03 0.  1.
         23    2    1    2    0    0  0.35527136788E-14  0.00000000000E+00  0.00000000000E+00  0.91188000000E+02  0.91188000000E+02 0.  0.
    9900012    2    3    3    0    0 -0.30164064815E+02 -0.87216624125E+01 -0.19231295570E+02  0.54367069394E+02  0.39999966297E+02 0.  0.
         12    1    3    3    0    0  0.30164064815E+02  0.87216624125E+01  0.19231295570E+02  0.36820930606E+02  0.00000000000E+00 0. -1.
         11    1    4    4    0    0 -0.74442331627E+01 -0.10762974151E+02 -0.23952050565E+01  0.13303955332E+02  0.51100000000E-03 0. -1.
        -11    1    4    4    0    0 -0.29999509125E+02  0.93983230528E+00 -0.12456393895E+02  0.32496393364E+02  0.51100000000E-03 0.  1.
         12    1    4    4    0    0  0.72796774729E+01  0.11014794331E+01 -0.43796966185E+01  0.85667206982E+01  0.00000000000E+00 0. -1.
</event>
<event>
 8    1  0.1212194E-006  0.9118800E+02  0.7816164E-02  0.1184000E+00
        -11   -1    0    0    0    0  0.00000000000E+00  0.00000000000E+00  0.45593999997E+02  0.45594000000E+02  0.51100000000E-03 0.  1.
         11   -1    0    0    0    0 -0.00000000000E+00 -0.00000000000E+00 -0.45593999997E+02  0.45594000000E+02  0.51100000000E-03 0. -1.
         23    2    1    2    0    0  0.00000000000E+00  0.00000000000E+00  0.00000000000E+00  0.91188000000E+02  0.91188000000E+02 0.  0.
    9900012    2    3    3    0    0 -0.93565371396E+01  0.31532905849E+02 -0.16550357981E+02  0.54367037386E+02  0.39999893329E+02 0.  0.
         12    1    3    3    0    0  0.93565371396E+01 -0.31532905849E+02  0.16550357981E+02  0.36820962614E+02  0.00000000000E+00 0. -1.
         11    1    4    4    0    0  0.55948588143E+01 -0.83653117329E+00 -0.64595809230E+01  0.85865252296E+01  0.51100000000E-03 0. -1.
        -11    1    4    4    0    0  0.48294648380E+01  0.16682529383E+02 -0.10929890095E+02  0.20520551040E+02  0.51100000000E-03 0.  1.
        -12    1    4    4    0    0 -0.19780860792E+02  0.15686907639E+02  0.83911303694E+00  0.25259961117E+02  0.00000000000E+00 0.  1.
</event>
<event>
 8    1  0.1212194E-006  0.9118800E+02  0.7816164E-02  0.1184000E+00
        -11   -1    0    0    0    0  0.00000000000E+00  0.00000000000E+00  0.45593999997E+02  0.45594000000E+02  0.51100000000E-03 0. -1.
         11   -1    0    0    0    0 -0.00000000000E+00 -0.00000000000E+00 -0.45593999997E+02  0.45594000000E+02  0.51100000000E-03 0.  1.
         23    2    1    2    0    0  0.00000000000E+00  0.00000000000E+00 -0.22204460493E-14  0.91188000000E+02  0.91188000000E+02 0.  0.
    9900012    2    3    3    0    0  0.16867336441E+02 -0.32554761441E+02  0.33854546872E+01  0.54367070700E+02  0.39999969274E+02 0.  0.
        -12    1    3    3    0    0 -0.16867336441E+02  0.32554761441E+02 -0.33854546872E+01  0.36820929300E+02  0.00000000000E+00 0.  1.
         11    1    4    4    0    0 -0.46772407376E+01 -0.11362400849E+02 -0.33160005213E+00  0.12291895412E+02  0.51100000000E-03 0. -1.
        -11    1    4    4    0    0  0.19118054135E+02 -0.17375314747E+02 -0.99462728473E+01  0.27682664256E+02  0.51100000000E-03 0.  1.
        -12    1    4    4    0    0  0.24265230435E+01 -0.38170458451E+01  0.13663327587E+02  0.14392511032E+02  0.00000000000E+00 0.  1.
</event>
<event>
 8    1  0.1212194E-006  0.9118800E+02  0.7816164E-02  0.1184000E+00
        -11   -1    0    0    0    0  0.00000000000E+00  0.00000000000E+00  0.45593999997E+02  0.45594000000E+02  0.51100000000E-03 0. -1.
         11   -1    0    0    0    0 -0.00000000000E+00 -0.00000000000E+00 -0.45593999997E+02  0.45594000000E+02  0.51100000000E-03 0.  1.
         23    2    1    2    0    0 -0.88817841970E-15  0.00000000000E+00  0.00000000000E+00  0.91188000000E+02  0.91188000000E+02 0.  0.
    9900012    2    3    3    0    0  0.52391136718E+01 -0.11789980011E+02  0.34486633532E+02  0.54367084299E+02  0.40000000276E+02 0.  0.
        -12    1    3    3    0    0 -0.52391136718E+01  0.11789980011E+02 -0.34486633532E+02  0.36820915701E+02  0.00000000000E+00 0.  1.
         11    1    4    4    0    0  0.33507314081E+01  0.15016705674E+01  0.18275661958E+01  0.41015136137E+01  0.51100000000E-03 0. -1.
        -11    1    4    4    0    0  0.15877000410E+02 -0.10911494122E+02  0.61935883504E+01  0.20236115806E+02  0.51100000000E-03 0.  1.
         12    1    4    4    0    0 -0.13988618146E+02 -0.23801564557E+01  0.26465478986E+02  0.30029454879E+02  0.00000000000E+00 0. -1.
</event>
<event>
 8    1  0.1212194E-006  0.9118800E+02  0.7816164E-02  0.1184000E+00
        -11   -1    0    0    0    0  0.00000000000E+00  0.00000000000E+00  0.45593999997E+02  0.45594000000E+02  0.51100000000E-03 0.  1.
         11   -1    0    0    0    0 -0.00000000000E+00 -0.00000000000E+00 -0.45593999997E+02  0.45594000000E+02  0.51100000000E-03 0. -1.
         23    2    1    2    0    0 -0.17763568394E-14 -0.35527136788E-14  0.35527136788E-14  0.91188000000E+02  0.91188000000E+02 0.  0.
    9900012    2    3    3    0    0 -0.11034930832E+02 -0.30345657250E+02 -0.17696104460E+02  0.54367072181E+02  0.39999972651E+02 0.  0.
         12    1    3    3    0    0  0.11034930832E+02  0.30345657250E+02  0.17696104460E+02  0.36820927819E+02  0.00000000000E+00 0. -1.
         11    1    4    4    0    0 -0.71939570729E+01 -0.52973271794E+01  0.77072854670E+01  0.11799022974E+02  0.51100000000E-03 0. -1.
        -11    1    4    4    0    0 -0.33734293962E+01 -0.57699401134E+01 -0.21991175703E+02  0.22984430466E+02  0.51100000000E-03 0.  1.
        -12    1    4    4    0    0 -0.46754436315E+00 -0.19278389957E+02 -0.34122142241E+01  0.19583618741E+02  0.00000000000E+00 0.  1.
</event>
<event>
 8    1  0.1212194E-006  0.9118800E+02  0.7816164E-02  0.1184000E+00
        -11   -1    0    0    0    0  0.00000000000E+00  0.00000000000E+00  0.45593999997E+02  0.45594000000E+02  0.51100000000E-03 0.  1.
         11   -1    0    0    0    0 -0.00000000000E+00 -0.00000000000E+00 -0.45593999997E+02  0.45594000000E+02  0.51100000000E-03 0. -1.
         23    2    1    2    0    0 -0.44408920985E-15 -0.71054273576E-14  0.88817841970E-15  0.91188000000E+02  0.91188000000E+02 0.  0.
    9900012    2    3    3    0    0 -0.28709607543E+01 -0.36364546302E+02  0.50156245628E+01  0.54367093803E+02  0.40000021942E+02 0.  0.
        -12    1    3    3    0    0  0.28709607543E+01  0.36364546302E+02 -0.50156245628E+01  0.36820906197E+02  0.00000000000E+00 0.  1.
         11    1    4    4    0    0  0.93975868421E+01 -0.59807810124E+01 -0.69780597149E+01  0.13144493053E+02  0.51100000000E-03 0. -1.
        -11    1    4    4    0    0  0.25313361840E+01 -0.70340272816E+01  0.11324568541E+02  0.13569489879E+02  0.51100000000E-03 0.  1.
        -12    1    4    4    0    0 -0.14799883780E+02 -0.23349738008E+02  0.66911573663E+00  0.27653110871E+02  0.00000000000E+00 0.  1.
</event>
<event>
 8    1  0.1212194E-006  0.9118800E+02  0.7816164E-02  0.1184000E+00
        -11   -1    0    0    0    0  0.00000000000E+00  0.00000000000E+00  0.45593999997E+02  0.45594000000E+02  0.51100000000E-03 0. -1.
         11   -1    0    0    0    0 -0.00000000000E+00 -0.00000000000E+00 -0.45593999997E+02  0.45594000000E+02  0.51100000000E-03 0.  1.
         23    2    1    2    0    0  0.88817841970E-15  0.71054273576E-14 -0.17763568394E-14  0.91188000000E+02  0.91188000000E+02 0.  0.
    9900012    2    3    3    0    0  0.55083508269E+01 -0.34723691204E+02 -0.10940881019E+02  0.54367088318E+02  0.40000009438E+02 0.  0.
         12    1    3    3    0    0 -0.55083508269E+01  0.34723691204E+02  0.10940881019E+02  0.36820911682E+02  0.00000000000E+00 0. -1.
         11    1    4    4    0    0  0.11543691983E+02 -0.71037137714E+01 -0.47628235603E+01  0.14366769382E+02  0.51100000000E-03 0. -1.
        -11    1    4    4    0    0  0.16816606974E+01 -0.27327833571E+02 -0.12425524053E+02  0.30067126877E+02  0.51100000000E-03 0.  1.
         12    1    4    4    0    0 -0.77170018532E+01 -0.29214386146E+00  0.62474665945E+01  0.99331920593E+01  0.00000000000E+00 0. -1.
</event>
<event>
 8    1  0.1212194E-006  0.9118800E+02  0.7816164E-02  0.1184000E+00
        -11   -1    0    0    0    0  0.00000000000E+00  0.00000000000E+00  0.45593999997E+02  0.45594000000E+02  0.51100000000E-03 0. -1.
         11   -1    0    0    0    0 -0.00000000000E+00 -0.00000000000E+00 -0.45593999997E+02  0.45594000000E+02  0.51100000000E-03 0.  1.
         23    2    1    2    0    0 -0.44408920985E-15  0.17763568394E-14  0.00000000000E+00  0.91188000000E+02  0.91188000000E+02 0.  0.
    9900012    2    3    3    0    0  0.34015294277E+01  0.10846930431E+02 -0.35022197978E+02  0.54367073159E+02  0.39999974880E+02 0.  0.
         12    1    3    3    0    0 -0.34015294277E+01 -0.10846930431E+02  0.35022197978E+02  0.36820926841E+02  0.00000000000E+00 0. -1.
         11    1    4    4    0    0  0.44725468567E+01 -0.20336689670E+01 -0.24618406421E+02  0.25103892523E+02  0.51100000000E-03 0. -1.
        -11    1    4    4    0    0  0.89936419694E+01  0.29441679976E+01 -0.11714562956E+02  0.15059372715E+02  0.51100000000E-03 0.  1.
         12    1    4    4    0    0 -0.10064659398E+02  0.99364314004E+01  0.13107713983E+01  0.14203807920E+02  0.00000000000E+00 0. -1.
</event>
<event>
 8    1  0.1212194E-006  0.9118800E+02  0.7816164E-02  0.1184000E+00
        -11   -1    0    0    0    0  0.00000000000E+00  0.00000000000E+00  0.45593999997E+02  0.45594000000E+02  0.51100000000E-03 0. -1.
         11   -1    0    0    0    0 -0.00000000000E+00 -0.00000000000E+00 -0.45593999997E+02  0.45594000000E+02  0.51100000000E-03 0.  1.
         23    2    1    2    0    0  0.00000000000E+00  0.17763568394E-14  0.71054273576E-14  0.91188000000E+02  0.91188000000E+02 0.  0.
    9900012    2    3    3    0    0  0.48062086956E+01  0.13565846777E+02  0.33891709281E+02  0.54367084765E+02  0.40000001338E+02 0.  0.
        -12    1    3    3    0    0 -0.48062086956E+01 -0.13565846777E+02 -0.33891709281E+02  0.36820915235E+02  0.00000000000E+00 0.  1.
         11    1    4    4    0    0  0.91348134272E+00 -0.28754589930E+00 -0.34132329119E+01  0.35450373735E+01  0.51100000000E-03 0. -1.
        -11    1    4    4    0    0  0.63278116254E+01  0.34016583151E+01 -0.39470085011E+01  0.81970333431E+01  0.51100000000E-03 0.  1.
         12    1    4    4    0    0 -0.24350842725E+01  0.10451734361E+02  0.41251950694E+02  0.42625014048E+02  0.00000000000E+00 0. -1.
</event>
<event>
 8    1  0.1212194E-006  0.9118800E+02  0.7816164E-02  0.1184000E+00
        -11   -1    0    0    0    0  0.00000000000E+00  0.00000000000E+00  0.45593999997E+02  0.45594000000E+02  0.51100000000E-03 0. -1.
         11   -1    0    0    0    0 -0.00000000000E+00 -0.00000000000E+00 -0.45593999997E+02  0.45594000000E+02  0.51100000000E-03 0.  1.
         23    2    1    2    0    0  0.00000000000E+00  0.00000000000E+00  0.17763568394E-14  0.91188000000E+02  0.91188000000E+02 0.  0.
    9900012    2    3    3    0    0  0.31906200397E+02 -0.11769977130E+02  0.14115338375E+02  0.54367071673E+02  0.39999971493E+02 0.  0.
        -12    1    3    3    0    0 -0.31906200397E+02  0.11769977130E+02 -0.14115338375E+02  0.36820928327E+02  0.00000000000E+00 0.  1.
         11    1    4    4    0    0  0.27774786121E+02 -0.13403605870E+02  0.93989474685E+01  0.32240279282E+02  0.51100000000E-03 0. -1.
        -11    1    4    4    0    0 -0.42963957980E+01 -0.71166471521E+01 -0.15511814672E+01  0.84564678055E+01  0.51100000000E-03 0.  1.
         12    1    4    4    0    0  0.84278100738E+01  0.87502758918E+01  0.62675723736E+01  0.13670324586E+02  0.00000000000E+00 0. -1.
</event>
<event>
 8    1  0.1212194E-006  0.9118800E+02  0.7816164E-02  0.1184000E+00
        -11   -1    0    0    0    0  0.00000000000E+00  0.00000000000E+00  0.45593999997E+02  0.45594000000E+02  0.51100000000E-03 0. -1.
         11   -1    0    0    0    0 -0.00000000000E+00 -0.00000000000E+00 -0.45593999997E+02  0.45594000000E+02  0.51100000000E-03 0.  1.
         23    2    1    2    0    0  0.00000000000E+00  0.00000000000E+00 -0.88817841970E-15  0.91188000000E+02  0.91188000000E+02 0.  0.
    9900012    2    3    3    0    0  0.14385990978E+02 -0.33245103138E+02  0.66018497068E+01  0.54367108666E+02  0.40000055826E+02 0.  0.
        -12    1    3    3    0    0 -0.14385990978E+02  0.33245103138E+02 -0.66018497068E+01  0.36820891334E+02  0.00000000000E+00 0.  1.
         11    1    4    4    0    0 -0.69544905055E+01 -0.17067986989E+02 -0.40638217611E+00  0.18434919712E+02  0.51100000000E-03 0. -1.
        -11    1    4    4    0    0  0.68244176009E+01  0.57429481091E+01  0.24446668032E+01  0.92482714393E+01  0.51100000000E-03 0.  1.
        -12    1    4    4    0    0  0.14516063883E+02 -0.21920064257E+02  0.45635650797E+01  0.26683917515E+02  0.00000000000E+00 0.  1.
</event>
<event>
 8    1  0.1212194E-006  0.9118800E+02  0.7816164E-02  0.1184000E+00
        -11   -1    0    0    0    0  0.00000000000E+00  0.00000000000E+00  0.45593999997E+02  0.45594000000E+02  0.51100000000E-03 0. -1.
         11   -1    0    0    0    0 -0.00000000000E+00 -0.00000000000E+00 -0.45593999997E+02  0.45594000000E+02  0.51100000000E-03 0.  1.
         23    2    1    2    0    0  0.88817841970E-15  0.35527136788E-14  0.00000000000E+00  0.91188000000E+02  0.91188000000E+02 0.  0.
    9900012    2    3    3    0    0 -0.18498384115E+01 -0.30392035780E+02 -0.20704653125E+02  0.54367076573E+02  0.39999982663E+02 0.  0.
         12    1    3    3    0    0  0.18498384115E+01  0.30392035780E+02  0.20704653125E+02  0.36820923427E+02  0.00000000000E+00 0. -1.
         11    1    4    4    0    0 -0.88146372406E+01 -0.19856504738E+02 -0.21554692219E+02  0.30603649571E+02  0.51100000000E-03 0. -1.
        -11    1    4    4    0    0  0.56187578134E+01 -0.34006411218E+01  0.10073253583E+02  0.12025191782E+02  0.51100000000E-03 0.  1.
        -12    1    4    4    0    0  0.13460410156E+01 -0.71348899196E+01 -0.92232144884E+01  0.11738235220E+02  0.00000000000E+00 0.  1.
</event>
<event>
 8    1  0.1212194E-006  0.9118800E+02  0.7816164E-02  0.1184000E+00
        -11   -1    0    0    0    0  0.00000000000E+00  0.00000000000E+00  0.45593999997E+02  0.45594000000E+02  0.51100000000E-03 0. -1.
         11   -1    0    0    0    0 -0.00000000000E+00 -0.00000000000E+00 -0.45593999997E+02  0.45594000000E+02  0.51100000000E-03 0.  1.
         23    2    1    2    0    0  0.00000000000E+00  0.00000000000E+00  0.13322676296E-14  0.91188000000E+02  0.91188000000E+02 0.  0.
    9900012    2    3    3    0    0  0.28460790200E+02 -0.23287642745E+02 -0.18571285602E+01  0.54367084613E+02  0.40000000993E+02 0.  0.
         12    1    3    3    0    0 -0.28460790200E+02  0.23287642745E+02  0.18571285602E+01  0.36820915387E+02  0.00000000000E+00 0. -1.
         11    1    4    4    0    0  0.52817847917E+01 -0.11583668461E+01  0.46720982723E+01  0.71461574894E+01  0.51100000000E-03 0. -1.
        -11    1    4    4    0    0 -0.75961898667E+01 -0.83920082858E+01  0.38511131317E+01  0.11956545328E+02  0.51100000000E-03 0.  1.
        -12    1    4    4    0    0  0.30775195275E+02 -0.13737267613E+02 -0.10380339964E+02  0.35264381796E+02  0.00000000000E+00 0.  1.
</event>
<event>
 8    1  0.1212194E-006  0.9118800E+02  0.7816164E-02  0.1184000E+00
        -11   -1    0    0    0    0  0.00000000000E+00  0.00000000000E+00  0.45593999997E+02  0.45594000000E+02  0.51100000000E-03 0.  1.
         11   -1    0    0    0    0 -0.00000000000E+00 -0.00000000000E+00 -0.45593999997E+02  0.45594000000E+02  0.51100000000E-03 0. -1.
         23    2    1    2    0    0  0.00000000000E+00  0.00000000000E+00  0.00000000000E+00  0.91188000000E+02  0.91188000000E+02 0.  0.
    9900012    2    3    3    0    0 -0.18408285935E+02  0.20032837997E+02  0.24811288853E+02  0.54367086869E+02  0.40000006135E+02 0.  0.
         12    1    3    3    0    0  0.18408285935E+02 -0.20032837997E+02 -0.24811288853E+02  0.36820913131E+02  0.00000000000E+00 0. -1.
         11    1    4    4    0    0 -0.54282635000E+01  0.29374328452E+02  0.98990074134E+01  0.31469152589E+02  0.51100000000E-03 0. -1.
        -11    1    4    4    0    0 -0.96867742942E+01 -0.59446113468E+01  0.61073778960E+01  0.12902405408E+02  0.51100000000E-03 0.  1.
         12    1    4    4    0    0 -0.32932481406E+01 -0.33968791090E+01  0.88049035440E+01  0.99955288713E+01  0.00000000000E+00 0. -1.
</event>
<event>
 8    1  0.1212194E-006  0.9118800E+02  0.7816164E-02  0.1184000E+00
        -11   -1    0    0    0    0  0.00000000000E+00  0.00000000000E+00  0.45593999997E+02  0.45594000000E+02  0.51100000000E-03 0. -1.
         11   -1    0    0    0    0 -0.00000000000E+00 -0.00000000000E+00 -0.45593999997E+02  0.45594000000E+02  0.51100000000E-03 0.  1.
         23    2    1    2    0    0  0.35527136788E-14  0.00000000000E+00  0.00000000000E+00  0.91188000000E+02  0.91188000000E+02 0.  0.
    9900012    2    3    3    0    0 -0.18527653890E+02 -0.28387631501E+02 -0.14374904040E+02  0.54367225334E+02  0.40000321792E+02 0.  0.
         12    1    3    3    0    0  0.18527653890E+02  0.28387631501E+02  0.14374904040E+02  0.36820774666E+02  0.00000000000E+00 0. -1.
         11    1    4    4    0    0 -0.20453914916E+02 -0.11952614756E+02  0.92599668163E+01  0.25435695796E+02  0.51100000000E-03 0. -1.
        -11    1    4    4    0    0  0.47063428690E-01 -0.43395628381E+01 -0.76894923482E+01  0.88296270265E+01  0.51100000000E-03 0.  1.
         12    1    4    4    0    0  0.18791975976E+01 -0.12095453907E+02 -0.15945378508E+02  0.20101902511E+02  0.00000000000E+00 0. -1.
</event>
<event>
 8    1  0.1212194E-006  0.9118800E+02  0.7816164E-02  0.1184000E+00
        -11   -1    0    0    0    0  0.00000000000E+00  0.00000000000E+00  0.45593999997E+02  0.45594000000E+02  0.51100000000E-03 0.  1.
         11   -1    0    0    0    0 -0.00000000000E+00 -0.00000000000E+00 -0.45593999997E+02  0.45594000000E+02  0.51100000000E-03 0. -1.
         23    2    1    2    0    0 -0.17763568394E-14 -0.35527136788E-14  0.00000000000E+00  0.91188000000E+02  0.91188000000E+02 0.  0.
    9900012    2    3    3    0    0 -0.97697948653E+01 -0.20405509787E+02 -0.29050743527E+02  0.54367089897E+02  0.40000013037E+02 0.  0.
        -12    1    3    3    0    0  0.97697948653E+01  0.20405509787E+02  0.29050743527E+02  0.36820910103E+02  0.00000000000E+00 0.  1.
         11    1    4    4    0    0  0.24304047725E+01 -0.21898513006E+02 -0.14513035358E+02  0.26383326834E+02  0.51100000000E-03 0. -1.
        -11    1    4    4    0    0  0.35321647055E+01 -0.40743097724E+01  0.63448581784E+00  0.54294346061E+01  0.51100000000E-03 0.  1.
         12    1    4    4    0    0 -0.15732364343E+02  0.55673129914E+01 -0.15172193987E+02  0.22554328457E+02  0.00000000000E+00 0. -1.
</event>
<event>
 8    1  0.1212194E-006  0.9118800E+02  0.7816164E-02  0.1184000E+00
        -11   -1    0    0    0    0  0.00000000000E+00  0.00000000000E+00  0.45593999997E+02  0.45594000000E+02  0.51100000000E-03 0. -1.
         11   -1    0    0    0    0 -0.00000000000E+00 -0.00000000000E+00 -0.45593999997E+02  0.45594000000E+02  0.51100000000E-03 0.  1.
         23    2    1    2    0    0  0.00000000000E+00 -0.35527136788E-14 -0.88817841970E-15  0.91188000000E+02  0.91188000000E+02 0.  0.
    9900012    2    3    3    0    0  0.26901544126E+02 -0.24809235687E+02  0.40729235829E+01  0.54367082599E+02  0.39999996402E+02 0.  0.
         12    1    3    3    0    0 -0.26901544126E+02  0.24809235687E+02 -0.40729235829E+01  0.36820917401E+02  0.00000000000E+00 0. -1.
         11    1    4    4    0    0  0.37477539925E+01 -0.68301306279E+01 -0.14209800257E+02  0.16205393176E+02  0.51100000000E-03 0. -1.
        -11    1    4    4    0    0  0.22753844568E+02 -0.19551325032E+02  0.13107825620E+02  0.32738461263E+02  0.51100000000E-03 0.  1.
        -12    1    4    4    0    0  0.39994556544E+00  0.15722199733E+01  0.51748982195E+01  0.54232281606E+01  0.00000000000E+00 0.  1.
</event>
<event>
 8    1  0.1212194E-006  0.9118800E+02  0.7816164E-02  0.1184000E+00
        -11   -1    0    0    0    0  0.00000000000E+00  0.00000000000E+00  0.45593999997E+02  0.45594000000E+02  0.51100000000E-03 0. -1.
         11   -1    0    0    0    0 -0.00000000000E+00 -0.00000000000E+00 -0.45593999997E+02  0.45594000000E+02  0.51100000000E-03 0.  1.
         23    2    1    2    0    0  0.00000000000E+00  0.00000000000E+00  0.88817841970E-15  0.91188000000E+02  0.91188000000E+02 0.  0.
    9900012    2    3    3    0    0  0.30111997779E+02 -0.20969063905E+02 -0.30571563435E+01  0.54367078553E+02  0.39999987177E+02 0.  0.
         12    1    3    3    0    0 -0.30111997779E+02  0.20969063905E+02  0.30571563435E+01  0.36820921447E+02  0.00000000000E+00 0. -1.
         11    1    4    4    0    0 -0.14737901834E+01 -0.16778484805E+02  0.62591585290E+01  0.17968491189E+02  0.51100000000E-03 0. -1.
        -11    1    4    4    0    0  0.22865133000E+02 -0.95421551081E+01 -0.82387483917E+01  0.26110228006E+02  0.51100000000E-03 0.  1.
         12    1    4    4    0    0  0.87206549624E+01  0.53515760084E+01 -0.10775664807E+01  0.10288359357E+02  0.00000000000E+00 0. -1.
</event>
<event>
 8    1  0.1212194E-006  0.9118800E+02  0.7816164E-02  0.1184000E+00
        -11   -1    0    0    0    0  0.00000000000E+00  0.00000000000E+00  0.45593999997E+02  0.45594000000E+02  0.51100000000E-03 0.  1.
         11   -1    0    0    0    0 -0.00000000000E+00 -0.00000000000E+00 -0.45593999997E+02  0.45594000000E+02  0.51100000000E-03 0. -1.
         23    2    1    2    0    0  0.00000000000E+00  0.00000000000E+00  0.00000000000E+00  0.91188000000E+02  0.91188000000E+02 0.  0.
    9900012    2    3    3    0    0 -0.29525551487E+02 -0.11199359589E+02  0.18936604687E+02  0.54367097745E+02  0.40000030929E+02 0.  0.
         12    1    3    3    0    0  0.29525551487E+02  0.11199359589E+02 -0.18936604687E+02  0.36820902255E+02  0.00000000000E+00 0. -1.
         11    1    4    4    0    0 -0.19124043527E+02  0.34613793008E+01 -0.40751452470E+01  0.19857416663E+02  0.51100000000E-03 0. -1.
        -11    1    4    4    0    0  0.16103389182E+01 -0.57446916964E+00  0.13665050046E+02  0.13771593927E+02  0.51100000000E-03 0.  1.
         12    1    4    4    0    0 -0.12011846879E+02 -0.14086269720E+02  0.93466998880E+01  0.20738087155E+02  0.00000000000E+00 0. -1.
</event>
<event>
 8    1  0.1212194E-006  0.9118800E+02  0.7816164E-02  0.1184000E+00
        -11   -1    0    0    0    0  0.00000000000E+00  0.00000000000E+00  0.45593999997E+02  0.45594000000E+02  0.51100000000E-03 0. -1.
         11   -1    0    0    0    0 -0.00000000000E+00 -0.00000000000E+00 -0.45593999997E+02  0.45594000000E+02  0.51100000000E-03 0.  1.
         23    2    1    2    0    0  0.00000000000E+00  0.00000000000E+00 -0.88817841970E-15  0.91188000000E+02  0.91188000000E+02 0.  0.
    9900012    2    3    3    0    0  0.73206756922E+01  0.35989322522E+02 -0.26373985688E+01  0.54367088830E+02  0.40000010605E+02 0.  0.
         12    1    3    3    0    0 -0.73206756922E+01 -0.35989322522E+02  0.26373985688E+01  0.36820911170E+02  0.00000000000E+00 0. -1.
         11    1    4    4    0    0  0.74289710776E-01  0.19715709680E+02  0.17496018923E+02  0.26359541073E+02  0.51100000000E-03 0. -1.
        -11    1    4    4    0    0  0.67957832729E+01  0.14043523021E+02 -0.12348410055E+02  0.19896895242E+02  0.51100000000E-03 0.  1.
         12    1    4    4    0    0  0.45060270854E+00  0.22300898211E+01 -0.77850074374E+01  0.81106525146E+01  0.00000000000E+00 0. -1.
</event>
<event>
 8    1  0.1212194E-006  0.9118800E+02  0.7816164E-02  0.1184000E+00
        -11   -1    0    0    0    0  0.00000000000E+00  0.00000000000E+00  0.45593999997E+02  0.45594000000E+02  0.51100000000E-03 0. -1.
         11   -1    0    0    0    0 -0.00000000000E+00 -0.00000000000E+00 -0.45593999997E+02  0.45594000000E+02  0.51100000000E-03 0.  1.
         23    2    1    2    0    0  0.17763568394E-14  0.00000000000E+00  0.00000000000E+00  0.91188000000E+02  0.91188000000E+02 0.  0.
    9900012    2    3    3    0    0 -0.15946142321E+02  0.26781339853E+02  0.19602563935E+02  0.54367080239E+02  0.39999991021E+02 0.  0.
        -12    1    3    3    0    0  0.15946142321E+02 -0.26781339853E+02 -0.19602563935E+02  0.36820919761E+02  0.00000000000E+00 0.  1.
         11    1    4    4    0    0  0.27208081733E+01  0.28371850782E+01  0.66437484406E+01  0.77195731675E+01  0.51100000000E-03 0. -1.
        -11    1    4    4    0    0  0.88991079627E+01  0.11327672907E+02  0.28014678646E+01  0.14675098585E+02  0.51100000000E-03 0.  1.
         12    1    4    4    0    0 -0.27566058457E+02  0.12616481867E+02  0.10157347630E+02  0.31972408486E+02  0.00000000000E+00 0. -1.
</event>
<event>
 8    1  0.1212194E-006  0.9118800E+02  0.7816164E-02  0.1184000E+00
        -11   -1    0    0    0    0  0.00000000000E+00  0.00000000000E+00  0.45593999997E+02  0.45594000000E+02  0.51100000000E-03 0.  1.
         11   -1    0    0    0    0 -0.00000000000E+00 -0.00000000000E+00 -0.45593999997E+02  0.45594000000E+02  0.51100000000E-03 0. -1.
         23    2    1    2    0    0 -0.35527136788E-14 -0.35527136788E-14  0.00000000000E+00  0.91188000000E+02  0.91188000000E+02 0.  0.
    9900012    2    3    3    0    0  0.23796516340E+02  0.24178731578E+02 -0.14314118573E+02  0.54367092337E+02  0.40000018600E+02 0.  0.
        -12    1    3    3    0    0 -0.23796516340E+02 -0.24178731578E+02  0.14314118573E+02  0.36820907663E+02  0.00000000000E+00 0.  1.
         11    1    4    4    0    0  0.10087410439E+02 -0.96507550404E+00 -0.71480370500E+01  0.12400873115E+02  0.51100000000E-03 0. -1.
        -11    1    4    4    0    0  0.62355093638E+01 -0.46708774739E+01 -0.80682744948E+01  0.11215869426E+02  0.51100000000E-03 0.  1.
        -12    1    4    4    0    0  0.74735965377E+01  0.29814684556E+02  0.90219297201E+00  0.30750349795E+02  0.00000000000E+00 0.  1.
</event>
<event>
 8    1  0.1212194E-006  0.9118800E+02  0.7816164E-02  0.1184000E+00
        -11   -1    0    0    0    0  0.00000000000E+00  0.00000000000E+00  0.45593999997E+02  0.45594000000E+02  0.51100000000E-03 0.  1.
         11   -1    0    0    0    0 -0.00000000000E+00 -0.00000000000E+00 -0.45593999997E+02  0.45594000000E+02  0.51100000000E-03 0. -1.
         23    2    1    2    0    0  0.44408920985E-15  0.35527136788E-14  0.00000000000E+00  0.91188000000E+02  0.91188000000E+02 0.  0.
    9900012    2    3    3    0    0 -0.20708901844E+01  0.27404207651E+02  0.24505098074E+02  0.54367095411E+02  0.40000025609E+02 0.  0.
         12    1    3    3    0    0  0.20708901844E+01 -0.27404207651E+02 -0.24505098074E+02  0.36820904589E+02  0.00000000000E+00 0. -1.
         11    1    4    4    0    0 -0.13199788214E+01  0.70489764330E+01 -0.58451709376E+01  0.92518342177E+01  0.51100000000E-03 0. -1.
        -11    1    4    4    0    0  0.19794491971E+01  0.20840637664E+02  0.77150767223E+01  0.22310822631E+02  0.51100000000E-03 0.  1.
         12    1    4    4    0    0 -0.27303605601E+01 -0.48540644614E+00  0.22635192289E+02  0.22804438563E+02  0.00000000000E+00 0. -1.
</event>
<event>
 8    1  0.1212194E-006  0.9118800E+02  0.7816164E-02  0.1184000E+00
        -11   -1    0    0    0    0  0.00000000000E+00  0.00000000000E+00  0.45593999997E+02  0.45594000000E+02  0.51100000000E-03 0.  1.
         11   -1    0    0    0    0 -0.00000000000E+00 -0.00000000000E+00 -0.45593999997E+02  0.45594000000E+02  0.51100000000E-03 0. -1.
         23    2    1    2    0    0  0.00000000000E+00  0.00000000000E+00  0.35527136788E-14  0.91188000000E+02  0.91188000000E+02 0.  0.
    9900012    2    3    3    0    0 -0.16446187370E+02  0.17787814523E+02  0.27728992132E+02  0.54367076204E+02  0.39999981822E+02 0.  0.
         12    1    3    3    0    0  0.16446187370E+02 -0.17787814523E+02 -0.27728992132E+02  0.36820923796E+02  0.00000000000E+00 0. -1.
         11    1    4    4    0    0 -0.17041818924E+02  0.92784426117E+01 -0.38378843604E+00  0.19407740295E+02  0.51100000000E-03 0. -1.
        -11    1    4    4    0    0 -0.36318902906E+01  0.11526078222E+02  0.27093912185E+02  0.29666836434E+02  0.51100000000E-03 0.  1.
         12    1    4    4    0    0  0.42275218442E+01 -0.30167063103E+01  0.10188683827E+01  0.52924994744E+01  0.00000000000E+00 0. -1.
</event>
<event>
 8    1  0.1212194E-006  0.9118800E+02  0.7816164E-02  0.1184000E+00
        -11   -1    0    0    0    0  0.00000000000E+00  0.00000000000E+00  0.45593999997E+02  0.45594000000E+02  0.51100000000E-03 0. -1.
         11   -1    0    0    0    0 -0.00000000000E+00 -0.00000000000E+00 -0.45593999997E+02  0.45594000000E+02  0.51100000000E-03 0.  1.
         23    2    1    2    0    0  0.00000000000E+00 -0.71054273576E-14 -0.17763568394E-14  0.91188000000E+02  0.91188000000E+02 0.  0.
    9900012    2    3    3    0    0 -0.26658446178E+02  0.24666508600E+02  0.60555127676E+01  0.54367100581E+02  0.40000037395E+02 0.  0.
         12    1    3    3    0    0  0.26658446178E+02 -0.24666508600E+02 -0.60555127676E+01  0.36820899419E+02  0.00000000000E+00 0. -1.
         11    1    4    4    0    0 -0.11719337696E+02  0.75933269877E+01 -0.12021683760E+02  0.18426132841E+02  0.51100000000E-03 0. -1.
        -11    1    4    4    0    0 -0.72384300861E+01  0.20473244581E+02  0.88456857865E+01  0.23447702895E+02  0.51100000000E-03 0.  1.
         12    1    4    4    0    0 -0.77006783952E+01 -0.34000629682E+01  0.92315107409E+01  0.12493264845E+02  0.00000000000E+00 0. -1.
</event>
<event>
 8    1  0.1212194E-006  0.9118800E+02  0.7816164E-02  0.1184000E+00
        -11   -1    0    0    0    0  0.00000000000E+00  0.00000000000E+00  0.45593999997E+02  0.45594000000E+02  0.51100000000E-03 0.  1.
         11   -1    0    0    0    0 -0.00000000000E+00 -0.00000000000E+00 -0.45593999997E+02  0.45594000000E+02  0.51100000000E-03 0. -1.
         23    2    1    2    0    0 -0.17763568394E-14  0.00000000000E+00  0.00000000000E+00  0.91188000000E+02  0.91188000000E+02 0.  0.
    9900012    2    3    3    0    0  0.14358586382E+02  0.16034708780E+02 -0.29874717456E+02  0.54367087035E+02  0.40000006513E+02 0.  0.
        -12    1    3    3    0    0 -0.14358586382E+02 -0.16034708780E+02  0.29874717456E+02  0.36820912965E+02  0.00000000000E+00 0.  1.
         11    1    4    4    0    0  0.60093996619E+01  0.17649079884E+02 -0.28546245861E+02  0.34095323112E+02  0.51100000000E-03 0. -1.
        -11    1    4    4    0    0 -0.23737013056E+01  0.55198759030E+01  0.29587580493E+01  0.66975919051E+01  0.51100000000E-03 0.  1.
         12    1    4    4    0    0  0.10722888025E+02 -0.71342470068E+01 -0.42872296435E+01  0.13574172018E+02  0.00000000000E+00 0. -1.
</event>
<event>
 8    1  0.1212194E-006  0.9118800E+02  0.7816164E-02  0.1184000E+00
        -11   -1    0    0    0    0  0.00000000000E+00  0.00000000000E+00  0.45593999997E+02  0.45594000000E+02  0.51100000000E-03 0. -1.
         11   -1    0    0    0    0 -0.00000000000E+00 -0.00000000000E+00 -0.45593999997E+02  0.45594000000E+02  0.51100000000E-03 0.  1.
         23    2    1    2    0    0 -0.22204460493E-14  0.00000000000E+00  0.00000000000E+00  0.91188000000E+02  0.91188000000E+02 0.  0.
    9900012    2    3    3    0    0  0.19369055750E+01 -0.19751003839E+02 -0.31014894641E+02  0.54367116721E+02  0.40000074189E+02 0.  0.
         12    1    3    3    0    0 -0.19369055750E+01  0.19751003839E+02  0.31014894641E+02  0.36820883279E+02  0.00000000000E+00 0. -1.
         11    1    4    4    0    0  0.14074385790E+02 -0.25080815692E+01 -0.80032633072E+01  0.16383865001E+02  0.51100000000E-03 0. -1.
        -11    1    4    4    0    0 -0.12355895588E+02 -0.33933142171E+01 -0.20088092775E+02  0.23826754054E+02  0.51100000000E-03 0.  1.
         12    1    4    4    0    0  0.21841537268E+00 -0.13849608052E+02 -0.29235385595E+01  0.14156497667E+02  0.00000000000E+00 0. -1.
</event>
<event>
 8    1  0.1212194E-006  0.9118800E+02  0.7816164E-02  0.1184000E+00
        -11   -1    0    0    0    0  0.00000000000E+00  0.00000000000E+00  0.45593999997E+02  0.45594000000E+02  0.51100000000E-03 0. -1.
         11   -1    0    0    0    0 -0.00000000000E+00 -0.00000000000E+00 -0.45593999997E+02  0.45594000000E+02  0.51100000000E-03 0.  1.
         23    2    1    2    0    0  0.00000000000E+00 -0.35527136788E-14  0.00000000000E+00  0.91188000000E+02  0.91188000000E+02 0.  0.
    9900012    2    3    3    0    0 -0.14450283068E+01  0.27443899456E+02  0.24505581874E+02  0.54367091983E+02  0.40000017794E+02 0.  0.
        -12    1    3    3    0    0  0.14450283068E+01 -0.27443899456E+02 -0.24505581874E+02  0.36820908017E+02  0.00000000000E+00 0.  1.
         11    1    4    4    0    0  0.10314708165E+02  0.53077218625E+01  0.16655186484E+02  0.20296806473E+02  0.51100000000E-03 0. -1.
        -11    1    4    4    0    0 -0.11800109718E+02  0.49819100994E+01  0.10688838722E+02  0.16682724330E+02  0.51100000000E-03 0.  1.
        -12    1    4    4    0    0  0.40373245769E-01  0.17154267494E+02 -0.28384433318E+01  0.17387561181E+02  0.00000000000E+00 0.  1.
</event>
<event>
 8    1  0.1212194E-006  0.9118800E+02  0.7816164E-02  0.1184000E+00
        -11   -1    0    0    0    0  0.00000000000E+00  0.00000000000E+00  0.45593999997E+02  0.45594000000E+02  0.51100000000E-03 0. -1.
         11   -1    0    0    0    0 -0.00000000000E+00 -0.00000000000E+00 -0.45593999997E+02  0.45594000000E+02  0.51100000000E-03 0.  1.
         23    2    1    2    0    0  0.00000000000E+00  0.00000000000E+00  0.71054273576E-14  0.91188000000E+02  0.91188000000E+02 0.  0.
    9900012    2    3    3    0    0  0.98823586376E+01  0.19502914648E+02 -0.29626958163E+02  0.54367063809E+02  0.39999953565E+02 0.  0.
         12    1    3    3    0    0 -0.98823586376E+01 -0.19502914648E+02  0.29626958163E+02  0.36820936191E+02  0.00000000000E+00 0. -1.
         11    1    4    4    0    0  0.39360626048E+01 -0.46244771515E+01  0.34745212983E+01  0.69964759892E+01  0.51100000000E-03 0. -1.
        -11    1    4    4    0    0  0.71805551108E+01  0.67909467603E+01  0.11269727156E+00  0.98838267152E+01  0.51100000000E-03 0.  1.
        -12    1    4    4    0    0 -0.12342590780E+01  0.17336445039E+02 -0.33214176733E+02  0.37486761104E+02  0.00000000000E+00 0.  1.
</event>
<event>
 8    1  0.1212194E-006  0.9118800E+02  0.7816164E-02  0.1184000E+00
        -11   -1    0    0    0    0  0.00000000000E+00  0.00000000000E+00  0.45593999997E+02  0.45594000000E+02  0.51100000000E-03 0.  1.
         11   -1    0    0    0    0 -0.00000000000E+00 -0.00000000000E+00 -0.45593999997E+02  0.45594000000E+02  0.51100000000E-03 0. -1.
         23    2    1    2    0    0  0.00000000000E+00  0.00000000000E+00  0.00000000000E+00  0.91188000000E+02  0.91188000000E+02 0.  0.
    9900012    2    3    3    0    0  0.12095027105E+02  0.33700788424E+01  0.34614051767E+02  0.54367086217E+02  0.40000004649E+02 0.  0.
         12    1    3    3    0    0 -0.12095027105E+02 -0.33700788424E+01 -0.34614051767E+02  0.36820913783E+02  0.00000000000E+00 0. -1.
         11    1    4    4    0    0 -0.96410013553E+01 -0.11478026539E+02  0.13039475922E+02  0.19867610147E+02  0.51100000000E-03 0. -1.
        -11    1    4    4    0    0  0.93703633358E+01  0.94061754591E+01  0.89753831603E+01  0.16026145792E+02  0.51100000000E-03 0.  1.
        -12    1    4    4    0    0  0.12365665125E+02  0.54419299227E+01  0.12599192684E+02  0.18473330278E+02  0.00000000000E+00 0.  1.
</event>
<event>
 8    1  0.1212194E-006  0.9118800E+02  0.7816164E-02  0.1184000E+00
        -11   -1    0    0    0    0  0.00000000000E+00  0.00000000000E+00  0.45593999997E+02  0.45594000000E+02  0.51100000000E-03 0.  1.
         11   -1    0    0    0    0 -0.00000000000E+00 -0.00000000000E+00 -0.45593999997E+02  0.45594000000E+02  0.51100000000E-03 0. -1.
         23    2    1    2    0    0  0.00000000000E+00  0.00000000000E+00  0.00000000000E+00  0.91188000000E+02  0.91188000000E+02 0.  0.
    9900012    2    3    3    0    0  0.17668004183E+02  0.24756784450E+02  0.20754010527E+02  0.54367004616E+02  0.39999818623E+02 0.  0.
         12    1    3    3    0    0 -0.17668004183E+02 -0.24756784450E+02 -0.20754010527E+02  0.36820995384E+02  0.00000000000E+00 0. -1.
         11    1    4    4    0    0 -0.81202187020E+01  0.12614414033E+02  0.35226005870E+00  0.15006181412E+02  0.51100000000E-03 0. -1.
        -11    1    4    4    0    0  0.10572887921E+02  0.11176579312E+02  0.18399056630E+02  0.23983893955E+02  0.51100000000E-03 0.  1.
        -12    1    4    4    0    0  0.15215334964E+02  0.96579110526E+00  0.20026938384E+01  0.15376929249E+02  0.00000000000E+00 0.  1.
</event>
<event>
 8    1  0.1212194E-006  0.9118800E+02  0.7816164E-02  0.1184000E+00
        -11   -1    0    0    0    0  0.00000000000E+00  0.00000000000E+00  0.45593999997E+02  0.45594000000E+02  0.51100000000E-03 0.  1.
         11   -1    0    0    0    0 -0.00000000000E+00 -0.00000000000E+00 -0.45593999997E+02  0.45594000000E+02  0.51100000000E-03 0. -1.
         23    2    1    2    0    0 -0.35527136788E-14  0.00000000000E+00  0.00000000000E+00  0.91188000000E+02  0.91188000000E+02 0.  0.
    9900012    2    3    3    0    0  0.23286277666E+02 -0.15994009450E+02 -0.23616088935E+02  0.54367099380E+02  0.40000034658E+02 0.  0.
         12    1    3    3    0    0 -0.23286277666E+02  0.15994009450E+02  0.23616088935E+02  0.36820900620E+02  0.00000000000E+00 0. -1.
         11    1    4    4    0    0  0.77091156478E+01  0.84162289012E+01  0.47229793707E+01  0.12351919178E+02  0.51100000000E-03 0. -1.
        -11    1    4    4    0    0  0.74663177337E+01 -0.90425245917E+01 -0.46015456936E+01  0.12597117707E+02  0.51100000000E-03 0.  1.
        -12    1    4    4    0    0  0.81108442848E+01 -0.15367713759E+02 -0.23737522612E+02  0.29418062495E+02  0.00000000000E+00 0.  1.
</event>
<event>
 8    1  0.1212194E-006  0.9118800E+02  0.7816164E-02  0.1184000E+00
        -11   -1    0    0    0    0  0.00000000000E+00  0.00000000000E+00  0.45593999997E+02  0.45594000000E+02  0.51100000000E-03 0.  1.
         11   -1    0    0    0    0 -0.00000000000E+00 -0.00000000000E+00 -0.45593999997E+02  0.45594000000E+02  0.51100000000E-03 0. -1.
         23    2    1    2    0    0  0.00000000000E+00  0.00000000000E+00  0.17763568394E-14  0.91188000000E+02  0.91188000000E+02 0.  0.
    9900012    2    3    3    0    0  0.23182473622E+02 -0.23806976233E+02 -0.15861211164E+02  0.54367119780E+02  0.40000081163E+02 0.  0.
        -12    1    3    3    0    0 -0.23182473622E+02  0.23806976233E+02  0.15861211164E+02  0.36820880220E+02  0.00000000000E+00 0.  1.
         11    1    4    4    0    0  0.78470041124E+01 -0.26081537797E+01  0.22992653302E+01  0.85828061262E+01  0.51100000000E-03 0. -1.
        -11    1    4    4    0    0  0.20087915090E+02 -0.19921831710E+01 -0.20901276894E+01  0.20294377558E+02  0.51100000000E-03 0.  1.
         12    1    4    4    0    0 -0.47524455804E+01 -0.19206639282E+02 -0.16070348805E+02  0.25489936097E+02  0.00000000000E+00 0. -1.
</event>
<event>
 8    1  0.1212194E-006  0.9118800E+02  0.7816164E-02  0.1184000E+00
        -11   -1    0    0    0    0  0.00000000000E+00  0.00000000000E+00  0.45593999997E+02  0.45594000000E+02  0.51100000000E-03 0. -1.
         11   -1    0    0    0    0 -0.00000000000E+00 -0.00000000000E+00 -0.45593999997E+02  0.45594000000E+02  0.51100000000E-03 0.  1.
         23    2    1    2    0    0 -0.17763568394E-14 -0.35527136788E-14  0.00000000000E+00  0.91188000000E+02  0.91188000000E+02 0.  0.
    9900012    2    3    3    0    0  0.10060572785E+02  0.31923741059E+02  0.15344044428E+02  0.54367081118E+02  0.39999993024E+02 0.  0.
        -12    1    3    3    0    0 -0.10060572785E+02 -0.31923741059E+02 -0.15344044428E+02  0.36820918882E+02  0.00000000000E+00 0.  1.
         11    1    4    4    0    0  0.17223188712E+02  0.22638751818E+01  0.85096017019E+01  0.19343647061E+02  0.51100000000E-03 0.  1.
        -11    1    4    4    0    0 -0.34156306167E+01  0.63661786860E+01  0.87565037544E+01  0.11352141729E+02  0.51100000000E-03 0. -1.
        -12    1    4    4    0    0 -0.37469853098E+01  0.23293687191E+02 -0.19220610282E+01  0.23671292327E+02  0.00000000000E+00 0.  1.
</event>
<event>
 8    1  0.1212194E-006  0.9118800E+02  0.7816164E-02  0.1184000E+00
        -11   -1    0    0    0    0  0.00000000000E+00  0.00000000000E+00  0.45593999997E+02  0.45594000000E+02  0.51100000000E-03 0.  1.
         11   -1    0    0    0    0 -0.00000000000E+00 -0.00000000000E+00 -0.45593999997E+02  0.45594000000E+02  0.51100000000E-03 0. -1.
         23    2    1    2    0    0 -0.22204460493E-15  0.00000000000E+00  0.00000000000E+00  0.91188000000E+02  0.91188000000E+02 0.  0.
    9900012    2    3    3    0    0 -0.11511752973E+01  0.55180408892E+01 -0.36386863785E+02  0.54367111419E+02  0.40000062101E+02 0.  0.
        -12    1    3    3    0    0  0.11511752973E+01 -0.55180408892E+01  0.36386863785E+02  0.36820888581E+02  0.00000000000E+00 0.  1.
         11    1    4    4    0    0  0.50794577173E+01  0.46875789880E+01 -0.12421841207E+02  0.14215358832E+02  0.51100000000E-03 0. -1.
        -11    1    4    4    0    0 -0.54516274588E+01 -0.66985464104E+01  0.51590532673E+01  0.10060148947E+02  0.51100000000E-03 0.  1.
        -12    1    4    4    0    0 -0.77900555577E+00  0.75290083115E+01 -0.29124075845E+02  0.30091603640E+02  0.00000000000E+00 0.  1.
</event>
<event>
 8    1  0.1212194E-006  0.9118800E+02  0.7816164E-02  0.1184000E+00
        -11   -1    0    0    0    0  0.00000000000E+00  0.00000000000E+00  0.45593999997E+02  0.45594000000E+02  0.51100000000E-03 0. -1.
         11   -1    0    0    0    0 -0.00000000000E+00 -0.00000000000E+00 -0.45593999997E+02  0.45594000000E+02  0.51100000000E-03 0.  1.
         23    2    1    2    0    0  0.00000000000E+00 -0.88817841970E-15 -0.35527136788E-14  0.91188000000E+02  0.91188000000E+02 0.  0.
    9900012    2    3    3    0    0  0.20039309900E+02  0.71536137247E+01  0.30050501551E+02  0.54367071521E+02  0.39999971146E+02 0.  0.
        -12    1    3    3    0    0 -0.20039309900E+02 -0.71536137247E+01 -0.30050501551E+02  0.36820928479E+02  0.00000000000E+00 0.  1.
         11    1    4    4    0    0  0.20099510153E+01 -0.63595995432E+01  0.27508809904E+00  0.66753339360E+01  0.51100000000E-03 0. -1.
        -11    1    4    4    0    0  0.21139416222E+02 -0.13852802055E+01  0.12216273912E+02  0.24454677835E+02  0.51100000000E-03 0.  1.
         12    1    4    4    0    0 -0.31100573378E+01  0.14898493473E+02  0.17559139540E+02  0.23237059750E+02  0.00000000000E+00 0. -1.
</event>
<event>
 8    1  0.1212194E-006  0.9118800E+02  0.7816164E-02  0.1184000E+00
        -11   -1    0    0    0    0  0.00000000000E+00  0.00000000000E+00  0.45593999997E+02  0.45594000000E+02  0.51100000000E-03 0. -1.
         11   -1    0    0    0    0 -0.00000000000E+00 -0.00000000000E+00 -0.45593999997E+02  0.45594000000E+02  0.51100000000E-03 0.  1.
         23    2    1    2    0    0  0.00000000000E+00  0.17763568394E-14  0.00000000000E+00  0.91188000000E+02  0.91188000000E+02 0.  0.
    9900012    2    3    3    0    0 -0.31566474927E+02  0.38794651759E+01 -0.18554971911E+02  0.54367087845E+02  0.40000008360E+02 0.  0.
         12    1    3    3    0    0  0.31566474927E+02 -0.38794651759E+01  0.18554971911E+02  0.36820912155E+02  0.00000000000E+00 0. -1.
         11    1    4    4    0    0 -0.91589692290E+00 -0.26233066821E+01 -0.81071185330E+00  0.28944531594E+01  0.51100000000E-03 0. -1.
        -11    1    4    4    0    0 -0.31636216899E+01 -0.12608511403E+02  0.11167536598E+01  0.13047229629E+02  0.51100000000E-03 0.  1.
        -12    1    4    4    0    0 -0.27486956314E+02  0.19111283261E+02 -0.18861013717E+02  0.38425405056E+02  0.00000000000E+00 0.  1.
</event>
<event>
 8    1  0.1212194E-006  0.9118800E+02  0.7816164E-02  0.1184000E+00
        -11   -1    0    0    0    0  0.00000000000E+00  0.00000000000E+00  0.45593999997E+02  0.45594000000E+02  0.51100000000E-03 0. -1.
         11   -1    0    0    0    0 -0.00000000000E+00 -0.00000000000E+00 -0.45593999997E+02  0.45594000000E+02  0.51100000000E-03 0.  1.
         23    2    1    2    0    0  0.00000000000E+00  0.17763568394E-14  0.00000000000E+00  0.91188000000E+02  0.91188000000E+02 0.  0.
    9900012    2    3    3    0    0  0.33501157142E+02  0.12847098672E+02  0.82706116436E+01  0.54367102522E+02  0.40000041819E+02 0.  0.
         12    1    3    3    0    0 -0.33501157142E+02 -0.12847098672E+02 -0.82706116436E+01  0.36820897478E+02  0.00000000000E+00 0. -1.
         11    1    4    4    0    0 -0.70002317761E+01  0.78083716877E+01  0.26145234213E+01  0.10807851142E+02  0.51100000000E-03 0. -1.
        -11    1    4    4    0    0  0.11307238881E+02  0.73081841559E+00  0.81295251925E+01  0.13945498441E+02  0.51100000000E-03 0.  1.
        -12    1    4    4    0    0  0.29194150037E+02  0.43079085687E+01 -0.24734369702E+01  0.29613752938E+02  0.00000000000E+00 0.  1.
</event>
<event>
 8    1  0.1212194E-006  0.9118800E+02  0.7816164E-02  0.1184000E+00
        -11   -1    0    0    0    0  0.00000000000E+00  0.00000000000E+00  0.45593999997E+02  0.45594000000E+02  0.51100000000E-03 0. -1.
         11   -1    0    0    0    0 -0.00000000000E+00 -0.00000000000E+00 -0.45593999997E+02  0.45594000000E+02  0.51100000000E-03 0.  1.
         23    2    1    2    0    0 -0.35527136788E-14  0.00000000000E+00 -0.41633363423E-16  0.91188000000E+02  0.91188000000E+02 0.  0.
    9900012    2    3    3    0    0 -0.14932395109E+02  0.33656900998E+02  0.12464306311E+00  0.54367096366E+02  0.40000027786E+02 0.  0.
        -12    1    3    3    0    0  0.14932395109E+02 -0.33656900998E+02 -0.12464306311E+00  0.36820903634E+02  0.00000000000E+00 0.  1.
         11    1    4    4    0    0  0.66702591604E+00  0.84073743681E+01  0.60059948008E+01  0.10353783905E+02  0.51100000000E-03 0. -1.
        -11    1    4    4    0    0 -0.23167302535E+01  0.23599543757E+02 -0.14778550186E+02  0.27941210612E+02  0.51100000000E-03 0.  1.
         12    1    4    4    0    0 -0.13282690772E+02  0.16499828734E+01  0.88971984483E+01  0.16072101849E+02  0.00000000000E+00 0. -1.
</event>
<event>
 8    1  0.1212194E-006  0.9118800E+02  0.7816164E-02  0.1184000E+00
        -11   -1    0    0    0    0  0.00000000000E+00  0.00000000000E+00  0.45593999997E+02  0.45594000000E+02  0.51100000000E-03 0.  1.
         11   -1    0    0    0    0 -0.00000000000E+00 -0.00000000000E+00 -0.45593999997E+02  0.45594000000E+02  0.51100000000E-03 0. -1.
         23    2    1    2    0    0 -0.35527136788E-14  0.00000000000E+00 -0.66613381478E-15  0.91188000000E+02  0.91188000000E+02 0.  0.
    9900012    2    3    3    0    0  0.29209283945E+02 -0.22382202535E+02 -0.12783124891E+01  0.54367090971E+02  0.40000015486E+02 0.  0.
         12    1    3    3    0    0 -0.29209283945E+02  0.22382202535E+02  0.12783124891E+01  0.36820909029E+02  0.00000000000E+00 0. -1.
         11    1    4    4    0    0  0.53724039342E+01 -0.91014147757E+01 -0.40565497687E+01  0.11320515502E+02  0.51100000000E-03 0. -1.
        -11    1    4    4    0    0  0.10321109935E+02  0.25189920392E+01 -0.13113336260E+02  0.16876913797E+02  0.51100000000E-03 0.  1.
        -12    1    4    4    0    0  0.13515770076E+02 -0.15799779799E+02  0.15891573539E+02  0.26169661671E+02  0.00000000000E+00 0.  1.
</event>
<event>
 8    1  0.1212194E-006  0.9118800E+02  0.7816164E-02  0.1184000E+00
        -11   -1    0    0    0    0  0.00000000000E+00  0.00000000000E+00  0.45593999997E+02  0.45594000000E+02  0.51100000000E-03 0. -1.
         11   -1    0    0    0    0 -0.00000000000E+00 -0.00000000000E+00 -0.45593999997E+02  0.45594000000E+02  0.51100000000E-03 0.  1.
         23    2    1    2    0    0  0.00000000000E+00  0.17763568394E-14 -0.88817841970E-15  0.91188000000E+02  0.91188000000E+02 0.  0.
    9900012    2    3    3    0    0 -0.32707480269E+02  0.15708740678E+02 -0.62638238175E+01  0.54367091700E+02  0.40000017148E+02 0.  0.
         12    1    3    3    0    0  0.32707480269E+02 -0.15708740678E+02  0.62638238175E+01  0.36820908300E+02  0.00000000000E+00 0. -1.
         11    1    4    4    0    0 -0.60670399330E+01 -0.90176293858E+01  0.93218081867E+01  0.14318614508E+02  0.51100000000E-03 0. -1.
        -11    1    4    4    0    0 -0.87172634093E+01  0.12109347367E+02 -0.73593268837E+01  0.16636906787E+02  0.51100000000E-03 0.  1.
         12    1    4    4    0    0 -0.17923176927E+02  0.12617022696E+02 -0.82263051206E+01  0.23411570405E+02  0.00000000000E+00 0. -1.
</event>
<event>
 8    1  0.1212194E-006  0.9118800E+02  0.7816164E-02  0.1184000E+00
        -11   -1    0    0    0    0  0.00000000000E+00  0.00000000000E+00  0.45593999997E+02  0.45594000000E+02  0.51100000000E-03 0. -1.
         11   -1    0    0    0    0 -0.00000000000E+00 -0.00000000000E+00 -0.45593999997E+02  0.45594000000E+02  0.51100000000E-03 0.  1.
         23    2    1    2    0    0  0.00000000000E+00  0.00000000000E+00  0.35527136788E-14  0.91188000000E+02  0.91188000000E+02 0.  0.
    9900012    2    3    3    0    0 -0.27507457205E+02 -0.12985431486E+02  0.20748444873E+02  0.54367087499E+02  0.40000007571E+02 0.  0.
        -12    1    3    3    0    0  0.27507457205E+02  0.12985431486E+02 -0.20748444873E+02  0.36820912501E+02  0.00000000000E+00 0.  1.
         11    1    4    4    0    0 -0.18216318998E+02 -0.13179249485E+02  0.15262479595E+02  0.27174807791E+02  0.51100000000E-03 0. -1.
        -11    1    4    4    0    0  0.21126279386E+01 -0.17040095277E+01 -0.85719438593E+01  0.89913884948E+01  0.51100000000E-03 0.  1.
         12    1    4    4    0    0 -0.11403766146E+02  0.18978275269E+01  0.14057909137E+02  0.18200891213E+02  0.00000000000E+00 0. -1.
</event>
<event>
 8    1  0.1212194E-006  0.9118800E+02  0.7816164E-02  0.1184000E+00
        -11   -1    0    0    0    0  0.00000000000E+00  0.00000000000E+00  0.45593999997E+02  0.45594000000E+02  0.51100000000E-03 0. -1.
         11   -1    0    0    0    0 -0.00000000000E+00 -0.00000000000E+00 -0.45593999997E+02  0.45594000000E+02  0.51100000000E-03 0.  1.
         23    2    1    2    0    0  0.35527136788E-14 -0.88817841970E-15  0.35527136788E-14  0.91188000000E+02  0.91188000000E+02 0.  0.
    9900012    2    3    3    0    0 -0.23962758723E+02  0.65820119056E+01 -0.27170627596E+02  0.54367086237E+02  0.40000004695E+02 0.  0.
         12    1    3    3    0    0  0.23962758723E+02 -0.65820119056E+01  0.27170627596E+02  0.36820913763E+02  0.00000000000E+00 0. -1.
         11    1    4    4    0    0 -0.20060830557E+02 -0.50932723264E+01 -0.10608568867E+02  0.23257688606E+02  0.51100000000E-03 0. -1.
        -11    1    4    4    0    0  0.41500483338E+01 -0.20212654621E+01 -0.14342537130E+02  0.15067076253E+02  0.51100000000E-03 0.  1.
        -12    1    4    4    0    0 -0.80519765000E+01  0.13696549694E+02 -0.22195215999E+01  0.16042321379E+02  0.00000000000E+00 0.  1.
</event>
<event>
 8    1  0.1212194E-006  0.9118800E+02  0.7816164E-02  0.1184000E+00
        -11   -1    0    0    0    0  0.00000000000E+00  0.00000000000E+00  0.45593999997E+02  0.45594000000E+02  0.51100000000E-03 0. -1.
         11   -1    0    0    0    0 -0.00000000000E+00 -0.00000000000E+00 -0.45593999997E+02  0.45594000000E+02  0.51100000000E-03 0.  1.
         23    2    1    2    0    0  0.00000000000E+00  0.35527136788E-14  0.17763568394E-14  0.91188000000E+02  0.91188000000E+02 0.  0.
    9900012    2    3    3    0    0 -0.21756912081E+02 -0.27867208770E+02  0.10287744448E+02  0.54367051700E+02  0.39999925960E+02 0.  0.
         12    1    3    3    0    0  0.21756912081E+02  0.27867208770E+02 -0.10287744448E+02  0.36820948300E+02  0.00000000000E+00 0. -1.
         11    1    4    4    0    0 -0.24932581873E+01 -0.15660812042E+02 -0.33341183454E+01  0.16204743614E+02  0.51100000000E-03 0. -1.
        -11    1    4    4    0    0 -0.82106514034E+01 -0.10727005789E+02 -0.66263662063E+01  0.15046334405E+02  0.51100000000E-03 0.  1.
         12    1    4    4    0    0 -0.11053002490E+02 -0.14793909387E+01  0.20248228999E+02  0.23115973681E+02  0.00000000000E+00 0. -1.
</event>
<event>
 8    1  0.1212194E-006  0.9118800E+02  0.7816164E-02  0.1184000E+00
        -11   -1    0    0    0    0  0.00000000000E+00  0.00000000000E+00  0.45593999997E+02  0.45594000000E+02  0.51100000000E-03 0. -1.
         11   -1    0    0    0    0 -0.00000000000E+00 -0.00000000000E+00 -0.45593999997E+02  0.45594000000E+02  0.51100000000E-03 0.  1.
         23    2    1    2    0    0  0.00000000000E+00  0.00000000000E+00  0.00000000000E+00  0.91188000000E+02  0.91188000000E+02 0.  0.
    9900012    2    3    3    0    0 -0.35999472336E+01 -0.32128728670E+02  0.17622874995E+02  0.54367074576E+02  0.39999978110E+02 0.  0.
        -12    1    3    3    0    0  0.35999472336E+01  0.32128728670E+02 -0.17622874995E+02  0.36820925424E+02  0.00000000000E+00 0.  1.
         11    1    4    4    0    0  0.48297496997E+01 -0.61079600612E+00  0.41970935289E+01  0.64276860746E+01  0.51100000000E-03 0. -1.
        -11    1    4    4    0    0  0.11570647658E+01  0.41496050093E+01 -0.50538739358E+01  0.66407576846E+01  0.51100000000E-03 0.  1.
         12    1    4    4    0    0 -0.95867616991E+01 -0.35667537673E+02  0.18479655402E+02  0.41298630816E+02  0.00000000000E+00 0. -1.
</event>
<event>
 8    1  0.1212194E-006  0.9118800E+02  0.7816164E-02  0.1184000E+00
        -11   -1    0    0    0    0  0.00000000000E+00  0.00000000000E+00  0.45593999997E+02  0.45594000000E+02  0.51100000000E-03 0. -1.
         11   -1    0    0    0    0 -0.00000000000E+00 -0.00000000000E+00 -0.45593999997E+02  0.45594000000E+02  0.51100000000E-03 0.  1.
         23    2    1    2    0    0  0.00000000000E+00 -0.88817841970E-15  0.88817841970E-15  0.91188000000E+02  0.91188000000E+02 0.  0.
    9900012    2    3    3    0    0 -0.35312349568E+02  0.74954404586E+01 -0.72550587709E+01  0.54367088313E+02  0.40000009427E+02 0.  0.
        -12    1    3    3    0    0  0.35312349568E+02 -0.74954404586E+01  0.72550587709E+01  0.36820911687E+02  0.00000000000E+00 0.  1.
         11    1    4    4    0    0 -0.14819834138E+02  0.23227312786E+01  0.47347432892E+01  0.15730237085E+02  0.51100000000E-03 0. -1.
        -11    1    4    4    0    0 -0.54478951418E+01  0.14083862825E+02 -0.14543818346E+02  0.20965624386E+02  0.51100000000E-03 0.  1.
        -12    1    4    4    0    0 -0.15044620288E+02 -0.89111536451E+01  0.25540162856E+01  0.17671226842E+02  0.00000000000E+00 0.  1.
</event>
<event>
 8    1  0.1212194E-006  0.9118800E+02  0.7816164E-02  0.1184000E+00
        -11   -1    0    0    0    0  0.00000000000E+00  0.00000000000E+00  0.45593999997E+02  0.45594000000E+02  0.51100000000E-03 0. -1.
         11   -1    0    0    0    0 -0.00000000000E+00 -0.00000000000E+00 -0.45593999997E+02  0.45594000000E+02  0.51100000000E-03 0.  1.
         23    2    1    2    0    0  0.00000000000E+00  0.26645352591E-14 -0.17763568394E-14  0.91188000000E+02  0.91188000000E+02 0.  0.
    9900012    2    3    3    0    0 -0.34383957246E+02  0.73516332667E+01 -0.10931228782E+02  0.54366881192E+02  0.39999537251E+02 0.  0.
         12    1    3    3    0    0  0.34383957246E+02 -0.73516332667E+01  0.10931228782E+02  0.36821118808E+02  0.00000000000E+00 0. -1.
         11    1    4    4    0    0 -0.46370231180E+01 -0.72881349215E+01  0.10654545649E+02  0.13716349269E+02  0.51100000000E-03 0. -1.
        -11    1    4    4    0    0 -0.17611959872E+02  0.13623467847E+02 -0.14179565733E+02  0.26397728905E+02  0.51100000000E-03 0.  1.
         12    1    4    4    0    0 -0.12134974256E+02  0.10163003412E+01 -0.74062086978E+01  0.14252803017E+02  0.00000000000E+00 0. -1.
</event>
<event>
 8    1  0.1212194E-006  0.9118800E+02  0.7816164E-02  0.1184000E+00
        -11   -1    0    0    0    0  0.00000000000E+00  0.00000000000E+00  0.45593999997E+02  0.45594000000E+02  0.51100000000E-03 0.  1.
         11   -1    0    0    0    0 -0.00000000000E+00 -0.00000000000E+00 -0.45593999997E+02  0.45594000000E+02  0.51100000000E-03 0. -1.
         23    2    1    2    0    0 -0.35527136788E-14 -0.35527136788E-14 -0.17763568394E-14  0.91188000000E+02  0.91188000000E+02 0.  0.
    9900012    2    3    3    0    0  0.23493331522E+02  0.25390470079E+02 -0.12616152393E+02  0.54367083417E+02  0.39999998265E+02 0.  0.
        -12    1    3    3    0    0 -0.23493331522E+02 -0.25390470079E+02  0.12616152393E+02  0.36820916583E+02  0.00000000000E+00 0.  1.
         11    1    4    4    0    0  0.26765713623E+01 -0.48743291977E+01  0.17470369809E+01  0.58288298876E+01  0.51100000000E-03 0. -1.
        -11    1    4    4    0    0  0.11676490340E+02  0.31224687631E+02 -0.23590173087E+01  0.33419851993E+02  0.51100000000E-03 0.  1.
         12    1    4    4    0    0  0.91402698190E+01 -0.95988835445E+00 -0.12004172066E+02  0.15118401536E+02  0.00000000000E+00 0. -1.
</event>
<event>
 8    1  0.1212194E-006  0.9118800E+02  0.7816164E-02  0.1184000E+00
        -11   -1    0    0    0    0  0.00000000000E+00  0.00000000000E+00  0.45593999997E+02  0.45594000000E+02  0.51100000000E-03 0.  1.
         11   -1    0    0    0    0 -0.00000000000E+00 -0.00000000000E+00 -0.45593999997E+02  0.45594000000E+02  0.51100000000E-03 0. -1.
         23    2    1    2    0    0  0.00000000000E+00  0.00000000000E+00  0.71054273576E-14  0.91188000000E+02  0.91188000000E+02 0.  0.
    9900012    2    3    3    0    0 -0.12516303659E+02 -0.87481467078E+01 -0.33505027444E+02  0.54367152751E+02  0.40000156327E+02 0.  0.
        -12    1    3    3    0    0  0.12516303659E+02  0.87481467078E+01  0.33505027444E+02  0.36820847249E+02  0.00000000000E+00 0.  1.
         11    1    4    4    0    0 -0.11301270251E+02 -0.13359776847E+02 -0.83666704624E+01  0.19395966631E+02  0.51100000000E-03 0. -1.
        -11    1    4    4    0    0  0.11016500530E+01 -0.93513409058E+01 -0.14398062082E+02  0.17203645008E+02  0.51100000000E-03 0.  1.
        -12    1    4    4    0    0 -0.23166834607E+01  0.13962971045E+02 -0.10740294899E+02  0.17767541112E+02  0.00000000000E+00 0.  1.
</event>
<event>
 8    1  0.1212194E-006  0.9118800E+02  0.7816164E-02  0.1184000E+00
        -11   -1    0    0    0    0  0.00000000000E+00  0.00000000000E+00  0.45593999997E+02  0.45594000000E+02  0.51100000000E-03 0.  1.
         11   -1    0    0    0    0 -0.00000000000E+00 -0.00000000000E+00 -0.45593999997E+02  0.45594000000E+02  0.51100000000E-03 0. -1.
         23    2    1    2    0    0  0.00000000000E+00  0.22204460493E-15  0.17763568394E-14  0.91188000000E+02  0.91188000000E+02 0.  0.
    9900012    2    3    3    0    0 -0.34589716132E+02 -0.12866274425E+01  0.12556939915E+02  0.54367073718E+02  0.39999976154E+02 0.  0.
        -12    1    3    3    0    0  0.34589716132E+02  0.12866274425E+01 -0.12556939915E+02  0.36820926282E+02  0.00000000000E+00 0.  1.
         11    1    4    4    0    0 -0.51405653648E+01 -0.99724737762E+01 -0.77296473491E+01  0.13624356641E+02  0.51100000000E-03 0. -1.
        -11    1    4    4    0    0 -0.77050761690E+01  0.40798164089E+01  0.15832399309E+02  0.18074234945E+02  0.51100000000E-03 0.  1.
         12    1    4    4    0    0 -0.21744074598E+02  0.46060299248E+01  0.44541879551E+01  0.22668482131E+02  0.00000000000E+00 0. -1.
</event>
<event>
 8    1  0.1212194E-006  0.9118800E+02  0.7816164E-02  0.1184000E+00
        -11   -1    0    0    0    0  0.00000000000E+00  0.00000000000E+00  0.45593999997E+02  0.45594000000E+02  0.51100000000E-03 0.  1.
         11   -1    0    0    0    0 -0.00000000000E+00 -0.00000000000E+00 -0.45593999997E+02  0.45594000000E+02  0.51100000000E-03 0. -1.
         23    2    1    2    0    0  0.88817841970E-15  0.00000000000E+00 -0.17763568394E-14  0.91188000000E+02  0.91188000000E+02 0.  0.
    9900012    2    3    3    0    0 -0.53791104420E+01 -0.33412176836E+02 -0.14507627255E+02  0.54367086940E+02  0.40000006296E+02 0.  0.
        -12    1    3    3    0    0  0.53791104420E+01  0.33412176836E+02  0.14507627255E+02  0.36820913060E+02  0.00000000000E+00 0.  1.
         11    1    4    4    0    0  0.79262507357E+01 -0.32185290332E+01 -0.10587093511E+02  0.13611426418E+02  0.51100000000E-03 0. -1.
        -11    1    4    4    0    0  0.15230538799E+01 -0.19115765647E+02  0.55509337203E+01  0.19963593234E+02  0.51100000000E-03 0.  1.
         12    1    4    4    0    0 -0.14828415058E+02 -0.11077882155E+02 -0.94714674638E+01  0.20792067287E+02  0.00000000000E+00 0. -1.
</event>
<event>
 8    1  0.1212194E-006  0.9118800E+02  0.7816164E-02  0.1184000E+00
        -11   -1    0    0    0    0  0.00000000000E+00  0.00000000000E+00  0.45593999997E+02  0.45594000000E+02  0.51100000000E-03 0.  1.
         11   -1    0    0    0    0 -0.00000000000E+00 -0.00000000000E+00 -0.45593999997E+02  0.45594000000E+02  0.51100000000E-03 0. -1.
         23    2    1    2    0    0  0.00000000000E+00  0.35527136788E-14  0.35527136788E-14  0.91188000000E+02  0.91188000000E+02 0.  0.
    9900012    2    3    3    0    0 -0.18288102949E+02 -0.18368220632E+02 -0.26152137366E+02  0.54367074869E+02  0.39999978780E+02 0.  0.
        -12    1    3    3    0    0  0.18288102949E+02  0.18368220632E+02  0.26152137366E+02  0.36820925131E+02  0.00000000000E+00 0.  1.
         11    1    4    4    0    0 -0.34045436409E+01 -0.24021285940E+02 -0.96050699059E+01  0.26093494664E+02  0.51100000000E-03 0.  1.
        -11    1    4    4    0    0 -0.29374821384E+01  0.19057333813E+01 -0.15295466789E+02  0.15691141628E+02  0.51100000000E-03 0. -1.
        -12    1    4    4    0    0 -0.11946077169E+02  0.37473319267E+01 -0.12516006712E+01  0.12582438577E+02  0.00000000000E+00 0.  1.
</event>
<event>
 8    1  0.1212194E-006  0.9118800E+02  0.7816164E-02  0.1184000E+00
        -11   -1    0    0    0    0  0.00000000000E+00  0.00000000000E+00  0.45593999997E+02  0.45594000000E+02  0.51100000000E-03 0. -1.
         11   -1    0    0    0    0 -0.00000000000E+00 -0.00000000000E+00 -0.45593999997E+02  0.45594000000E+02  0.51100000000E-03 0.  1.
         23    2    1    2    0    0  0.00000000000E+00  0.00000000000E+00  0.00000000000E+00  0.91188000000E+02  0.91188000000E+02 0.  0.
    9900012    2    3    3    0    0 -0.27543216246E+02  0.15557489597E+02 -0.18844500832E+02  0.54367089428E+02  0.40000011969E+02 0.  0.
         12    1    3    3    0    0  0.27543216246E+02 -0.15557489597E+02  0.18844500832E+02  0.36820910572E+02  0.00000000000E+00 0. -1.
         11    1    4    4    0    0 -0.56022537530E+01 -0.50973208569E+01 -0.40672166273E+01  0.85971029066E+01  0.51100000000E-03 0. -1.
        -11    1    4    4    0    0 -0.90214660589E+01  0.49143465274E+01 -0.21905526453E+02  0.24194828809E+02  0.51100000000E-03 0.  1.
         12    1    4    4    0    0 -0.12919496434E+02  0.15740463927E+02  0.71282422488E+01  0.21575157712E+02  0.00000000000E+00 0. -1.
</event>
<event>
 8    1  0.1212194E-006  0.9118800E+02  0.7816164E-02  0.1184000E+00
        -11   -1    0    0    0    0  0.00000000000E+00  0.00000000000E+00  0.45593999997E+02  0.45594000000E+02  0.51100000000E-03 0.  1.
         11   -1    0    0    0    0 -0.00000000000E+00 -0.00000000000E+00 -0.45593999997E+02  0.45594000000E+02  0.51100000000E-03 0. -1.
         23    2    1    2    0    0  0.35527136788E-14  0.13322676296E-14  0.00000000000E+00  0.91188000000E+02  0.91188000000E+02 0.  0.
    9900012    2    3    3    0    0  0.31582743214E+02 -0.37581467371E+01 -0.18552270044E+02  0.54367081223E+02  0.39999993264E+02 0.  0.
        -12    1    3    3    0    0 -0.31582743214E+02  0.37581467371E+01  0.18552270044E+02  0.36820918777E+02  0.00000000000E+00 0.  1.
         11    1    4    4    0    0  0.18460151270E+02  0.34457356008E+01 -0.18378227654E+02  0.26275645201E+02  0.51100000000E-03 0. -1.
        -11    1    4    4    0    0  0.93533140795E+01  0.73143334733E+01  0.39874395708E+01  0.12525319677E+02  0.51100000000E-03 0.  1.
         12    1    4    4    0    0  0.37692778637E+01 -0.14518215811E+02 -0.41614819606E+01  0.15566116345E+02  0.00000000000E+00 0. -1.
</event>
<event>
 8    1  0.1212194E-006  0.9118800E+02  0.7816164E-02  0.1184000E+00
        -11   -1    0    0    0    0  0.00000000000E+00  0.00000000000E+00  0.45593999997E+02  0.45594000000E+02  0.51100000000E-03 0.  1.
         11   -1    0    0    0    0 -0.00000000000E+00 -0.00000000000E+00 -0.45593999997E+02  0.45594000000E+02  0.51100000000E-03 0. -1.
         23    2    1    2    0    0 -0.35527136788E-14  0.00000000000E+00  0.00000000000E+00  0.91188000000E+02  0.91188000000E+02 0.  0.
    9900012    2    3    3    0    0  0.18226094166E+02  0.30313815569E+02 -0.10230425510E+02  0.54367088427E+02  0.40000009688E+02 0.  0.
        -12    1    3    3    0    0 -0.18226094166E+02 -0.30313815569E+02  0.10230425510E+02  0.36820911573E+02  0.00000000000E+00 0.  1.
         11    1    4    4    0    0 -0.29691022951E+01  0.18659217117E+02 -0.95697081331E+01  0.21179264998E+02  0.51100000000E-03 0. -1.
        -11    1    4    4    0    0 -0.45844384182E+01  0.28569135449E+01  0.21283489333E+01  0.58059366218E+01  0.51100000000E-03 0.  1.
         12    1    4    4    0    0  0.25779634879E+02  0.87976849076E+01 -0.27890663100E+01  0.27381886807E+02  0.00000000000E+00 0. -1.
</event>
<event>
 8    1  0.1212194E-006  0.9118800E+02  0.7816164E-02  0.1184000E+00
        -11   -1    0    0    0    0  0.00000000000E+00  0.00000000000E+00  0.45593999997E+02  0.45594000000E+02  0.51100000000E-03 0.  1.
         11   -1    0    0    0    0 -0.00000000000E+00 -0.00000000000E+00 -0.45593999997E+02  0.45594000000E+02  0.51100000000E-03 0. -1.
         23    2    1    2    0    0 -0.17763568394E-14  0.00000000000E+00  0.00000000000E+00  0.91188000000E+02  0.91188000000E+02 0.  0.
    9900012    2    3    3    0    0  0.96968487074E+01 -0.12614927600E+02 -0.33205639047E+02  0.54367085593E+02  0.40000003227E+02 0.  0.
        -12    1    3    3    0    0 -0.96968487074E+01  0.12614927600E+02  0.33205639047E+02  0.36820914407E+02  0.00000000000E+00 0.  1.
         11    1    4    4    0    0  0.23182228830E+02 -0.97120573079E+01 -0.23290374557E+02  0.34266329508E+02  0.51100000000E-03 0. -1.
        -11    1    4    4    0    0 -0.68034467132E+01 -0.46798004233E+01 -0.30691481596E+00  0.82632690956E+01  0.51100000000E-03 0.  1.
         12    1    4    4    0    0 -0.66819334092E+01  0.17769301307E+01 -0.96083496742E+01  0.11837486990E+02  0.00000000000E+00 0. -1.
</event>
<event>
 8    1  0.1212194E-006  0.9118800E+02  0.7816164E-02  0.1184000E+00
        -11   -1    0    0    0    0  0.00000000000E+00  0.00000000000E+00  0.45593999997E+02  0.45594000000E+02  0.51100000000E-03 0.  1.
         11   -1    0    0    0    0 -0.00000000000E+00 -0.00000000000E+00 -0.45593999997E+02  0.45594000000E+02  0.51100000000E-03 0. -1.
         23    2    1    2    0    0 -0.88817841970E-15  0.35527136788E-14 -0.35527136788E-14  0.91188000000E+02  0.91188000000E+02 0.  0.
    9900012    2    3    3    0    0 -0.74591123360E+01 -0.18289514728E+02  0.31074623224E+02  0.54367123933E+02  0.40000090630E+02 0.  0.
         12    1    3    3    0    0  0.74591123360E+01  0.18289514728E+02 -0.31074623224E+02  0.36820876067E+02  0.00000000000E+00 0. -1.
         11    1    4    4    0    0  0.24227124004E+01 -0.12930303188E+02  0.57297140039E+00  0.13167785402E+02  0.51100000000E-03 0. -1.
        -11    1    4    4    0    0 -0.17119901389E+02  0.16341418805E+01  0.22623484951E+02  0.28418013914E+02  0.51100000000E-03 0.  1.
        -12    1    4    4    0    0  0.72380766521E+01 -0.69933534203E+01  0.78781668727E+01  0.12781324617E+02  0.00000000000E+00 0.  1.
</event>
<event>
 8    1  0.1212194E-006  0.9118800E+02  0.7816164E-02  0.1184000E+00
        -11   -1    0    0    0    0  0.00000000000E+00  0.00000000000E+00  0.45593999997E+02  0.45594000000E+02  0.51100000000E-03 0. -1.
         11   -1    0    0    0    0 -0.00000000000E+00 -0.00000000000E+00 -0.45593999997E+02  0.45594000000E+02  0.51100000000E-03 0.  1.
         23    2    1    2    0    0  0.00000000000E+00  0.00000000000E+00  0.00000000000E+00  0.91188000000E+02  0.91188000000E+02 0.  0.
    9900012    2    3    3    0    0  0.32317301176E+02  0.25339406338E+01  0.17462844722E+02  0.54367085342E+02  0.40000002655E+02 0.  0.
        -12    1    3    3    0    0 -0.32317301176E+02 -0.25339406338E+01 -0.17462844722E+02  0.36820914658E+02  0.00000000000E+00 0.  1.
         11    1    4    4    0    0  0.15187489753E+02 -0.13580886076E+02 -0.55434408863E+01  0.21114687985E+02  0.51100000000E-03 0.  1.
        -11    1    4    4    0    0  0.40965137093E+01  0.61033761554E+01  0.92875702289E+01  0.11844474918E+02  0.51100000000E-03 0. -1.
        -12    1    4    4    0    0  0.13033297715E+02  0.10011450554E+02  0.13718715379E+02  0.21407922439E+02  0.00000000000E+00 0.  1.
</event>
<event>
 8    1  0.1212194E-006  0.9118800E+02  0.7816164E-02  0.1184000E+00
        -11   -1    0    0    0    0  0.00000000000E+00  0.00000000000E+00  0.45593999997E+02  0.45594000000E+02  0.51100000000E-03 0.  1.
         11   -1    0    0    0    0 -0.00000000000E+00 -0.00000000000E+00 -0.45593999997E+02  0.45594000000E+02  0.51100000000E-03 0. -1.
         23    2    1    2    0    0  0.00000000000E+00  0.00000000000E+00  0.35527136788E-14  0.91188000000E+02  0.91188000000E+02 0.  0.
    9900012    2    3    3    0    0  0.17371627935E+02  0.84529666317E+01  0.31345694316E+02  0.54367100308E+02  0.40000036772E+02 0.  0.
         12    1    3    3    0    0 -0.17371627935E+02 -0.84529666317E+01 -0.31345694316E+02  0.36820899692E+02  0.00000000000E+00 0. -1.
         11    1    4    4    0    0  0.16233299552E+02 -0.68808422162E+01  0.71811394059E+01  0.19037719595E+02  0.51100000000E-03 0. -1.
        -11    1    4    4    0    0  0.91840262635E+01  0.13695506589E+01  0.11805849978E+02  0.15019990059E+02  0.51100000000E-03 0.  1.
        -12    1    4    4    0    0 -0.80456978801E+01  0.13964258189E+02  0.12358704932E+02  0.20309390654E+02  0.00000000000E+00 0.  1.
</event>
<event>
 8    1  0.1212194E-006  0.9118800E+02  0.7816164E-02  0.1184000E+00
        -11   -1    0    0    0    0  0.00000000000E+00  0.00000000000E+00  0.45593999997E+02  0.45594000000E+02  0.51100000000E-03 0.  1.
         11   -1    0    0    0    0 -0.00000000000E+00 -0.00000000000E+00 -0.45593999997E+02  0.45594000000E+02  0.51100000000E-03 0. -1.
         23    2    1    2    0    0  0.00000000000E+00  0.00000000000E+00  0.00000000000E+00  0.91188000000E+02  0.91188000000E+02 0.  0.
    9900012    2    3    3    0    0  0.26985287478E+02  0.17554782324E+02  0.17872055209E+02  0.54366994037E+02  0.39999794506E+02 0.  0.
         12    1    3    3    0    0 -0.26985287478E+02 -0.17554782324E+02 -0.17872055209E+02  0.36821005963E+02  0.00000000000E+00 0. -1.
         11    1    4    4    0    0  0.90194811906E+01 -0.44274379344E+01 -0.14417988915E+01  0.10150469542E+02  0.51100000000E-03 0. -1.
        -11    1    4    4    0    0  0.59314688677E+01  0.98483266645E+01 -0.65387346082E+01  0.13225993783E+02  0.51100000000E-03 0.  1.
        -12    1    4    4    0    0  0.12034337419E+02  0.12133893594E+02  0.25852588709E+02  0.30990530712E+02  0.00000000000E+00 0.  1.
</event>
<event>
 8    1  0.1212194E-006  0.9118800E+02  0.7816164E-02  0.1184000E+00
        -11   -1    0    0    0    0  0.00000000000E+00  0.00000000000E+00  0.45593999997E+02  0.45594000000E+02  0.51100000000E-03 0.  1.
         11   -1    0    0    0    0 -0.00000000000E+00 -0.00000000000E+00 -0.45593999997E+02  0.45594000000E+02  0.51100000000E-03 0. -1.
         23    2    1    2    0    0  0.00000000000E+00  0.17763568394E-14 -0.35527136788E-14  0.91188000000E+02  0.91188000000E+02 0.  0.
    9900012    2    3    3    0    0  0.20317273180E+02  0.14712374012E+02 -0.26954306807E+02  0.54367079398E+02  0.39999989103E+02 0.  0.
        -12    1    3    3    0    0 -0.20317273180E+02 -0.14712374012E+02  0.26954306807E+02  0.36820920602E+02  0.00000000000E+00 0.  1.
         11    1    4    4    0    0 -0.22501195121E+00  0.46107432273E+01 -0.79436629640E+01  0.91875657839E+01  0.51100000000E-03 0.  1.
        -11    1    4    4    0    0 -0.42520148640E+01  0.12169244527E+02 -0.15328265681E+02  0.20028127017E+02  0.51100000000E-03 0. -1.
        -12    1    4    4    0    0  0.24794299995E+02 -0.20676137421E+01 -0.36823781623E+01  0.25151386597E+02  0.00000000000E+00 0.  1.
</event>
<event>
 8    1  0.1212194E-006  0.9118800E+02  0.7816164E-02  0.1184000E+00
        -11   -1    0    0    0    0  0.00000000000E+00  0.00000000000E+00  0.45593999997E+02  0.45594000000E+02  0.51100000000E-03 0.  1.
         11   -1    0    0    0    0 -0.00000000000E+00 -0.00000000000E+00 -0.45593999997E+02  0.45594000000E+02  0.51100000000E-03 0. -1.
         23    2    1    2    0    0  0.71054273576E-14  0.00000000000E+00  0.88817841970E-15  0.91188000000E+02  0.91188000000E+02 0.  0.
    9900012    2    3    3    0    0 -0.35042852258E+02  0.98156441267E+01 -0.56063694043E+01  0.54367085537E+02  0.40000003098E+02 0.  0.
         12    1    3    3    0    0  0.35042852258E+02 -0.98156441267E+01  0.56063694043E+01  0.36820914463E+02  0.00000000000E+00 0. -1.
         11    1    4    4    0    0 -0.19228132497E+02  0.78403856280E+01 -0.17119483650E+01  0.20835630386E+02  0.51100000000E-03 0. -1.
        -11    1    4    4    0    0 -0.24237395172E+02  0.96015342551E+00 -0.55609639236E+01  0.24885689448E+02  0.51100000000E-03 0.  1.
         12    1    4    4    0    0  0.84226754109E+01  0.10151050732E+01  0.16665428843E+01  0.86457657019E+01  0.00000000000E+00 0. -1.
</event>
<event>
 8    1  0.1212194E-006  0.9118800E+02  0.7816164E-02  0.1184000E+00
        -11   -1    0    0    0    0  0.00000000000E+00  0.00000000000E+00  0.45593999997E+02  0.45594000000E+02  0.51100000000E-03 0.  1.
         11   -1    0    0    0    0 -0.00000000000E+00 -0.00000000000E+00 -0.45593999997E+02  0.45594000000E+02  0.51100000000E-03 0. -1.
         23    2    1    2    0    0  0.35527136788E-14 -0.35527136788E-14  0.35527136788E-14  0.91188000000E+02  0.91188000000E+02 0.  0.
    9900012    2    3    3    0    0 -0.19703984470E+02  0.17349318543E+02 -0.25817327150E+02  0.54367078786E+02  0.39999987709E+02 0.  0.
        -12    1    3    3    0    0  0.19703984470E+02 -0.17349318543E+02  0.25817327150E+02  0.36820921214E+02  0.00000000000E+00 0.  1.
         11    1    4    4    0    0 -0.17290349996E+01  0.46773312283E+01  0.26737283893E+01  0.56582517804E+01  0.51100000000E-03 0.  1.
        -11    1    4    4    0    0  0.71603643869E+01  0.86336099096E+01 -0.17925956544E+02  0.21145920564E+02  0.51100000000E-03 0. -1.
         12    1    4    4    0    0 -0.25135313857E+02  0.40383774046E+01 -0.10565098996E+02  0.27562906442E+02  0.00000000000E+00 0. -1.
</event>
<event>
 8    1  0.1212194E-006  0.9118800E+02  0.7816164E-02  0.1184000E+00
        -11   -1    0    0    0    0  0.00000000000E+00  0.00000000000E+00  0.45593999997E+02  0.45594000000E+02  0.51100000000E-03 0.  1.
         11   -1    0    0    0    0 -0.00000000000E+00 -0.00000000000E+00 -0.45593999997E+02  0.45594000000E+02  0.51100000000E-03 0. -1.
         23    2    1    2    0    0  0.00000000000E+00 -0.35527136788E-14  0.00000000000E+00  0.91188000000E+02  0.91188000000E+02 0.  0.
    9900012    2    3    3    0    0  0.28268055768E+02  0.21643775024E+02  0.93938550763E+01  0.54367075414E+02  0.39999980021E+02 0.  0.
         12    1    3    3    0    0 -0.28268055768E+02 -0.21643775024E+02 -0.93938550763E+01  0.36820924586E+02  0.00000000000E+00 0. -1.
         11    1    4    4    0    0  0.10766234303E+02 -0.25345730558E+01  0.61929173296E+01  0.12676280486E+02  0.51100000000E-03 0. -1.
        -11    1    4    4    0    0  0.24463120873E+02  0.15056256106E+02  0.70678304756E+01  0.29581909314E+02  0.51100000000E-03 0.  1.
        -12    1    4    4    0    0 -0.69612994082E+01  0.91220919741E+01 -0.38668927288E+01  0.12108885614E+02  0.00000000000E+00 0.  1.
</event>
<event>
 8    1  0.1212194E-006  0.9118800E+02  0.7816164E-02  0.1184000E+00
        -11   -1    0    0    0    0  0.00000000000E+00  0.00000000000E+00  0.45593999997E+02  0.45594000000E+02  0.51100000000E-03 0.  1.
         11   -1    0    0    0    0 -0.00000000000E+00 -0.00000000000E+00 -0.45593999997E+02  0.45594000000E+02  0.51100000000E-03 0. -1.
         23    2    1    2    0    0 -0.35527136788E-14  0.17763568394E-14  0.00000000000E+00  0.91188000000E+02  0.91188000000E+02 0.  0.
    9900012    2    3    3    0    0  0.24217315638E+02  0.15249528368E+02  0.23167971613E+02  0.54367063010E+02  0.39999951745E+02 0.  0.
         12    1    3    3    0    0 -0.24217315638E+02 -0.15249528368E+02 -0.23167971613E+02  0.36820936990E+02  0.00000000000E+00 0. -1.
         11    1    4    4    0    0 -0.16481087976E+01  0.85626799738E+01  0.81843491849E+01  0.11959068642E+02  0.51100000000E-03 0. -1.
        -11    1    4    4    0    0  0.22874991221E+02  0.17124978199E+02  0.87347219566E+01  0.29880185234E+02  0.51100000000E-03 0.  1.
         12    1    4    4    0    0  0.29904332145E+01 -0.10438129804E+02  0.62489004710E+01  0.12527809135E+02  0.00000000000E+00 0. -1.
</event>
<event>
 8    1  0.1212194E-006  0.9118800E+02  0.7816164E-02  0.1184000E+00
        -11   -1    0    0    0    0  0.00000000000E+00  0.00000000000E+00  0.45593999997E+02  0.45594000000E+02  0.51100000000E-03 0.  1.
         11   -1    0    0    0    0 -0.00000000000E+00 -0.00000000000E+00 -0.45593999997E+02  0.45594000000E+02  0.51100000000E-03 0. -1.
         23    2    1    2    0    0  0.00000000000E+00  0.00000000000E+00  0.00000000000E+00  0.91188000000E+02  0.91188000000E+02 0.  0.
    9900012    2    3    3    0    0  0.91616884424E+01 -0.17155003738E+02 -0.31265789711E+02  0.54367078031E+02  0.39999985987E+02 0.  0.
        -12    1    3    3    0    0 -0.91616884424E+01  0.17155003738E+02  0.31265789711E+02  0.36820921969E+02  0.00000000000E+00 0.  1.
         11    1    4    4    0    0  0.78328154876E+01  0.69567989992E+01 -0.14066350599E+02  0.17538878819E+02  0.51100000000E-03 0. -1.
        -11    1    4    4    0    0 -0.11129427894E+00 -0.43501495673E+01  0.52936172541E+01  0.68526324554E+01  0.51100000000E-03 0.  1.
         12    1    4    4    0    0  0.14401672337E+01 -0.19761653170E+02 -0.22493056367E+02  0.29975566757E+02  0.00000000000E+00 0. -1.
</event>
<event>
 8    1  0.1212194E-006  0.9118800E+02  0.7816164E-02  0.1184000E+00
        -11   -1    0    0    0    0  0.00000000000E+00  0.00000000000E+00  0.45593999997E+02  0.45594000000E+02  0.51100000000E-03 0.  1.
         11   -1    0    0    0    0 -0.00000000000E+00 -0.00000000000E+00 -0.45593999997E+02  0.45594000000E+02  0.51100000000E-03 0. -1.
         23    2    1    2    0    0  0.00000000000E+00  0.71054273576E-14  0.00000000000E+00  0.91188000000E+02  0.91188000000E+02 0.  0.
    9900012    2    3    3    0    0  0.22260294349E+02  0.26751143793E+02 -0.12026424699E+02  0.54367091677E+02  0.40000017095E+02 0.  0.
        -12    1    3    3    0    0 -0.22260294349E+02 -0.26751143793E+02  0.12026424699E+02  0.36820908323E+02  0.00000000000E+00 0.  1.
         11    1    4    4    0    0 -0.31181361381E+01 -0.37156652408E+01 -0.10099271669E+02  0.11203759622E+02  0.51100000000E-03 0. -1.
        -11    1    4    4    0    0 -0.88033129055E-01  0.11102640540E+02 -0.11389428286E+01  0.11161252968E+02  0.51100000000E-03 0.  1.
         12    1    4    4    0    0  0.25466463616E+02  0.19364168494E+02 -0.78821020150E+00  0.32002079087E+02  0.00000000000E+00 0. -1.
</event>
<event>
 8    1  0.1212194E-006  0.9118800E+02  0.7816164E-02  0.1184000E+00
        -11   -1    0    0    0    0  0.00000000000E+00  0.00000000000E+00  0.45593999997E+02  0.45594000000E+02  0.51100000000E-03 0.  1.
         11   -1    0    0    0    0 -0.00000000000E+00 -0.00000000000E+00 -0.45593999997E+02  0.45594000000E+02  0.51100000000E-03 0. -1.
         23    2    1    2    0    0 -0.35527136788E-14 -0.88817841970E-15  0.71054273576E-14  0.91188000000E+02  0.91188000000E+02 0.  0.
    9900012    2    3    3    0    0  0.17217219806E+02 -0.23264105738E+01 -0.32464369493E+02  0.54367080259E+02  0.39999991067E+02 0.  0.
        -12    1    3    3    0    0 -0.17217219806E+02  0.23264105738E+01  0.32464369493E+02  0.36820919741E+02  0.00000000000E+00 0.  1.
         11    1    4    4    0    0 -0.59009265495E+01 -0.86498158879E+01 -0.59422759320E+01  0.12039555330E+02  0.51100000000E-03 0. -1.
        -11    1    4    4    0    0  0.58841897373E+01  0.42719688699E+01  0.31721801312E+01  0.79332297292E+01  0.51100000000E-03 0.  1.
        -12    1    4    4    0    0  0.17233956618E+02  0.20514364442E+01 -0.29694273692E+02  0.34394295200E+02  0.00000000000E+00 0.  1.
</event>
<event>
 8    1  0.1212194E-006  0.9118800E+02  0.7816164E-02  0.1184000E+00
        -11   -1    0    0    0    0  0.00000000000E+00  0.00000000000E+00  0.45593999997E+02  0.45594000000E+02  0.51100000000E-03 0.  1.
         11   -1    0    0    0    0 -0.00000000000E+00 -0.00000000000E+00 -0.45593999997E+02  0.45594000000E+02  0.51100000000E-03 0. -1.
         23    2    1    2    0    0  0.00000000000E+00 -0.35527136788E-14 -0.35527136788E-14  0.91188000000E+02  0.91188000000E+02 0.  0.
    9900012    2    3    3    0    0  0.19042262352E+02  0.20156358747E+02  0.24225882760E+02  0.54367082725E+02  0.39999996689E+02 0.  0.
         12    1    3    3    0    0 -0.19042262352E+02 -0.20156358747E+02 -0.24225882760E+02  0.36820917275E+02  0.00000000000E+00 0. -1.
         11    1    4    4    0    0 -0.46860507019E+01 -0.67684356594E+01  0.96449285532E+00  0.82886090019E+01  0.51100000000E-03 0. -1.
        -11    1    4    4    0    0  0.14852600412E+02  0.91827838346E+01  0.29921727601E+01  0.17716555987E+02  0.51100000000E-03 0.  1.
        -12    1    4    4    0    0  0.88757126419E+01  0.17742010572E+02  0.20269217145E+02  0.28361917736E+02  0.00000000000E+00 0.  1.
</event>
<event>
 8    1  0.1212194E-006  0.9118800E+02  0.7816164E-02  0.1184000E+00
        -11   -1    0    0    0    0  0.00000000000E+00  0.00000000000E+00  0.45593999997E+02  0.45594000000E+02  0.51100000000E-03 0. -1.
         11   -1    0    0    0    0 -0.00000000000E+00 -0.00000000000E+00 -0.45593999997E+02  0.45594000000E+02  0.51100000000E-03 0.  1.
         23    2    1    2    0    0  0.00000000000E+00  0.71054273576E-14  0.88817841970E-15  0.91188000000E+02  0.91188000000E+02 0.  0.
    9900012    2    3    3    0    0  0.45750037133E+00  0.36192174890E+02  0.67598759323E+01  0.54367098973E+02  0.40000033728E+02 0.  0.
        -12    1    3    3    0    0 -0.45750037133E+00 -0.36192174890E+02 -0.67598759323E+01  0.36820901027E+02  0.00000000000E+00 0.  1.
         11    1    4    4    0    0  0.42315935329E+00  0.11393029873E+00  0.14462491936E+02  0.14469129801E+02  0.51100000000E-03 0. -1.
        -11    1    4    4    0    0 -0.62286533996E+00 -0.14283299491E+01 -0.81523179592E+00  0.17586047928E+01  0.51100000000E-03 0.  1.
        -12    1    4    4    0    0  0.65720635800E+00  0.37506574540E+02 -0.68873842078E+01  0.38139364378E+02  0.00000000000E+00 0.  1.
</event>
<event>
 8    1  0.1212194E-006  0.9118800E+02  0.7816164E-02  0.1184000E+00
        -11   -1    0    0    0    0  0.00000000000E+00  0.00000000000E+00  0.45593999997E+02  0.45594000000E+02  0.51100000000E-03 0. -1.
         11   -1    0    0    0    0 -0.00000000000E+00 -0.00000000000E+00 -0.45593999997E+02  0.45594000000E+02  0.51100000000E-03 0.  1.
         23    2    1    2    0    0  0.00000000000E+00  0.00000000000E+00  0.71054273576E-14  0.91188000000E+02  0.91188000000E+02 0.  0.
    9900012    2    3    3    0    0  0.13043414960E+02  0.10734394081E+02 -0.32717183834E+02  0.54367190556E+02  0.40000242510E+02 0.  0.
         12    1    3    3    0    0 -0.13043414960E+02 -0.10734394081E+02  0.32717183834E+02  0.36820809444E+02  0.00000000000E+00 0. -1.
         11    1    4    4    0    0  0.22795646254E+01  0.11603060111E+02  0.41970245155E+01  0.12547606699E+02  0.51100000000E-03 0. -1.
        -11    1    4    4    0    0  0.10769034519E+01  0.12801194450E+01  0.14371653729E+01  0.22054186469E+01  0.51100000000E-03 0.  1.
        -12    1    4    4    0    0  0.96869468827E+01 -0.21487854756E+01 -0.38351373722E+02  0.39614165210E+02  0.00000000000E+00 0.  1.
</event>
<event>
 8    1  0.1212194E-006  0.9118800E+02  0.7816164E-02  0.1184000E+00
        -11   -1    0    0    0    0  0.00000000000E+00  0.00000000000E+00  0.45593999997E+02  0.45594000000E+02  0.51100000000E-03 0. -1.
         11   -1    0    0    0    0 -0.00000000000E+00 -0.00000000000E+00 -0.45593999997E+02  0.45594000000E+02  0.51100000000E-03 0.  1.
         23    2    1    2    0    0  0.00000000000E+00 -0.11102230246E-15  0.00000000000E+00  0.91188000000E+02  0.91188000000E+02 0.  0.
    9900012    2    3    3    0    0 -0.10506484809E+02  0.81255447522E+00  0.35280732473E+02  0.54367128858E+02  0.40000101857E+02 0.  0.
        -12    1    3    3    0    0  0.10506484809E+02 -0.81255447522E+00 -0.35280732473E+02  0.36820871142E+02  0.00000000000E+00 0.  1.
         11    1    4    4    0    0  0.72022445692E+01  0.87657917001E+00  0.12499668505E+02  0.14452765510E+02  0.51100000000E-03 0. -1.
        -11    1    4    4    0    0  0.71538959301E+01 -0.14784267131E+01  0.22627668871E+01  0.76474889193E+01  0.51100000000E-03 0.  1.
         12    1    4    4    0    0 -0.24862625308E+02  0.14144020183E+01  0.20518297081E+02  0.32266874429E+02  0.00000000000E+00 0. -1.
</event>
<event>
 8    1  0.1212194E-006  0.9118800E+02  0.7816164E-02  0.1184000E+00
        -11   -1    0    0    0    0  0.00000000000E+00  0.00000000000E+00  0.45593999997E+02  0.45594000000E+02  0.51100000000E-03 0. -1.
         11   -1    0    0    0    0 -0.00000000000E+00 -0.00000000000E+00 -0.45593999997E+02  0.45594000000E+02  0.51100000000E-03 0.  1.
         23    2    1    2    0    0  0.00000000000E+00  0.00000000000E+00  0.00000000000E+00  0.91188000000E+02  0.91188000000E+02 0.  0.
    9900012    2    3    3    0    0 -0.10638723123E+02 -0.34896310873E+02  0.49843007562E+01  0.54367106526E+02  0.40000050947E+02 0.  0.
        -12    1    3    3    0    0  0.10638723123E+02  0.34896310873E+02 -0.49843007562E+01  0.36820893474E+02  0.00000000000E+00 0.  1.
         11    1    4    4    0    0 -0.86553900094E+00 -0.79168696612E+01  0.16795577797E+02  0.18588098794E+02  0.51100000000E-03 0. -1.
        -11    1    4    4    0    0 -0.51938316586E+01 -0.27988623410E+02 -0.75689152454E+01  0.29455515714E+02  0.51100000000E-03 0.  1.
         12    1    4    4    0    0 -0.45793524632E+01  0.10091821987E+01 -0.42423617954E+01  0.63234920175E+01  0.00000000000E+00 0. -1.
</event>
<event>
 8    1  0.1212194E-006  0.9118800E+02  0.7816164E-02  0.1184000E+00
        -11   -1    0    0    0    0  0.00000000000E+00  0.00000000000E+00  0.45593999997E+02  0.45594000000E+02  0.51100000000E-03 0. -1.
         11   -1    0    0    0    0 -0.00000000000E+00 -0.00000000000E+00 -0.45593999997E+02  0.45594000000E+02  0.51100000000E-03 0.  1.
         23    2    1    2    0    0  0.00000000000E+00 -0.35527136788E-14 -0.17763568394E-14  0.91188000000E+02  0.91188000000E+02 0.  0.
    9900012    2    3    3    0    0 -0.27580921331E+02 -0.19603924910E+02 -0.14517536317E+02  0.54367082656E+02  0.39999996530E+02 0.  0.
        -12    1    3    3    0    0  0.27580921331E+02  0.19603924910E+02  0.14517536317E+02  0.36820917344E+02  0.00000000000E+00 0.  1.
         11    1    4    4    0    0 -0.10493590798E+02 -0.42789382985E+01 -0.19371526027E+02  0.22442833637E+02  0.51100000000E-03 0. -1.
        -11    1    4    4    0    0  0.28343294999E+01 -0.52759995623E+01 -0.47385495437E+01  0.76369789272E+01  0.51100000000E-03 0.  1.
         12    1    4    4    0    0 -0.19921660033E+02 -0.10048987050E+02  0.95925392530E+01  0.24287270091E+02  0.00000000000E+00 0. -1.
</event>
<event>
 8    1  0.1212194E-006  0.9118800E+02  0.7816164E-02  0.1184000E+00
        -11   -1    0    0    0    0  0.00000000000E+00  0.00000000000E+00  0.45593999997E+02  0.45594000000E+02  0.51100000000E-03 0.  1.
         11   -1    0    0    0    0 -0.00000000000E+00 -0.00000000000E+00 -0.45593999997E+02  0.45594000000E+02  0.51100000000E-03 0. -1.
         23    2    1    2    0    0  0.35527136788E-14 -0.71054273576E-14 -0.88817841970E-15  0.91188000000E+02  0.91188000000E+02 0.  0.
    9900012    2    3    3    0    0 -0.18425172462E+02  0.31250115219E+02  0.63025988493E+01  0.54367089722E+02  0.40000012640E+02 0.  0.
        -12    1    3    3    0    0  0.18425172462E+02 -0.31250115219E+02 -0.63025988493E+01  0.36820910278E+02  0.00000000000E+00 0.  1.
         11    1    4    4    0    0 -0.32533445263E+01  0.82117497260E+01  0.32597076472E+01  0.94150293879E+01  0.51100000000E-03 0. -1.
        -11    1    4    4    0    0 -0.41077799052E+00 -0.69487038425E+01  0.86063128344E+01  0.11068958601E+02  0.51100000000E-03 0.  1.
         12    1    4    4    0    0 -0.14761049945E+02  0.29987069335E+02 -0.55634216323E+01  0.33883101733E+02  0.00000000000E+00 0. -1.
</event>
<event>
 8    1  0.1212194E-006  0.9118800E+02  0.7816164E-02  0.1184000E+00
        -11   -1    0    0    0    0  0.00000000000E+00  0.00000000000E+00  0.45593999997E+02  0.45594000000E+02  0.51100000000E-03 0.  1.
         11   -1    0    0    0    0 -0.00000000000E+00 -0.00000000000E+00 -0.45593999997E+02  0.45594000000E+02  0.51100000000E-03 0. -1.
         23    2    1    2    0    0 -0.35527136788E-14  0.88817841970E-15  0.00000000000E+00  0.91188000000E+02  0.91188000000E+02 0.  0.
    9900012    2    3    3    0    0 -0.14813786791E+02 -0.49131930621E+01  0.33349554374E+02  0.54367074942E+02  0.39999978946E+02 0.  0.
         12    1    3    3    0    0  0.14813786791E+02  0.49131930621E+01 -0.33349554374E+02  0.36820925058E+02  0.00000000000E+00 0. -1.
         11    1    4    4    0    0 -0.48458605482E+01 -0.18857243651E+02  0.27120023006E+02  0.33385231026E+02  0.51100000000E-03 0. -1.
        -11    1    4    4    0    0 -0.11658973714E+02  0.88479614808E+01  0.40426433626E+01  0.15184237091E+02  0.51100000000E-03 0.  1.
         12    1    4    4    0    0  0.16910474711E+01  0.50960891079E+01  0.21868880056E+01  0.57976068247E+01  0.00000000000E+00 0. -1.
</event>
<event>
 8    1  0.1212194E-006  0.9118800E+02  0.7816164E-02  0.1184000E+00
        -11   -1    0    0    0    0  0.00000000000E+00  0.00000000000E+00  0.45593999997E+02  0.45594000000E+02  0.51100000000E-03 0. -1.
         11   -1    0    0    0    0 -0.00000000000E+00 -0.00000000000E+00 -0.45593999997E+02  0.45594000000E+02  0.51100000000E-03 0.  1.
         23    2    1    2    0    0  0.71054273576E-14 -0.35527136788E-14 -0.71054273576E-14  0.91188000000E+02  0.91188000000E+02 0.  0.
    9900012    2    3    3    0    0  0.16396549558E+02 -0.14420065254E+02 -0.29647943603E+02  0.54367004912E+02  0.39999819298E+02 0.  0.
         12    1    3    3    0    0 -0.16396549558E+02  0.14420065254E+02  0.29647943603E+02  0.36820995088E+02  0.00000000000E+00 0. -1.
         11    1    4    4    0    0  0.78370232340E+01  0.96969938065E+01 -0.12798968850E+02  0.17867966475E+02  0.51100000000E-03 0. -1.
        -11    1    4    4    0    0 -0.37065066643E+01  0.95716234479E+00 -0.46851794542E+01  0.60502279450E+01  0.51100000000E-03 0.  1.
        -12    1    4    4    0    0  0.12266032988E+02 -0.25074221405E+02 -0.12163795299E+02  0.30448810493E+02  0.00000000000E+00 0.  1.
</event>
<event>
 8    1  0.1212194E-006  0.9118800E+02  0.7816164E-02  0.1184000E+00
        -11   -1    0    0    0    0  0.00000000000E+00  0.00000000000E+00  0.45593999997E+02  0.45594000000E+02  0.51100000000E-03 0. -1.
         11   -1    0    0    0    0 -0.00000000000E+00 -0.00000000000E+00 -0.45593999997E+02  0.45594000000E+02  0.51100000000E-03 0.  1.
         23    2    1    2    0    0  0.00000000000E+00  0.00000000000E+00  0.00000000000E+00  0.91188000000E+02  0.91188000000E+02 0.  0.
    9900012    2    3    3    0    0 -0.23960264779E+02  0.18974498939E+02  0.20534177000E+02  0.54367104799E+02  0.40000047011E+02 0.  0.
        -12    1    3    3    0    0  0.23960264779E+02 -0.18974498939E+02 -0.20534177000E+02  0.36820895201E+02  0.00000000000E+00 0.  1.
         11    1    4    4    0    0 -0.14866589660E+01  0.77775169168E+01  0.22969896833E+02  0.24296421240E+02  0.51100000000E-03 0. -1.
        -11    1    4    4    0    0 -0.17088848066E+02  0.10291981833E+02  0.52637917683E+01  0.20631556469E+02  0.51100000000E-03 0.  1.
        -12    1    4    4    0    0 -0.53847577474E+01  0.90500018976E+00 -0.76995116012E+01  0.94391270909E+01  0.00000000000E+00 0.  1.
</event>
<event>
 8    1  0.1212194E-006  0.9118800E+02  0.7816164E-02  0.1184000E+00
        -11   -1    0    0    0    0  0.00000000000E+00  0.00000000000E+00  0.45593999997E+02  0.45594000000E+02  0.51100000000E-03 0.  1.
         11   -1    0    0    0    0 -0.00000000000E+00 -0.00000000000E+00 -0.45593999997E+02  0.45594000000E+02  0.51100000000E-03 0. -1.
         23    2    1    2    0    0 -0.88817841970E-15  0.71054273576E-14  0.17763568394E-14  0.91188000000E+02  0.91188000000E+02 0.  0.
    9900012    2    3    3    0    0  0.38708390109E+01 -0.34070817547E+02 -0.13415525177E+02  0.54367077704E+02  0.39999985242E+02 0.  0.
        -12    1    3    3    0    0 -0.38708390109E+01  0.34070817547E+02  0.13415525177E+02  0.36820922296E+02  0.00000000000E+00 0.  1.
         11    1    4    4    0    0  0.74781711521E+01 -0.55776785833E+01  0.10352403347E+02  0.13935774018E+02  0.51100000000E-03 0.  1.
        -11    1    4    4    0    0 -0.22548498320E+01  0.67736477464E+00  0.56388752191E+00  0.24209791823E+01  0.51100000000E-03 0. -1.
        -12    1    4    4    0    0 -0.13524823091E+01 -0.29170503738E+02 -0.24331816046E+02  0.38010324503E+02  0.00000000000E+00 0.  1.
</event>
<event>
 8    1  0.1212194E-006  0.9118800E+02  0.7816164E-02  0.1184000E+00
        -11   -1    0    0    0    0  0.00000000000E+00  0.00000000000E+00  0.45593999997E+02  0.45594000000E+02  0.51100000000E-03 0.  1.
         11   -1    0    0    0    0 -0.00000000000E+00 -0.00000000000E+00 -0.45593999997E+02  0.45594000000E+02  0.51100000000E-03 0. -1.
         23    2    1    2    0    0  0.71054273576E-14  0.17763568394E-14  0.00000000000E+00  0.91188000000E+02  0.91188000000E+02 0.  0.
    9900012    2    3    3    0    0 -0.36248519416E+02 -0.40391288429E+01  0.50509532299E+01  0.54367056908E+02  0.39999937833E+02 0.  0.
         12    1    3    3    0    0  0.36248519416E+02  0.40391288429E+01 -0.50509532299E+01  0.36820943092E+02  0.00000000000E+00 0. -1.
         11    1    4    4    0    0 -0.69933383818E+01  0.72169930990E+01  0.73432881018E+01  0.12446511621E+02  0.51100000000E-03 0. -1.
        -11    1    4    4    0    0 -0.30669378133E+02 -0.12147274795E+01  0.23187828020E+01  0.30780888094E+02  0.51100000000E-03 0.  1.
         12    1    4    4    0    0  0.14141970991E+01 -0.10041394462E+02 -0.46111176739E+01  0.11139657193E+02  0.00000000000E+00 0. -1.
</event>
<event>
 8    1  0.1212194E-006  0.9118800E+02  0.7816164E-02  0.1184000E+00
        -11   -1    0    0    0    0  0.00000000000E+00  0.00000000000E+00  0.45593999997E+02  0.45594000000E+02  0.51100000000E-03 0. -1.
         11   -1    0    0    0    0 -0.00000000000E+00 -0.00000000000E+00 -0.45593999997E+02  0.45594000000E+02  0.51100000000E-03 0.  1.
         23    2    1    2    0    0  0.00000000000E+00  0.17763568394E-14 -0.71054273576E-14  0.91188000000E+02  0.91188000000E+02 0.  0.
    9900012    2    3    3    0    0  0.87504846775E+01 -0.14384751973E+02 -0.32745796566E+02  0.54367092024E+02  0.40000017888E+02 0.  0.
         12    1    3    3    0    0 -0.87504846775E+01  0.14384751973E+02  0.32745796566E+02  0.36820907976E+02  0.00000000000E+00 0. -1.
         11    1    4    4    0    0  0.10562529654E+02 -0.10699154872E+02 -0.41491102072E+01  0.15596604228E+02  0.51100000000E-03 0. -1.
        -11    1    4    4    0    0  0.86993688116E+01 -0.21916842639E+01 -0.26461470177E+02  0.27940864371E+02  0.51100000000E-03 0.  1.
        -12    1    4    4    0    0 -0.10511413788E+02 -0.14939128373E+01 -0.21352161819E+01  0.10829623425E+02  0.00000000000E+00 0.  1.
</event>
<event>
 8    1  0.1212194E-006  0.9118800E+02  0.7816164E-02  0.1184000E+00
        -11   -1    0    0    0    0  0.00000000000E+00  0.00000000000E+00  0.45593999997E+02  0.45594000000E+02  0.51100000000E-03 0. -1.
         11   -1    0    0    0    0 -0.00000000000E+00 -0.00000000000E+00 -0.45593999997E+02  0.45594000000E+02  0.51100000000E-03 0.  1.
         23    2    1    2    0    0  0.00000000000E+00  0.00000000000E+00  0.00000000000E+00  0.91188000000E+02  0.91188000000E+02 0.  0.
    9900012    2    3    3    0    0  0.12640740430E+02  0.58082240281E+01  0.34091870056E+02  0.54367090331E+02  0.40000014027E+02 0.  0.
        -12    1    3    3    0    0 -0.12640740430E+02 -0.58082240281E+01 -0.34091870056E+02  0.36820909669E+02  0.00000000000E+00 0.  1.
         11    1    4    4    0    0  0.63917539906E+01 -0.45562469403E+01  0.23682747757E+02  0.24949678291E+02  0.51100000000E-03 0. -1.
        -11    1    4    4    0    0  0.42392501453E+01 -0.68727022707E+01  0.88704070129E+01  0.11995390745E+02  0.51100000000E-03 0.  1.
        -12    1    4    4    0    0  0.20097362939E+01  0.17237173239E+02  0.15387152862E+01  0.17422021294E+02  0.00000000000E+00 0.  1.
</event>
<event>
 8    1  0.1212194E-006  0.9118800E+02  0.7816164E-02  0.1184000E+00
        -11   -1    0    0    0    0  0.00000000000E+00  0.00000000000E+00  0.45593999997E+02  0.45594000000E+02  0.51100000000E-03 0.  1.
         11   -1    0    0    0    0 -0.00000000000E+00 -0.00000000000E+00 -0.45593999997E+02  0.45594000000E+02  0.51100000000E-03 0. -1.
         23    2    1    2    0    0  0.00000000000E+00  0.00000000000E+00  0.17763568394E-14  0.91188000000E+02  0.91188000000E+02 0.  0.
    9900012    2    3    3    0    0 -0.86920632269E+01 -0.33914791194E+02 -0.11402397463E+02  0.54367086204E+02  0.40000004620E+02 0.  0.
         12    1    3    3    0    0  0.86920632269E+01  0.33914791194E+02  0.11402397463E+02  0.36820913796E+02  0.00000000000E+00 0. -1.
         11    1    4    4    0    0  0.62164672577E+01 -0.17277994620E+02  0.76892637758E+01  0.19907243428E+02  0.51100000000E-03 0. -1.
        -11    1    4    4    0    0 -0.13984409046E+02 -0.19130499931E+02 -0.11351194907E+02  0.26275261180E+02  0.51100000000E-03 0.  1.
        -12    1    4    4    0    0 -0.92412143858E+00  0.24937033571E+01 -0.77404663321E+01  0.81845815962E+01  0.00000000000E+00 0.  1.
</event>
<event>
 8    1  0.1212194E-006  0.9118800E+02  0.7816164E-02  0.1184000E+00
        -11   -1    0    0    0    0  0.00000000000E+00  0.00000000000E+00  0.45593999997E+02  0.45594000000E+02  0.51100000000E-03 0.  1.
         11   -1    0    0    0    0 -0.00000000000E+00 -0.00000000000E+00 -0.45593999997E+02  0.45594000000E+02  0.51100000000E-03 0. -1.
         23    2    1    2    0    0  0.15543122345E-14 -0.71054273576E-14  0.00000000000E+00  0.91188000000E+02  0.91188000000E+02 0.  0.
    9900012    2    3    3    0    0 -0.87922021259E+00  0.33457263335E+02  0.15349573698E+02  0.54367205457E+02  0.40000276479E+02 0.  0.
         12    1    3    3    0    0  0.87922021259E+00 -0.33457263335E+02 -0.15349573698E+02  0.36820794543E+02  0.00000000000E+00 0. -1.
         11    1    4    4    0    0  0.42346756929E+01  0.96103725463E+01  0.41570312665E+01  0.11294806236E+02  0.51100000000E-03 0. -1.
        -11    1    4    4    0    0  0.13127882183E+02  0.56636000566E+01  0.96907988321E+01  0.17272210005E+02  0.51100000000E-03 0.  1.
        -12    1    4    4    0    0 -0.18241778088E+02  0.18183290733E+02  0.15017435998E+01  0.25800189215E+02  0.00000000000E+00 0.  1.
</event>
<event>
 8    1  0.1212194E-006  0.9118800E+02  0.7816164E-02  0.1184000E+00
        -11   -1    0    0    0    0  0.00000000000E+00  0.00000000000E+00  0.45593999997E+02  0.45594000000E+02  0.51100000000E-03 0.  1.
         11   -1    0    0    0    0 -0.00000000000E+00 -0.00000000000E+00 -0.45593999997E+02  0.45594000000E+02  0.51100000000E-03 0. -1.
         23    2    1    2    0    0 -0.44408920985E-15 -0.71054273576E-14  0.00000000000E+00  0.91188000000E+02  0.91188000000E+02 0.  0.
    9900012    2    3    3    0    0  0.24487602901E+01 -0.35947747798E+02  0.75856164259E+01  0.54367101379E+02  0.40000039214E+02 0.  0.
         12    1    3    3    0    0 -0.24487602901E+01  0.35947747798E+02 -0.75856164259E+01  0.36820898621E+02  0.00000000000E+00 0. -1.
         11    1    4    4    0    0  0.36025347016E+01  0.39805180259E+00  0.62342165929E+01  0.72112522007E+01  0.51100000000E-03 0. -1.
        -11    1    4    4    0    0  0.11574181926E+02 -0.29645977630E+02  0.52450192821E+01  0.32254548585E+02  0.51100000000E-03 0.  1.
         12    1    4    4    0    0 -0.12727956337E+02 -0.66998219708E+01 -0.38936194491E+01  0.14901300594E+02  0.00000000000E+00 0. -1.
</event>
<event>
 8    1  0.1212194E-006  0.9118800E+02  0.7816164E-02  0.1184000E+00
        -11   -1    0    0    0    0  0.00000000000E+00  0.00000000000E+00  0.45593999997E+02  0.45594000000E+02  0.51100000000E-03 0. -1.
         11   -1    0    0    0    0 -0.00000000000E+00 -0.00000000000E+00 -0.45593999997E+02  0.45594000000E+02  0.51100000000E-03 0.  1.
         23    2    1    2    0    0  0.22204460493E-15  0.00000000000E+00  0.00000000000E+00  0.91188000000E+02  0.91188000000E+02 0.  0.
    9900012    2    3    3    0    0  0.15247379998E+01  0.99622976697E+01 -0.35414786429E+02  0.54367091556E+02  0.40000016821E+02 0.  0.
         12    1    3    3    0    0 -0.15247379998E+01 -0.99622976697E+01  0.35414786429E+02  0.36820908444E+02  0.00000000000E+00 0. -1.
         11    1    4    4    0    0 -0.36303162097E+01 -0.41923605281E+01  0.48974728537E+01  0.73986703666E+01  0.51100000000E-03 0. -1.
        -11    1    4    4    0    0 -0.38550213748E+00 -0.39247005901E+01 -0.14141826833E+02  0.14681387982E+02  0.51100000000E-03 0.  1.
         12    1    4    4    0    0  0.55405563470E+01  0.18079358788E+02 -0.26170432449E+02  0.32287033208E+02  0.00000000000E+00 0. -1.
</event>
<event>
 8    1  0.1212194E-006  0.9118800E+02  0.7816164E-02  0.1184000E+00
        -11   -1    0    0    0    0  0.00000000000E+00  0.00000000000E+00  0.45593999997E+02  0.45594000000E+02  0.51100000000E-03 0.  1.
         11   -1    0    0    0    0 -0.00000000000E+00 -0.00000000000E+00 -0.45593999997E+02  0.45594000000E+02  0.51100000000E-03 0. -1.
         23    2    1    2    0    0  0.35527136788E-14  0.00000000000E+00  0.00000000000E+00  0.91188000000E+02  0.91188000000E+02 0.  0.
    9900012    2    3    3    0    0  0.27064268987E+02 -0.20444785685E+02 -0.14328836689E+02  0.54367089115E+02  0.40000011256E+02 0.  0.
         12    1    3    3    0    0 -0.27064268987E+02  0.20444785685E+02  0.14328836689E+02  0.36820910885E+02  0.00000000000E+00 0. -1.
         11    1    4    4    0    0  0.62811209415E+01 -0.12684055861E+02 -0.17482421629E+02  0.22493839593E+02  0.51100000000E-03 0. -1.
        -11    1    4    4    0    0  0.16183227116E+02  0.56471978240E+01  0.42392411896E+01  0.17656694178E+02  0.51100000000E-03 0.  1.
         12    1    4    4    0    0  0.45999209294E+01 -0.13407927648E+02 -0.10856562494E+01  0.14216555344E+02  0.00000000000E+00 0. -1.
</event>
<event>
 8    1  0.1212194E-006  0.9118800E+02  0.7816164E-02  0.1184000E+00
        -11   -1    0    0    0    0  0.00000000000E+00  0.00000000000E+00  0.45593999997E+02  0.45594000000E+02  0.51100000000E-03 0.  1.
         11   -1    0    0    0    0 -0.00000000000E+00 -0.00000000000E+00 -0.45593999997E+02  0.45594000000E+02  0.51100000000E-03 0. -1.
         23    2    1    2    0    0 -0.17763568394E-14 -0.17763568394E-14  0.00000000000E+00  0.91188000000E+02  0.91188000000E+02 0.  0.
    9900012    2    3    3    0    0  0.10159381575E+02  0.69330728739E+01 -0.34705879509E+02  0.54367100963E+02  0.40000038265E+02 0.  0.
        -12    1    3    3    0    0 -0.10159381575E+02 -0.69330728739E+01  0.34705879509E+02  0.36820899037E+02  0.00000000000E+00 0.  1.
         11    1    4    4    0    0 -0.14431304312E+01 -0.29322867478E+00 -0.19869575198E-01  0.14727537330E+01  0.51100000000E-03 0. -1.
        -11    1    4    4    0    0 -0.10563165838E+02  0.13123747711E+02 -0.12444412989E+02  0.20944608887E+02  0.51100000000E-03 0.  1.
         12    1    4    4    0    0  0.22165677844E+02 -0.58974461626E+01 -0.22241596945E+02  0.31949738343E+02  0.00000000000E+00 0. -1.
</event>
<event>
 8    1  0.1212194E-006  0.9118800E+02  0.7816164E-02  0.1184000E+00
        -11   -1    0    0    0    0  0.00000000000E+00  0.00000000000E+00  0.45593999997E+02  0.45594000000E+02  0.51100000000E-03 0. -1.
         11   -1    0    0    0    0 -0.00000000000E+00 -0.00000000000E+00 -0.45593999997E+02  0.45594000000E+02  0.51100000000E-03 0.  1.
         23    2    1    2    0    0  0.00000000000E+00  0.35527136788E-14  0.00000000000E+00  0.91188000000E+02  0.91188000000E+02 0.  0.
    9900012    2    3    3    0    0 -0.74109117487E+01  0.18252418247E+02 -0.31107996038E+02  0.54367084716E+02  0.40000001228E+02 0.  0.
         12    1    3    3    0    0  0.74109117487E+01 -0.18252418247E+02  0.31107996038E+02  0.36820915284E+02  0.00000000000E+00 0. -1.
         11    1    4    4    0    0 -0.74427070649E+01 -0.85329461448E+01 -0.96116797005E+01  0.14852253879E+02  0.51100000000E-03 0. -1.
        -11    1    4    4    0    0 -0.58247401098E+01  0.25605047141E+02 -0.13479699816E+02  0.29516916231E+02  0.51100000000E-03 0.  1.
         12    1    4    4    0    0  0.58565354260E+01  0.11803172508E+01 -0.80166165219E+01  0.99979146060E+01  0.00000000000E+00 0. -1.
</event>
<event>
 8    1  0.1212194E-006  0.9118800E+02  0.7816164E-02  0.1184000E+00
        -11   -1    0    0    0    0  0.00000000000E+00  0.00000000000E+00  0.45593999997E+02  0.45594000000E+02  0.51100000000E-03 0.  1.
         11   -1    0    0    0    0 -0.00000000000E+00 -0.00000000000E+00 -0.45593999997E+02  0.45594000000E+02  0.51100000000E-03 0. -1.
         23    2    1    2    0    0  0.00000000000E+00  0.00000000000E+00  0.35527136788E-14  0.91188000000E+02  0.91188000000E+02 0.  0.
    9900012    2    3    3    0    0 -0.18439630696E+02 -0.13629887571E+02  0.28809477629E+02  0.54367084522E+02  0.40000000785E+02 0.  0.
         12    1    3    3    0    0  0.18439630696E+02  0.13629887571E+02 -0.28809477629E+02  0.36820915478E+02  0.00000000000E+00 0. -1.
         11    1    4    4    0    0 -0.17435033196E+02  0.14818305345E+01 -0.61407270883E-03  0.17497891442E+02  0.51100000000E-03 0.  1.
        -11    1    4    4    0    0 -0.51194171548E+01 -0.14058917698E+02  0.11028440919E+02  0.18587310408E+02  0.51100000000E-03 0. -1.
        -12    1    4    4    0    0  0.41148196551E+01 -0.10528004073E+01  0.17781650783E+02  0.18281882672E+02  0.00000000000E+00 0.  1.
</event>
<event>
 8    1  0.1212194E-006  0.9118800E+02  0.7816164E-02  0.1184000E+00
        -11   -1    0    0    0    0  0.00000000000E+00  0.00000000000E+00  0.45593999997E+02  0.45594000000E+02  0.51100000000E-03 0.  1.
         11   -1    0    0    0    0 -0.00000000000E+00 -0.00000000000E+00 -0.45593999997E+02  0.45594000000E+02  0.51100000000E-03 0. -1.
         23    2    1    2    0    0 -0.71054273576E-14  0.13322676296E-14  0.00000000000E+00  0.91188000000E+02  0.91188000000E+02 0.  0.
    9900012    2    3    3    0    0  0.35540247353E+02  0.36940032437E+01 -0.88894629098E+01  0.54367117437E+02  0.40000075821E+02 0.  0.
        -12    1    3    3    0    0 -0.35540247353E+02 -0.36940032437E+01  0.88894629098E+01  0.36820882563E+02  0.00000000000E+00 0.  1.
         11    1    4    4    0    0  0.21035855526E+02  0.63348055611E+01 -0.60375420809E+01  0.22783522419E+02  0.51100000000E-03 0. -1.
        -11    1    4    4    0    0  0.11121266959E+02 -0.14136244967E+02 -0.63921714870E+01  0.19088631620E+02  0.51100000000E-03 0.  1.
        -12    1    4    4    0    0  0.33831248689E+01  0.11495442650E+02  0.35402506580E+01  0.12494963398E+02  0.00000000000E+00 0.  1.
</event>
<event>
 8    1  0.1212194E-006  0.9118800E+02  0.7816164E-02  0.1184000E+00
        -11   -1    0    0    0    0  0.00000000000E+00  0.00000000000E+00  0.45593999997E+02  0.45594000000E+02  0.51100000000E-03 0. -1.
         11   -1    0    0    0    0 -0.00000000000E+00 -0.00000000000E+00 -0.45593999997E+02  0.45594000000E+02  0.51100000000E-03 0.  1.
         23    2    1    2    0    0 -0.17763568394E-14  0.00000000000E+00  0.00000000000E+00  0.91188000000E+02  0.91188000000E+02 0.  0.
    9900012    2    3    3    0    0 -0.92993360188E+01  0.32398651622E+02 -0.14819898212E+02  0.54367086645E+02  0.40000005624E+02 0.  0.
         12    1    3    3    0    0  0.92993360188E+01 -0.32398651622E+02  0.14819898212E+02  0.36820913355E+02  0.00000000000E+00 0. -1.
         11    1    4    4    0    0  0.11356509956E+00  0.22882382349E+01  0.53179715333E+01  0.57904881263E+01  0.51100000000E-03 0. -1.
        -11    1    4    4    0    0 -0.20054551451E+02  0.12648071884E+02 -0.11921544348E+02  0.26538311479E+02  0.51100000000E-03 0.  1.
         12    1    4    4    0    0  0.10641650333E+02  0.17462341503E+02 -0.82163253980E+01  0.22038287039E+02  0.00000000000E+00 0. -1.
</event>
<event>
 8    1  0.1212194E-006  0.9118800E+02  0.7816164E-02  0.1184000E+00
        -11   -1    0    0    0    0  0.00000000000E+00  0.00000000000E+00  0.45593999997E+02  0.45594000000E+02  0.51100000000E-03 0.  1.
         11   -1    0    0    0    0 -0.00000000000E+00 -0.00000000000E+00 -0.45593999997E+02  0.45594000000E+02  0.51100000000E-03 0. -1.
         23    2    1    2    0    0  0.77715611724E-15 -0.71054273576E-14  0.00000000000E+00  0.91188000000E+02  0.91188000000E+02 0.  0.
    9900012    2    3    3    0    0  0.61135504730E+00 -0.33043385531E+02  0.16233962190E+02  0.54367073739E+02  0.39999976202E+02 0.  0.
         12    1    3    3    0    0 -0.61135504730E+00  0.33043385531E+02 -0.16233962190E+02  0.36820926261E+02  0.00000000000E+00 0. -1.
         11    1    4    4    0    0 -0.31935417861E+01 -0.11803253186E+02  0.90612568094E+01  0.15219128429E+02  0.51100000000E-03 0. -1.
        -11    1    4    4    0    0  0.14532900350E+02 -0.83767585000E+01 -0.60249409871E+01  0.17823444945E+02  0.51100000000E-03 0.  1.
        -12    1    4    4    0    0 -0.10728003517E+02 -0.12863373845E+02  0.13197646368E+02  0.21324500365E+02  0.00000000000E+00 0.  1.
</event>
<event>
 8    1  0.1212194E-006  0.9118800E+02  0.7816164E-02  0.1184000E+00
        -11   -1    0    0    0    0  0.00000000000E+00  0.00000000000E+00  0.45593999997E+02  0.45594000000E+02  0.51100000000E-03 0. -1.
         11   -1    0    0    0    0 -0.00000000000E+00 -0.00000000000E+00 -0.45593999997E+02  0.45594000000E+02  0.51100000000E-03 0.  1.
         23    2    1    2    0    0  0.00000000000E+00  0.00000000000E+00 -0.35527136788E-14  0.91188000000E+02  0.91188000000E+02 0.  0.
    9900012    2    3    3    0    0  0.91501243547E+01 -0.23147476541E+02 -0.27133904483E+02  0.54367092645E+02  0.40000019303E+02 0.  0.
         12    1    3    3    0    0 -0.91501243547E+01  0.23147476541E+02  0.27133904483E+02  0.36820907355E+02  0.00000000000E+00 0. -1.
         11    1    4    4    0    0  0.71965087239E+00 -0.52462392978E+01 -0.76427056019E+00  0.53502368077E+01  0.51100000000E-03 0.  1.
        -11    1    4    4    0    0 -0.29424213758E+01  0.11605813213E+01  0.77170423311E+01  0.83401160159E+01  0.51100000000E-03 0. -1.
        -12    1    4    4    0    0  0.11372894858E+02 -0.19061818565E+02 -0.34086676254E+02  0.40676739821E+02  0.00000000000E+00 0.  1.
</event>
<event>
 8    1  0.1212194E-006  0.9118800E+02  0.7816164E-02  0.1184000E+00
        -11   -1    0    0    0    0  0.00000000000E+00  0.00000000000E+00  0.45593999997E+02  0.45594000000E+02  0.51100000000E-03 0. -1.
         11   -1    0    0    0    0 -0.00000000000E+00 -0.00000000000E+00 -0.45593999997E+02  0.45594000000E+02  0.51100000000E-03 0.  1.
         23    2    1    2    0    0  0.00000000000E+00  0.00000000000E+00  0.00000000000E+00  0.91188000000E+02  0.91188000000E+02 0.  0.
    9900012    2    3    3    0    0 -0.63829079008E+01  0.99606205032E+01 -0.34868747801E+02  0.54367013494E+02  0.39999838862E+02 0.  0.
         12    1    3    3    0    0  0.63829079008E+01 -0.99606205032E+01  0.34868747801E+02  0.36820986506E+02  0.00000000000E+00 0. -1.
         11    1    4    4    0    0 -0.15025141081E+02  0.19203822314E+02 -0.29911372963E+02  0.38590567355E+02  0.51100000000E-03 0. -1.
        -11    1    4    4    0    0  0.54356033733E+01 -0.12859252295E+01 -0.45214365544E+01  0.71862908725E+01  0.51100000000E-03 0.  1.
         12    1    4    4    0    0  0.32066298070E+01 -0.79572765817E+01 -0.43593828327E+00  0.85901552666E+01  0.00000000000E+00 0. -1.
</event>
<event>
 8    1  0.1212194E-006  0.9118800E+02  0.7816164E-02  0.1184000E+00
        -11   -1    0    0    0    0  0.00000000000E+00  0.00000000000E+00  0.45593999997E+02  0.45594000000E+02  0.51100000000E-03 0.  1.
         11   -1    0    0    0    0 -0.00000000000E+00 -0.00000000000E+00 -0.45593999997E+02  0.45594000000E+02  0.51100000000E-03 0. -1.
         23    2    1    2    0    0 -0.17763568394E-14  0.88817841970E-15  0.00000000000E+00  0.91188000000E+02  0.91188000000E+02 0.  0.
    9900012    2    3    3    0    0 -0.12200468310E+02  0.43918631741E+01 -0.34462154562E+02  0.54367082219E+02  0.39999995536E+02 0.  0.
        -12    1    3    3    0    0  0.12200468310E+02 -0.43918631741E+01  0.34462154562E+02  0.36820917781E+02  0.00000000000E+00 0.  1.
         11    1    4    4    0    0 -0.12915697978E+02  0.77122240019E+01 -0.27896085464E+02  0.31693615095E+02  0.51100000000E-03 0. -1.
        -11    1    4    4    0    0  0.35418909471E+00 -0.87806854620E+01 -0.12058073765E+02  0.14920557305E+02  0.51100000000E-03 0.  1.
        -12    1    4    4    0    0  0.36104057340E+00  0.54603246342E+01  0.54920046670E+01  0.77529098195E+01  0.00000000000E+00 0.  1.
</event>
<event>
 8    1  0.1212194E-006  0.9118800E+02  0.7816164E-02  0.1184000E+00
        -11   -1    0    0    0    0  0.00000000000E+00  0.00000000000E+00  0.45593999997E+02  0.45594000000E+02  0.51100000000E-03 0.  1.
         11   -1    0    0    0    0 -0.00000000000E+00 -0.00000000000E+00 -0.45593999997E+02  0.45594000000E+02  0.51100000000E-03 0. -1.
         23    2    1    2    0    0  0.00000000000E+00  0.71054273576E-14 -0.17763568394E-14  0.91188000000E+02  0.91188000000E+02 0.  0.
    9900012    2    3    3    0    0  0.67732969189E+00  0.34995666808E+02  0.11429147251E+02  0.54367070113E+02  0.39999967937E+02 0.  0.
         12    1    3    3    0    0 -0.67732969189E+00 -0.34995666808E+02 -0.11429147251E+02  0.36820929887E+02  0.00000000000E+00 0. -1.
         11    1    4    4    0    0  0.82381756449E+00 -0.46405260739E+01  0.83550626160E+00  0.47865675172E+01  0.51100000000E-03 0.  1.
        -11    1    4    4    0    0  0.75908386357E+00 -0.33549338716E+01 -0.29140688166E+01  0.45081689103E+01  0.51100000000E-03 0. -1.
        -12    1    4    4    0    0 -0.90557173617E+00  0.42991126753E+02  0.13507709806E+02  0.45072333686E+02  0.00000000000E+00 0.  1.
</event>
<event>
 8    1  0.1212194E-006  0.9118800E+02  0.7816164E-02  0.1184000E+00
        -11   -1    0    0    0    0  0.00000000000E+00  0.00000000000E+00  0.45593999997E+02  0.45594000000E+02  0.51100000000E-03 0. -1.
         11   -1    0    0    0    0 -0.00000000000E+00 -0.00000000000E+00 -0.45593999997E+02  0.45594000000E+02  0.51100000000E-03 0.  1.
         23    2    1    2    0    0  0.00000000000E+00  0.00000000000E+00  0.00000000000E+00  0.91188000000E+02  0.91188000000E+02 0.  0.
    9900012    2    3    3    0    0 -0.92205965396E+01 -0.34785618241E+02 -0.77923982286E+01  0.54367080578E+02  0.39999991793E+02 0.  0.
         12    1    3    3    0    0  0.92205965396E+01  0.34785618241E+02  0.77923982286E+01  0.36820919422E+02  0.00000000000E+00 0. -1.
         11    1    4    4    0    0  0.23464677463E+01  0.28361852142E+01  0.97049842080E+00  0.38067998240E+01  0.51100000000E-03 0. -1.
        -11    1    4    4    0    0  0.90967334854E+01 -0.46074622028E+01 -0.52093132846E+01  0.11450598815E+02  0.51100000000E-03 0.  1.
        -12    1    4    4    0    0 -0.20663797771E+02 -0.33014341252E+02 -0.35535833649E+01  0.39109681939E+02  0.00000000000E+00 0.  1.
</event>
<event>
 8    1  0.1212194E-006  0.9118800E+02  0.7816164E-02  0.1184000E+00
        -11   -1    0    0    0    0  0.00000000000E+00  0.00000000000E+00  0.45593999997E+02  0.45594000000E+02  0.51100000000E-03 0.  1.
         11   -1    0    0    0    0 -0.00000000000E+00 -0.00000000000E+00 -0.45593999997E+02  0.45594000000E+02  0.51100000000E-03 0. -1.
         23    2    1    2    0    0  0.00000000000E+00  0.00000000000E+00 -0.71054273576E-14  0.91188000000E+02  0.91188000000E+02 0.  0.
    9900012    2    3    3    0    0  0.66564373959E+01  0.39148473817E+01  0.36002025240E+02  0.54367081893E+02  0.39999994792E+02 0.  0.
         12    1    3    3    0    0 -0.66564373959E+01 -0.39148473817E+01 -0.36002025240E+02  0.36820918107E+02  0.00000000000E+00 0. -1.
         11    1    4    4    0    0  0.10437005383E+02  0.13904975255E+02  0.14767836662E+01  0.17448791032E+02  0.51100000000E-03 0. -1.
        -11    1    4    4    0    0 -0.43260813519E+01 -0.90831806671E+01  0.20325658298E+02  0.22679319576E+02  0.51100000000E-03 0.  1.
         12    1    4    4    0    0  0.54551336485E+00 -0.90694720660E+00  0.14199583276E+02  0.14238971286E+02  0.00000000000E+00 0. -1.
</event>
<event>
 8    1  0.1212194E-006  0.9118800E+02  0.7816164E-02  0.1184000E+00
        -11   -1    0    0    0    0  0.00000000000E+00  0.00000000000E+00  0.45593999997E+02  0.45594000000E+02  0.51100000000E-03 0.  1.
         11   -1    0    0    0    0 -0.00000000000E+00 -0.00000000000E+00 -0.45593999997E+02  0.45594000000E+02  0.51100000000E-03 0. -1.
         23    2    1    2    0    0 -0.66613381478E-15  0.35527136788E-14  0.35527136788E-14  0.91188000000E+02  0.91188000000E+02 0.  0.
    9900012    2    3    3    0    0 -0.41079379089E+00 -0.20000597845E+02 -0.30912636601E+02  0.54367030875E+02  0.39999878486E+02 0.  0.
        -12    1    3    3    0    0  0.41079379089E+00  0.20000597845E+02  0.30912636601E+02  0.36820969125E+02  0.00000000000E+00 0.  1.
         11    1    4    4    0    0 -0.31327441595E+01  0.22530193896E+01  0.31590442016E+01  0.49869572755E+01  0.51100000000E-03 0. -1.
        -11    1    4    4    0    0 -0.53306937380E+01  0.22607631060E+01 -0.18170738050E+02  0.19071000684E+02  0.51100000000E-03 0.  1.
         12    1    4    4    0    0  0.80526441066E+01 -0.24514380340E+02 -0.15900942752E+02  0.30309072915E+02  0.00000000000E+00 0. -1.
</event>
<event>
 8    1  0.1212194E-006  0.9118800E+02  0.7816164E-02  0.1184000E+00
        -11   -1    0    0    0    0  0.00000000000E+00  0.00000000000E+00  0.45593999997E+02  0.45594000000E+02  0.51100000000E-03 0.  1.
         11   -1    0    0    0    0 -0.00000000000E+00 -0.00000000000E+00 -0.45593999997E+02  0.45594000000E+02  0.51100000000E-03 0. -1.
         23    2    1    2    0    0  0.00000000000E+00  0.00000000000E+00  0.17763568394E-14  0.91188000000E+02  0.91188000000E+02 0.  0.
    9900012    2    3    3    0    0 -0.34364864095E+02  0.88347435319E+01  0.98379236794E+01  0.54367064110E+02  0.39999954250E+02 0.  0.
         12    1    3    3    0    0  0.34364864095E+02 -0.88347435319E+01 -0.98379236794E+01  0.36820935890E+02  0.00000000000E+00 0. -1.
         11    1    4    4    0    0 -0.46880267415E+01 -0.26783160419E+01 -0.54789345602E+01  0.76921840673E+01  0.51100000000E-03 0. -1.
        -11    1    4    4    0    0 -0.53101601068E+01  0.12799346866E+01  0.19200923119E+02  0.19962752366E+02  0.51100000000E-03 0.  1.
        -12    1    4    4    0    0 -0.24366677247E+02  0.10233124887E+02 -0.38840648792E+01  0.26712127676E+02  0.00000000000E+00 0.  1.
</event>
<event>
 8    1  0.1212194E-006  0.9118800E+02  0.7816164E-02  0.1184000E+00
        -11   -1    0    0    0    0  0.00000000000E+00  0.00000000000E+00  0.45593999997E+02  0.45594000000E+02  0.51100000000E-03 0.  1.
         11   -1    0    0    0    0 -0.00000000000E+00 -0.00000000000E+00 -0.45593999997E+02  0.45594000000E+02  0.51100000000E-03 0. -1.
         23    2    1    2    0    0  0.71054273576E-14  0.00000000000E+00 -0.88817841970E-15  0.91188000000E+02  0.91188000000E+02 0.  0.
    9900012    2    3    3    0    0  0.35558089524E+02 -0.91298981503E+01 -0.28361503941E+01  0.54367129290E+02  0.40000102842E+02 0.  0.
         12    1    3    3    0    0 -0.35558089524E+02  0.91298981503E+01  0.28361503941E+01  0.36820870710E+02  0.00000000000E+00 0. -1.
         11    1    4    4    0    0 -0.86834550222E+00 -0.11384357715E+01 -0.47636425830E+00  0.15089675559E+01  0.51100000000E-03 0. -1.
        -11    1    4    4    0    0  0.33659353641E+02 -0.20507674176E+02  0.15847919559E+01  0.39446525239E+02  0.51100000000E-03 0.  1.
        -12    1    4    4    0    0  0.27670813847E+01  0.12516211797E+02 -0.39445780917E+01  0.13411636495E+02  0.00000000000E+00 0.  1.
</event>
<event>
 8    1  0.1212194E-006  0.9118800E+02  0.7816164E-02  0.1184000E+00
        -11   -1    0    0    0    0  0.00000000000E+00  0.00000000000E+00  0.45593999997E+02  0.45594000000E+02  0.51100000000E-03 0.  1.
         11   -1    0    0    0    0 -0.00000000000E+00 -0.00000000000E+00 -0.45593999997E+02  0.45594000000E+02  0.51100000000E-03 0. -1.
         23    2    1    2    0    0  0.00000000000E+00  0.17763568394E-14  0.00000000000E+00  0.91188000000E+02  0.91188000000E+02 0.  0.
    9900012    2    3    3    0    0  0.16900509421E+02  0.15507524674E+02  0.28803992212E+02  0.54367075140E+02  0.39999979397E+02 0.  0.
         12    1    3    3    0    0 -0.16900509421E+02 -0.15507524674E+02 -0.28803992212E+02  0.36820924860E+02  0.00000000000E+00 0. -1.
         11    1    4    4    0    0  0.14322264467E+02 -0.59761461011E+01  0.11017242075E+02  0.19032109838E+02  0.51100000000E-03 0. -1.
        -11    1    4    4    0    0  0.43702420876E+01  0.17208356602E+02  0.22541759562E+02  0.28694206337E+02  0.51100000000E-03 0.  1.
         12    1    4    4    0    0 -0.17919971335E+01  0.42753141723E+01 -0.47550094258E+01  0.66407589655E+01  0.00000000000E+00 0. -1.
</event>
<event>
 8    1  0.1212194E-006  0.9118800E+02  0.7816164E-02  0.1184000E+00
        -11   -1    0    0    0    0  0.00000000000E+00  0.00000000000E+00  0.45593999997E+02  0.45594000000E+02  0.51100000000E-03 0. -1.
         11   -1    0    0    0    0 -0.00000000000E+00 -0.00000000000E+00 -0.45593999997E+02  0.45594000000E+02  0.51100000000E-03 0.  1.
         23    2    1    2    0    0  0.00000000000E+00  0.00000000000E+00 -0.35527136788E-14  0.91188000000E+02  0.91188000000E+02 0.  0.
    9900012    2    3    3    0    0  0.20248849117E+02 -0.19721210576E+02 -0.23597416297E+02  0.54367080768E+02  0.39999992228E+02 0.  0.
         12    1    3    3    0    0 -0.20248849117E+02  0.19721210576E+02  0.23597416297E+02  0.36820919232E+02  0.00000000000E+00 0. -1.
         11    1    4    4    0    0  0.13663214951E+02  0.12212752095E+01  0.28316244895E+01  0.14006893069E+02  0.51100000000E-03 0.  1.
        -11    1    4    4    0    0 -0.54848109695E+01 -0.88065704942E+01 -0.20550137799E+01  0.10576479430E+02  0.51100000000E-03 0. -1.
         12    1    4    4    0    0  0.12070445136E+02 -0.12135915291E+02 -0.24374027007E+02  0.29783708269E+02  0.00000000000E+00 0. -1.
</event>
<event>
 8    1  0.1212194E-006  0.9118800E+02  0.7816164E-02  0.1184000E+00
        -11   -1    0    0    0    0  0.00000000000E+00  0.00000000000E+00  0.45593999997E+02  0.45594000000E+02  0.51100000000E-03 0.  1.
         11   -1    0    0    0    0 -0.00000000000E+00 -0.00000000000E+00 -0.45593999997E+02  0.45594000000E+02  0.51100000000E-03 0. -1.
         23    2    1    2    0    0 -0.17763568394E-14  0.00000000000E+00  0.17763568394E-14  0.91188000000E+02  0.91188000000E+02 0.  0.
    9900012    2    3    3    0    0 -0.15545343617E+02 -0.30086196641E+02  0.14454856922E+02  0.54367084407E+02  0.40000000523E+02 0.  0.
         12    1    3    3    0    0  0.15545343617E+02  0.30086196641E+02 -0.14454856922E+02  0.36820915593E+02  0.00000000000E+00 0. -1.
         11    1    4    4    0    0  0.28319641432E+01  0.19231956893E+01 -0.66055185619E-01  0.34238963355E+01  0.51100000000E-03 0. -1.
        -11    1    4    4    0    0 -0.12813546867E+02 -0.11959168828E+02  0.22618893899E+02  0.28615084551E+02  0.51100000000E-03 0.  1.
         12    1    4    4    0    0 -0.55637608927E+01 -0.20050223502E+02 -0.80979817912E+01  0.22328103521E+02  0.00000000000E+00 0. -1.
</event>
<event>
 8    1  0.1212194E-006  0.9118800E+02  0.7816164E-02  0.1184000E+00
        -11   -1    0    0    0    0  0.00000000000E+00  0.00000000000E+00  0.45593999997E+02  0.45594000000E+02  0.51100000000E-03 0. -1.
         11   -1    0    0    0    0 -0.00000000000E+00 -0.00000000000E+00 -0.45593999997E+02  0.45594000000E+02  0.51100000000E-03 0.  1.
         23    2    1    2    0    0  0.71054273576E-14  0.00000000000E+00  0.35527136788E-14  0.91188000000E+02  0.91188000000E+02 0.  0.
    9900012    2    3    3    0    0 -0.23333995803E+02  0.16061838746E+02 -0.23522804706E+02  0.54367077073E+02  0.39999983802E+02 0.  0.
         12    1    3    3    0    0  0.23333995803E+02 -0.16061838746E+02  0.23522804706E+02  0.36820922927E+02  0.00000000000E+00 0. -1.
         11    1    4    4    0    0  0.72825865002E+00  0.15854916083E+02 -0.10343340725E+02  0.18944482634E+02  0.51100000000E-03 0. -1.
        -11    1    4    4    0    0 -0.25221756728E+02  0.14861287797E+01 -0.17523752689E+02  0.30747804796E+02  0.51100000000E-03 0.  1.
         12    1    4    4    0    0  0.11595022758E+01 -0.12792061170E+01  0.43442887084E+01  0.46747896423E+01  0.00000000000E+00 0. -1.
</event>
<event>
 8    1  0.1212194E-006  0.9118800E+02  0.7816164E-02  0.1184000E+00
        -11   -1    0    0    0    0  0.00000000000E+00  0.00000000000E+00  0.45593999997E+02  0.45594000000E+02  0.51100000000E-03 0.  1.
         11   -1    0    0    0    0 -0.00000000000E+00 -0.00000000000E+00 -0.45593999997E+02  0.45594000000E+02  0.51100000000E-03 0. -1.
         23    2    1    2    0    0  0.00000000000E+00  0.00000000000E+00  0.00000000000E+00  0.91188000000E+02  0.91188000000E+02 0.  0.
    9900012    2    3    3    0    0 -0.19317673576E+02  0.28518777270E+02 -0.13011049648E+02  0.54367074125E+02  0.39999977083E+02 0.  0.
        -12    1    3    3    0    0  0.19317673576E+02 -0.28518777270E+02  0.13011049648E+02  0.36820925875E+02  0.00000000000E+00 0.  1.
         11    1    4    4    0    0 -0.62501955299E+01  0.63210601467E+01 -0.22338477248E+02  0.24042219356E+02  0.51100000000E-03 0. -1.
        -11    1    4    4    0    0 -0.97051574013E+01  0.83095374547E+01 -0.81407200114E+00  0.12802390651E+02  0.51100000000E-03 0.  1.
         12    1    4    4    0    0 -0.33623206444E+01  0.13888179669E+02  0.10141499601E+02  0.17522464119E+02  0.00000000000E+00 0. -1.
</event>
<event>
 8    1  0.1212194E-006  0.9118800E+02  0.7816164E-02  0.1184000E+00
        -11   -1    0    0    0    0  0.00000000000E+00  0.00000000000E+00  0.45593999997E+02  0.45594000000E+02  0.51100000000E-03 0.  1.
         11   -1    0    0    0    0 -0.00000000000E+00 -0.00000000000E+00 -0.45593999997E+02  0.45594000000E+02  0.51100000000E-03 0. -1.
         23    2    1    2    0    0  0.00000000000E+00  0.44408920985E-15  0.00000000000E+00  0.91188000000E+02  0.91188000000E+02 0.  0.
    9900012    2    3    3    0    0 -0.21551106160E+02 -0.29623987469E+01  0.29707815237E+02  0.54367078376E+02  0.39999986775E+02 0.  0.
         12    1    3    3    0    0  0.21551106160E+02  0.29623987469E+01 -0.29707815237E+02  0.36820921624E+02  0.00000000000E+00 0. -1.
         11    1    4    4    0    0  0.38449126434E+01  0.16012967758E+01 -0.29329143672E+01  0.50940643445E+01  0.51100000000E-03 0. -1.
        -11    1    4    4    0    0  0.36933550903E+01 -0.56766382486E+01  0.21222901846E+01  0.70971268495E+01  0.51100000000E-03 0.  1.
        -12    1    4    4    0    0 -0.29089373894E+02  0.11129427260E+01  0.30518439419E+02  0.42175887183E+02  0.00000000000E+00 0.  1.
</event>
<event>
 8    1  0.1212194E-006  0.9118800E+02  0.7816164E-02  0.1184000E+00
        -11   -1    0    0    0    0  0.00000000000E+00  0.00000000000E+00  0.45593999997E+02  0.45594000000E+02  0.51100000000E-03 0. -1.
         11   -1    0    0    0    0 -0.00000000000E+00 -0.00000000000E+00 -0.45593999997E+02  0.45594000000E+02  0.51100000000E-03 0.  1.
         23    2    1    2    0    0 -0.17763568394E-14  0.44408920985E-15 -0.71054273576E-14  0.91188000000E+02  0.91188000000E+02 0.  0.
    9900012    2    3    3    0    0  0.14350312713E+02  0.39867902863E+01  0.33674411877E+02  0.54366919258E+02  0.39999624030E+02 0.  0.
        -12    1    3    3    0    0 -0.14350312713E+02 -0.39867902863E+01 -0.33674411877E+02  0.36821080742E+02  0.00000000000E+00 0.  1.
         11    1    4    4    0    0  0.46068068857E+01  0.76418406713E+01  0.17301094873E+02  0.19466594016E+02  0.51100000000E-03 0. -1.
        -11    1    4    4    0    0 -0.98472764166E+01  0.27131771504E+01  0.57829830232E+01  0.11737677623E+02  0.51100000000E-03 0.  1.
        -12    1    4    4    0    0  0.19590782244E+02 -0.63682275354E+01  0.10590333981E+02  0.23162647619E+02  0.00000000000E+00 0.  1.
</event>
<event>
 8    1  0.1212194E-006  0.9118800E+02  0.7816164E-02  0.1184000E+00
        -11   -1    0    0    0    0  0.00000000000E+00  0.00000000000E+00  0.45593999997E+02  0.45594000000E+02  0.51100000000E-03 0. -1.
         11   -1    0    0    0    0 -0.00000000000E+00 -0.00000000000E+00 -0.45593999997E+02  0.45594000000E+02  0.51100000000E-03 0.  1.
         23    2    1    2    0    0 -0.88817841970E-15  0.35527136788E-14  0.00000000000E+00  0.91188000000E+02  0.91188000000E+02 0.  0.
    9900012    2    3    3    0    0 -0.44228338622E+01  0.29050406678E+02 -0.22187679379E+02  0.54367072475E+02  0.39999973322E+02 0.  0.
         12    1    3    3    0    0  0.44228338622E+01 -0.29050406678E+02  0.22187679379E+02  0.36820927525E+02  0.00000000000E+00 0. -1.
         11    1    4    4    0    0  0.96413152863E+01  0.12573074888E+01 -0.28731734044E+01  0.10138585120E+02  0.51100000000E-03 0. -1.
        -11    1    4    4    0    0 -0.19748430951E+01 -0.24631313618E+01 -0.97846144638E+01  0.10281327824E+02  0.51100000000E-03 0.  1.
        -12    1    4    4    0    0 -0.12089306053E+02  0.30256230551E+02 -0.95298915109E+01  0.33947159531E+02  0.00000000000E+00 0.  1.
</event>
<event>
 8    1  0.1212194E-006  0.9118800E+02  0.7816164E-02  0.1184000E+00
        -11   -1    0    0    0    0  0.00000000000E+00  0.00000000000E+00  0.45593999997E+02  0.45594000000E+02  0.51100000000E-03 0.  1.
         11   -1    0    0    0    0 -0.00000000000E+00 -0.00000000000E+00 -0.45593999997E+02  0.45594000000E+02  0.51100000000E-03 0. -1.
         23    2    1    2    0    0 -0.35527136788E-14  0.00000000000E+00 -0.22204460493E-15  0.91188000000E+02  0.91188000000E+02 0.  0.
    9900012    2    3    3    0    0 -0.19213702906E+02  0.31350067190E+02  0.19461028788E+01  0.54367076484E+02  0.39999982460E+02 0.  0.
         12    1    3    3    0    0  0.19213702906E+02 -0.31350067190E+02 -0.19461028788E+01  0.36820923516E+02  0.00000000000E+00 0. -1.
         11    1    4    4    0    0  0.59928216928E+01 -0.40772277271E+01 -0.32807927109E+01  0.79562113379E+01  0.51100000000E-03 0. -1.
        -11    1    4    4    0    0 -0.20254726164E+02  0.16658460899E+02  0.62962304475E+01  0.26970368362E+02  0.51100000000E-03 0.  1.
         12    1    4    4    0    0 -0.49517984351E+01  0.18768834018E+02 -0.10693348577E+01  0.19440496784E+02  0.00000000000E+00 0. -1.
</event>
<event>
 8    1  0.1212194E-006  0.9118800E+02  0.7816164E-02  0.1184000E+00
        -11   -1    0    0    0    0  0.00000000000E+00  0.00000000000E+00  0.45593999997E+02  0.45594000000E+02  0.51100000000E-03 0. -1.
         11   -1    0    0    0    0 -0.00000000000E+00 -0.00000000000E+00 -0.45593999997E+02  0.45594000000E+02  0.51100000000E-03 0.  1.
         23    2    1    2    0    0 -0.71054273576E-14  0.22204460493E-15  0.00000000000E+00  0.91188000000E+02  0.91188000000E+02 0.  0.
    9900012    2    3    3    0    0  0.32687100680E+02 -0.18376252934E+01  0.16850987641E+02  0.54367092867E+02  0.40000019809E+02 0.  0.
         12    1    3    3    0    0 -0.32687100680E+02  0.18376252934E+01 -0.16850987641E+02  0.36820907133E+02  0.00000000000E+00 0. -1.
         11    1    4    4    0    0 -0.73300792036E+00 -0.29015274675E+01 -0.43086576027E-01  0.29929949833E+01  0.51100000000E-03 0. -1.
        -11    1    4    4    0    0 -0.26351730081E+01  0.25301726467E+01 -0.71382449779E+01  0.80187562646E+01  0.51100000000E-03 0.  1.
        -12    1    4    4    0    0  0.36055281609E+02 -0.14662704725E+01  0.24032319195E+02  0.43355341619E+02  0.00000000000E+00 0.  1.
</event>
<event>
 8    1  0.1212194E-006  0.9118800E+02  0.7816164E-02  0.1184000E+00
        -11   -1    0    0    0    0  0.00000000000E+00  0.00000000000E+00  0.45593999997E+02  0.45594000000E+02  0.51100000000E-03 0. -1.
         11   -1    0    0    0    0 -0.00000000000E+00 -0.00000000000E+00 -0.45593999997E+02  0.45594000000E+02  0.51100000000E-03 0.  1.
         23    2    1    2    0    0  0.66613381478E-15  0.00000000000E+00 -0.71054273576E-14  0.91188000000E+02  0.91188000000E+02 0.  0.
    9900012    2    3    3    0    0 -0.14958801835E+01  0.93617016744E+01  0.35579493049E+02  0.54367089617E+02  0.40000012401E+02 0.  0.
        -12    1    3    3    0    0  0.14958801835E+01 -0.93617016744E+01 -0.35579493049E+02  0.36820910383E+02  0.00000000000E+00 0.  1.
         11    1    4    4    0    0 -0.13372006766E+02  0.11061990083E+02  0.26702590190E+02  0.31846609123E+02  0.51100000000E-03 0. -1.
        -11    1    4    4    0    0  0.14036229087E+02  0.29654615706E+01  0.96942546441E+01  0.17314394667E+02  0.51100000000E-03 0.  1.
         12    1    4    4    0    0 -0.21601025052E+01 -0.46657499793E+01 -0.81735178467E+00  0.52060858274E+01  0.00000000000E+00 0. -1.
</event>
<event>
 8    1  0.1212194E-006  0.9118800E+02  0.7816164E-02  0.1184000E+00
        -11   -1    0    0    0    0  0.00000000000E+00  0.00000000000E+00  0.45593999997E+02  0.45594000000E+02  0.51100000000E-03 0.  1.
         11   -1    0    0    0    0 -0.00000000000E+00 -0.00000000000E+00 -0.45593999997E+02  0.45594000000E+02  0.51100000000E-03 0. -1.
         23    2    1    2    0    0  0.35527136788E-14  0.17763568394E-14  0.00000000000E+00  0.91188000000E+02  0.91188000000E+02 0.  0.
    9900012    2    3    3    0    0 -0.29904217518E+02 -0.13304066301E+02 -0.16867710051E+02  0.54367081382E+02  0.39999993626E+02 0.  0.
        -12    1    3    3    0    0  0.29904217518E+02  0.13304066301E+02  0.16867710051E+02  0.36820918618E+02  0.00000000000E+00 0.  1.
         11    1    4    4    0    0 -0.38673382510E+01 -0.23886762841E+01  0.38657944761E+01  0.59671137689E+01  0.51100000000E-03 0. -1.
        -11    1    4    4    0    0 -0.12704640739E+02 -0.62596127524E+00  0.80488022163E+01  0.15052672228E+02  0.51100000000E-03 0.  1.
         12    1    4    4    0    0 -0.13332238528E+02 -0.10289428742E+02 -0.28782306744E+02  0.33347295385E+02  0.00000000000E+00 0. -1.
</event>
<event>
 8    1  0.1212194E-006  0.9118800E+02  0.7816164E-02  0.1184000E+00
        -11   -1    0    0    0    0  0.00000000000E+00  0.00000000000E+00  0.45593999997E+02  0.45594000000E+02  0.51100000000E-03 0.  1.
         11   -1    0    0    0    0 -0.00000000000E+00 -0.00000000000E+00 -0.45593999997E+02  0.45594000000E+02  0.51100000000E-03 0. -1.
         23    2    1    2    0    0  0.35527136788E-14  0.00000000000E+00  0.00000000000E+00  0.91188000000E+02  0.91188000000E+02 0.  0.
    9900012    2    3    3    0    0 -0.28619425319E+02 -0.28759696537E+01 -0.22987795507E+02  0.54367062352E+02  0.39999950243E+02 0.  0.
        -12    1    3    3    0    0  0.28619425319E+02  0.28759696537E+01  0.22987795507E+02  0.36820937648E+02  0.00000000000E+00 0.  1.
         11    1    4    4    0    0 -0.81020871169E+01 -0.43663874436E+00  0.93481976766E+01  0.12378338705E+02  0.51100000000E-03 0. -1.
        -11    1    4    4    0    0 -0.69661713987E+00 -0.14794950142E+01  0.18447679005E+01  0.24652281445E+01  0.51100000000E-03 0.  1.
         12    1    4    4    0    0 -0.19820721062E+02 -0.95983589513E+00 -0.34180761084E+02  0.39523495502E+02  0.00000000000E+00 0. -1.
</event>
<event>
 8    1  0.1212194E-006  0.9118800E+02  0.7816164E-02  0.1184000E+00
        -11   -1    0    0    0    0  0.00000000000E+00  0.00000000000E+00  0.45593999997E+02  0.45594000000E+02  0.51100000000E-03 0.  1.
         11   -1    0    0    0    0 -0.00000000000E+00 -0.00000000000E+00 -0.45593999997E+02  0.45594000000E+02  0.51100000000E-03 0. -1.
         23    2    1    2    0    0  0.35527136788E-14  0.35527136788E-14  0.66613381478E-15  0.91188000000E+02  0.91188000000E+02 0.  0.
    9900012    2    3    3    0    0 -0.31085178997E+02 -0.19716347338E+02 -0.87065349452E+00  0.54367071941E+02  0.39999972104E+02 0.  0.
        -12    1    3    3    0    0  0.31085178997E+02  0.19716347338E+02  0.87065349452E+00  0.36820928059E+02  0.00000000000E+00 0.  1.
         11    1    4    4    0    0 -0.55567801249E+01  0.95441467564E+01 -0.64490323440E+01  0.12789001568E+02  0.51100000000E-03 0. -1.
        -11    1    4    4    0    0 -0.17502887990E+02 -0.98421148792E+01  0.42466283189E+01  0.20524428509E+02  0.51100000000E-03 0.  1.
        -12    1    4    4    0    0 -0.80255108817E+01 -0.19418379215E+02  0.13317505306E+01  0.21053641864E+02  0.00000000000E+00 0.  1.
</event>
<event>
 8    1  0.1212194E-006  0.9118800E+02  0.7816164E-02  0.1184000E+00
        -11   -1    0    0    0    0  0.00000000000E+00  0.00000000000E+00  0.45593999997E+02  0.45594000000E+02  0.51100000000E-03 0.  1.
         11   -1    0    0    0    0 -0.00000000000E+00 -0.00000000000E+00 -0.45593999997E+02  0.45594000000E+02  0.51100000000E-03 0. -1.
         23    2    1    2    0    0 -0.17763568394E-14  0.00000000000E+00  0.00000000000E+00  0.91188000000E+02  0.91188000000E+02 0.  0.
    9900012    2    3    3    0    0 -0.68224133717E+01 -0.35474490841E+02 -0.71271154721E+01  0.54367073890E+02  0.39999976548E+02 0.  0.
         12    1    3    3    0    0  0.68224133717E+01  0.35474490841E+02  0.71271154721E+01  0.36820926110E+02  0.00000000000E+00 0. -1.
         11    1    4    4    0    0  0.90291745966E+01 -0.17363716620E+02 -0.72202103969E+01  0.20860395183E+02  0.51100000000E-03 0. -1.
        -11    1    4    4    0    0  0.42595411125E+01 -0.67328554676E+00  0.48249527289E+01  0.64712574523E+01  0.51100000000E-03 0.  1.
        -12    1    4    4    0    0 -0.20111129081E+02 -0.17437488674E+02 -0.47318578041E+01  0.27035421255E+02  0.00000000000E+00 0.  1.
</event>
<event>
 8    1  0.1212194E-006  0.9118800E+02  0.7816164E-02  0.1184000E+00
        -11   -1    0    0    0    0  0.00000000000E+00  0.00000000000E+00  0.45593999997E+02  0.45594000000E+02  0.51100000000E-03 0.  1.
         11   -1    0    0    0    0 -0.00000000000E+00 -0.00000000000E+00 -0.45593999997E+02  0.45594000000E+02  0.51100000000E-03 0. -1.
         23    2    1    2    0    0 -0.35527136788E-14  0.00000000000E+00  0.00000000000E+00  0.91188000000E+02  0.91188000000E+02 0.  0.
    9900012    2    3    3    0    0 -0.26273439210E+02  0.14027732705E+02  0.21649696819E+02  0.54367078432E+02  0.39999986902E+02 0.  0.
         12    1    3    3    0    0  0.26273439210E+02 -0.14027732705E+02 -0.21649696819E+02  0.36820921568E+02  0.00000000000E+00 0. -1.
         11    1    4    4    0    0 -0.17295098769E+02 -0.45044198434E+01  0.18988279971E+01  0.17972639973E+02  0.51100000000E-03 0. -1.
        -11    1    4    4    0    0 -0.28160173510E+01  0.20791187057E+02  0.21031458575E+02  0.29707333489E+02  0.51100000000E-03 0.  1.
        -12    1    4    4    0    0 -0.61623230896E+01 -0.22590345083E+01 -0.12805897539E+01  0.66871049706E+01  0.00000000000E+00 0.  1.
</event>
<event>
 8    1  0.1212194E-006  0.9118800E+02  0.7816164E-02  0.1184000E+00
        -11   -1    0    0    0    0  0.00000000000E+00  0.00000000000E+00  0.45593999997E+02  0.45594000000E+02  0.51100000000E-03 0. -1.
         11   -1    0    0    0    0 -0.00000000000E+00 -0.00000000000E+00 -0.45593999997E+02  0.45594000000E+02  0.51100000000E-03 0.  1.
         23    2    1    2    0    0  0.00000000000E+00 -0.44408920985E-15  0.00000000000E+00  0.91188000000E+02  0.91188000000E+02 0.  0.
    9900012    2    3    3    0    0 -0.17244675021E+02 -0.20815414181E+01 -0.32466407244E+02  0.54367092480E+02  0.40000018927E+02 0.  0.
         12    1    3    3    0    0  0.17244675021E+02  0.20815414181E+01  0.32466407244E+02  0.36820907520E+02  0.00000000000E+00 0. -1.
         11    1    4    4    0    0 -0.70561492857E+01 -0.13174849770E+02  0.87841766848E+00  0.14971223299E+02  0.51100000000E-03 0. -1.
        -11    1    4    4    0    0 -0.10502543130E+02  0.96613345191E+00 -0.13673329404E+02  0.17268374656E+02  0.51100000000E-03 0.  1.
        -12    1    4    4    0    0  0.31401739450E+00  0.10127174900E+02 -0.19671495509E+02  0.22127494525E+02  0.00000000000E+00 0.  1.
</event>
<event>
 8    1  0.1212194E-006  0.9118800E+02  0.7816164E-02  0.1184000E+00
        -11   -1    0    0    0    0  0.00000000000E+00  0.00000000000E+00  0.45593999997E+02  0.45594000000E+02  0.51100000000E-03 0. -1.
         11   -1    0    0    0    0 -0.00000000000E+00 -0.00000000000E+00 -0.45593999997E+02  0.45594000000E+02  0.51100000000E-03 0.  1.
         23    2    1    2    0    0  0.17763568394E-14  0.00000000000E+00  0.35527136788E-14  0.91188000000E+02  0.91188000000E+02 0.  0.
    9900012    2    3    3    0    0 -0.84918688562E+01 -0.26415184940E+02 -0.24205470243E+02  0.54367100747E+02  0.40000037773E+02 0.  0.
         12    1    3    3    0    0  0.84918688562E+01  0.26415184940E+02  0.24205470243E+02  0.36820899253E+02  0.00000000000E+00 0. -1.
         11    1    4    4    0    0 -0.16838229645E+02 -0.13309800567E+02 -0.12638724446E+02  0.24908113630E+02  0.51100000000E-03 0. -1.
        -11    1    4    4    0    0 -0.42907146944E+01 -0.62236849372E+01 -0.12958755399E+02  0.15002460749E+02  0.51100000000E-03 0.  1.
         12    1    4    4    0    0  0.12637075483E+02 -0.68816994358E+01  0.13920096019E+01  0.14456526368E+02  0.00000000000E+00 0. -1.
</event>
<event>
 8    1  0.1212194E-006  0.9118800E+02  0.7816164E-02  0.1184000E+00
        -11   -1    0    0    0    0  0.00000000000E+00  0.00000000000E+00  0.45593999997E+02  0.45594000000E+02  0.51100000000E-03 0. -1.
         11   -1    0    0    0    0 -0.00000000000E+00 -0.00000000000E+00 -0.45593999997E+02  0.45594000000E+02  0.51100000000E-03 0.  1.
         23    2    1    2    0    0  0.88817841970E-15  0.00000000000E+00 -0.35527136788E-14  0.91188000000E+02  0.91188000000E+02 0.  0.
    9900012    2    3    3    0    0 -0.46761289676E+01 -0.25026865549E+02  0.26600166269E+02  0.54367095247E+02  0.40000025233E+02 0.  0.
        -12    1    3    3    0    0  0.46761289676E+01  0.25026865549E+02 -0.26600166269E+02  0.36820904753E+02  0.00000000000E+00 0.  1.
         11    1    4    4    0    0  0.71251082624E+01 -0.35426397254E+00  0.98252127084E+00  0.72012512122E+01  0.51100000000E-03 0.  1.
        -11    1    4    4    0    0 -0.64019606029E+01 -0.52681146781E+01 -0.56068010803E+01  0.10008713725E+02  0.51100000000E-03 0. -1.
         12    1    4    4    0    0 -0.53992766271E+01 -0.19404486898E+02  0.31224446079E+02  0.37157130309E+02  0.00000000000E+00 0. -1.
</event>
<event>
 8    1  0.1212194E-006  0.9118800E+02  0.7816164E-02  0.1184000E+00
        -11   -1    0    0    0    0  0.00000000000E+00  0.00000000000E+00  0.45593999997E+02  0.45594000000E+02  0.51100000000E-03 0.  1.
         11   -1    0    0    0    0 -0.00000000000E+00 -0.00000000000E+00 -0.45593999997E+02  0.45594000000E+02  0.51100000000E-03 0. -1.
         23    2    1    2    0    0 -0.88817841970E-15  0.00000000000E+00  0.00000000000E+00  0.91188000000E+02  0.91188000000E+02 0.  0.
    9900012    2    3    3    0    0 -0.44298616667E+01 -0.35663918637E+02 -0.80152411472E+01  0.54367043228E+02  0.39999906648E+02 0.  0.
         12    1    3    3    0    0  0.44298616667E+01  0.35663918637E+02  0.80152411472E+01  0.36820956772E+02  0.00000000000E+00 0. -1.
         11    1    4    4    0    0 -0.16767674499E+02 -0.20483063166E+02  0.29168617363E+01  0.26631163464E+02  0.51100000000E-03 0. -1.
        -11    1    4    4    0    0  0.87915008586E+00 -0.13713658748E+02 -0.42195682465E+01  0.14375051220E+02  0.51100000000E-03 0.  1.
         12    1    4    4    0    0  0.11458662746E+02 -0.14671967229E+01 -0.67125346370E+01  0.13360828545E+02  0.00000000000E+00 0. -1.
</event>
<event>
 8    1  0.1212194E-006  0.9118800E+02  0.7816164E-02  0.1184000E+00
        -11   -1    0    0    0    0  0.00000000000E+00  0.00000000000E+00  0.45593999997E+02  0.45594000000E+02  0.51100000000E-03 0.  1.
         11   -1    0    0    0    0 -0.00000000000E+00 -0.00000000000E+00 -0.45593999997E+02  0.45594000000E+02  0.51100000000E-03 0. -1.
         23    2    1    2    0    0  0.17763568394E-14  0.00000000000E+00  0.00000000000E+00  0.91188000000E+02  0.91188000000E+02 0.  0.
    9900012    2    3    3    0    0 -0.80526505613E+01  0.28984360728E+02  0.21233022659E+02  0.54367087476E+02  0.40000007519E+02 0.  0.
         12    1    3    3    0    0  0.80526505613E+01 -0.28984360728E+02 -0.21233022659E+02  0.36820912524E+02  0.00000000000E+00 0. -1.
         11    1    4    4    0    0  0.45373791310E+01  0.15069624391E+02  0.19129258260E+02  0.24771150770E+02  0.51100000000E-03 0.  1.
        -11    1    4    4    0    0  0.23454096507E+01  0.12389040876E+02  0.61758699982E+01  0.14040322317E+02  0.51100000000E-03 0. -1.
         12    1    4    4    0    0 -0.14935439343E+02  0.15256954613E+01 -0.40721055990E+01  0.15555614389E+02  0.00000000000E+00 0. -1.
</event>
<event>
 8    1  0.1212194E-006  0.9118800E+02  0.7816164E-02  0.1184000E+00
        -11   -1    0    0    0    0  0.00000000000E+00  0.00000000000E+00  0.45593999997E+02  0.45594000000E+02  0.51100000000E-03 0. -1.
         11   -1    0    0    0    0 -0.00000000000E+00 -0.00000000000E+00 -0.45593999997E+02  0.45594000000E+02  0.51100000000E-03 0.  1.
         23    2    1    2    0    0  0.35527136788E-14  0.35527136788E-14  0.00000000000E+00  0.91188000000E+02  0.91188000000E+02 0.  0.
    9900012    2    3    3    0    0 -0.21601783572E+02 -0.24470869068E+02 -0.17038760140E+02  0.54367084292E+02  0.40000000261E+02 0.  0.
         12    1    3    3    0    0  0.21601783572E+02  0.24470869068E+02  0.17038760140E+02  0.36820915708E+02  0.00000000000E+00 0. -1.
         11    1    4    4    0    0  0.82111090319E+01 -0.15485379707E+02 -0.42489905985E+01  0.18035332478E+02  0.51100000000E-03 0. -1.
        -11    1    4    4    0    0 -0.70125212206E+01  0.11864360449E+00 -0.91250141327E+01  0.11508927550E+02  0.51100000000E-03 0.  1.
         12    1    4    4    0    0 -0.22800371383E+02 -0.91041329654E+01 -0.36647554090E+01  0.24822824264E+02  0.00000000000E+00 0. -1.
</event>
<event>
 8    1  0.1212194E-006  0.9118800E+02  0.7816164E-02  0.1184000E+00
        -11   -1    0    0    0    0  0.00000000000E+00  0.00000000000E+00  0.45593999997E+02  0.45594000000E+02  0.51100000000E-03 0. -1.
         11   -1    0    0    0    0 -0.00000000000E+00 -0.00000000000E+00 -0.45593999997E+02  0.45594000000E+02  0.51100000000E-03 0.  1.
         23    2    1    2    0    0  0.00000000000E+00  0.35527136788E-14  0.44408920985E-15  0.91188000000E+02  0.91188000000E+02 0.  0.
    9900012    2    3    3    0    0 -0.20228291171E+02 -0.30677849916E+02 -0.23379781374E+01  0.54367076859E+02  0.39999983315E+02 0.  0.
         12    1    3    3    0    0  0.20228291171E+02  0.30677849916E+02  0.23379781374E+01  0.36820923141E+02  0.00000000000E+00 0. -1.
         11    1    4    4    0    0  0.69391461037E+00  0.41130052579E+01  0.43059838353E+01  0.59949834686E+01  0.51100000000E-03 0. -1.
        -11    1    4    4    0    0  0.23854722220E+00 -0.20574080853E+02 -0.96063577575E+01  0.22707527768E+02  0.51100000000E-03 0.  1.
        -12    1    4    4    0    0 -0.21160753004E+02 -0.14216774321E+02  0.29623957848E+01  0.25664565622E+02  0.00000000000E+00 0.  1.
</event>
<event>
 8    1  0.1212194E-006  0.9118800E+02  0.7816164E-02  0.1184000E+00
        -11   -1    0    0    0    0  0.00000000000E+00  0.00000000000E+00  0.45593999997E+02  0.45594000000E+02  0.51100000000E-03 0.  1.
         11   -1    0    0    0    0 -0.00000000000E+00 -0.00000000000E+00 -0.45593999997E+02  0.45594000000E+02  0.51100000000E-03 0. -1.
         23    2    1    2    0    0  0.17763568394E-14  0.00000000000E+00 -0.35527136788E-14  0.91188000000E+02  0.91188000000E+02 0.  0.
    9900012    2    3    3    0    0 -0.36921008206E+01 -0.24884439496E+02  0.26886714779E+02  0.54367321447E+02  0.40000540898E+02 0.  0.
        -12    1    3    3    0    0  0.36921008206E+01  0.24884439496E+02 -0.26886714779E+02  0.36820678553E+02  0.00000000000E+00 0.  1.
         11    1    4    4    0    0  0.13088487908E+02 -0.14497297868E+02  0.70943154300E+01  0.20780025816E+02  0.51100000000E-03 0. -1.
        -11    1    4    4    0    0  0.43335256320E+00  0.34513702526E+00 -0.30140768534E+01  0.30645674327E+01  0.51100000000E-03 0.  1.
        -12    1    4    4    0    0 -0.17213941292E+02 -0.10732278653E+02  0.22806476203E+02  0.30522728199E+02  0.00000000000E+00 0.  1.
</event>
<event>
 8    1  0.1212194E-006  0.9118800E+02  0.7816164E-02  0.1184000E+00
        -11   -1    0    0    0    0  0.00000000000E+00  0.00000000000E+00  0.45593999997E+02  0.45594000000E+02  0.51100000000E-03 0.  1.
         11   -1    0    0    0    0 -0.00000000000E+00 -0.00000000000E+00 -0.45593999997E+02  0.45594000000E+02  0.51100000000E-03 0. -1.
         23    2    1    2    0    0  0.00000000000E+00  0.00000000000E+00  0.00000000000E+00  0.91188000000E+02  0.91188000000E+02 0.  0.
    9900012    2    3    3    0    0 -0.63650541623E+01  0.29321553060E+01  0.36147877879E+02  0.54367074912E+02  0.39999978876E+02 0.  0.
         12    1    3    3    0    0  0.63650541623E+01 -0.29321553060E+01 -0.36147877879E+02  0.36820925088E+02  0.00000000000E+00 0. -1.
         11    1    4    4    0    0  0.11783339899E+02 -0.33306259099E+01  0.56862272179E+01  0.13500864727E+02  0.51100000000E-03 0. -1.
        -11    1    4    4    0    0 -0.10055827631E+02 -0.65923603530E+01  0.14378880587E+02  0.18743828093E+02  0.51100000000E-03 0.  1.
         12    1    4    4    0    0 -0.80925664308E+01  0.12855141569E+02  0.16082770074E+02  0.22122382092E+02  0.00000000000E+00 0. -1.
</event>
<event>
 8    1  0.1212194E-006  0.9118800E+02  0.7816164E-02  0.1184000E+00
        -11   -1    0    0    0    0  0.00000000000E+00  0.00000000000E+00  0.45593999997E+02  0.45594000000E+02  0.51100000000E-03 0.  1.
         11   -1    0    0    0    0 -0.00000000000E+00 -0.00000000000E+00 -0.45593999997E+02  0.45594000000E+02  0.51100000000E-03 0. -1.
         23    2    1    2    0    0 -0.17763568394E-14  0.00000000000E+00 -0.17763568394E-14  0.91188000000E+02  0.91188000000E+02 0.  0.
    9900012    2    3    3    0    0  0.97615922599E+01 -0.34035079472E+02 -0.10104755787E+02  0.54367062918E+02  0.39999951533E+02 0.  0.
        -12    1    3    3    0    0 -0.97615922599E+01  0.34035079472E+02  0.10104755787E+02  0.36820937082E+02  0.00000000000E+00 0.  1.
         11    1    4    4    0    0  0.97825294102E+01 -0.15847625431E+02 -0.20314407639E+02  0.27559395339E+02  0.51100000000E-03 0. -1.
        -11    1    4    4    0    0  0.77431637050E+01 -0.44513660114E+01  0.47163089713E+01  0.10100238319E+02  0.51100000000E-03 0.  1.
         12    1    4    4    0    0 -0.77641008554E+01 -0.13736088029E+02  0.54933428810E+01  0.16707429259E+02  0.00000000000E+00 0. -1.
</event>
<event>
 8    1  0.1212194E-006  0.9118800E+02  0.7816164E-02  0.1184000E+00
        -11   -1    0    0    0    0  0.00000000000E+00  0.00000000000E+00  0.45593999997E+02  0.45594000000E+02  0.51100000000E-03 0.  1.
         11   -1    0    0    0    0 -0.00000000000E+00 -0.00000000000E+00 -0.45593999997E+02  0.45594000000E+02  0.51100000000E-03 0. -1.
         23    2    1    2    0    0  0.00000000000E+00 -0.17763568394E-14  0.00000000000E+00  0.91188000000E+02  0.91188000000E+02 0.  0.
    9900012    2    3    3    0    0  0.19028078205E+02 -0.10481608151E+02 -0.29729630724E+02  0.54367043839E+02  0.39999908040E+02 0.  0.
        -12    1    3    3    0    0 -0.19028078205E+02  0.10481608151E+02  0.29729630724E+02  0.36820956161E+02  0.00000000000E+00 0.  1.
         11    1    4    4    0    0  0.20615673778E+02 -0.11535924626E+02 -0.31428504639E+02  0.39317101449E+02  0.51100000000E-03 0. -1.
        -11    1    4    4    0    0 -0.10452870527E+01 -0.41091216702E+01  0.66428669585E+01  0.78806844635E+01  0.51100000000E-03 0.  1.
        -12    1    4    4    0    0 -0.54230851987E+00  0.51634381447E+01 -0.49439930434E+01  0.71692579266E+01  0.00000000000E+00 0.  1.
</event>
<event>
 8    1  0.1212194E-006  0.9118800E+02  0.7816164E-02  0.1184000E+00
        -11   -1    0    0    0    0  0.00000000000E+00  0.00000000000E+00  0.45593999997E+02  0.45594000000E+02  0.51100000000E-03 0. -1.
         11   -1    0    0    0    0 -0.00000000000E+00 -0.00000000000E+00 -0.45593999997E+02  0.45594000000E+02  0.51100000000E-03 0.  1.
         23    2    1    2    0    0 -0.94368957093E-15  0.00000000000E+00  0.00000000000E+00  0.91188000000E+02  0.91188000000E+02 0.  0.
    9900012    2    3    3    0    0  0.15154102274E+00  0.20891468133E+02 -0.30320066243E+02  0.54367043706E+02  0.39999907736E+02 0.  0.
         12    1    3    3    0    0 -0.15154102274E+00 -0.20891468133E+02  0.30320066243E+02  0.36820956294E+02  0.00000000000E+00 0. -1.
         11    1    4    4    0    0 -0.95747034097E+00 -0.87446812359E+01 -0.13420254190E+02  0.16046476939E+02  0.51100000000E-03 0. -1.
        -11    1    4    4    0    0 -0.50546609492E+01  0.99232363247E+01 -0.13314092658E+02  0.17357571259E+02  0.51100000000E-03 0.  1.
        -12    1    4    4    0    0  0.61636723129E+01  0.19712913044E+02 -0.35857193960E+01  0.20962995508E+02  0.00000000000E+00 0.  1.
</event>
<event>
 8    1  0.1212194E-006  0.9118800E+02  0.7816164E-02  0.1184000E+00
        -11   -1    0    0    0    0  0.00000000000E+00  0.00000000000E+00  0.45593999997E+02  0.45594000000E+02  0.51100000000E-03 0.  1.
         11   -1    0    0    0    0 -0.00000000000E+00 -0.00000000000E+00 -0.45593999997E+02  0.45594000000E+02  0.51100000000E-03 0. -1.
         23    2    1    2    0    0 -0.71054273576E-14 -0.17763568394E-14 -0.44408920985E-15  0.91188000000E+02  0.91188000000E+02 0.  0.
    9900012    2    3    3    0    0  0.35206585297E+02  0.10647229856E+02  0.17066059178E+01  0.54367086708E+02  0.40000005769E+02 0.  0.
         12    1    3    3    0    0 -0.35206585297E+02 -0.10647229856E+02 -0.17066059178E+01  0.36820913292E+02  0.00000000000E+00 0. -1.
         11    1    4    4    0    0  0.49805713054E+01  0.94294416267E+01 -0.86962541406E+00  0.10699378886E+02  0.51100000000E-03 0. -1.
        -11    1    4    4    0    0 -0.58102657988E+01 -0.32167043540E+01 -0.23116471750E+01  0.70320756876E+01  0.51100000000E-03 0.  1.
         12    1    4    4    0    0  0.36036279791E+02  0.44344925829E+01  0.48878785069E+01  0.36635632135E+02  0.00000000000E+00 0. -1.
</event>
<event>
 8    1  0.1212194E-006  0.9118800E+02  0.7816164E-02  0.1184000E+00
        -11   -1    0    0    0    0  0.00000000000E+00  0.00000000000E+00  0.45593999997E+02  0.45594000000E+02  0.51100000000E-03 0.  1.
         11   -1    0    0    0    0 -0.00000000000E+00 -0.00000000000E+00 -0.45593999997E+02  0.45594000000E+02  0.51100000000E-03 0. -1.
         23    2    1    2    0    0  0.35527136788E-14  0.00000000000E+00 -0.44408920985E-15  0.91188000000E+02  0.91188000000E+02 0.  0.
    9900012    2    3    3    0    0  0.31994210948E+02 -0.18038593120E+02  0.26001265570E+01  0.54367067991E+02  0.39999963098E+02 0.  0.
         12    1    3    3    0    0 -0.31994210948E+02  0.18038593120E+02 -0.26001265570E+01  0.36820932009E+02  0.00000000000E+00 0. -1.
         11    1    4    4    0    0  0.84329157579E+01 -0.14177371912E+01 -0.43197643032E+01  0.95804180921E+01  0.51100000000E-03 0. -1.
        -11    1    4    4    0    0  0.18779365397E+02  0.68186669444E+01  0.36406007276E+00  0.19982275236E+02  0.51100000000E-03 0.  1.
        -12    1    4    4    0    0  0.47819297928E+01 -0.23439522873E+02  0.65558307874E+01  0.24804374662E+02  0.00000000000E+00 0.  1.
</event>
<event>
 8    1  0.1212194E-006  0.9118800E+02  0.7816164E-02  0.1184000E+00
        -11   -1    0    0    0    0  0.00000000000E+00  0.00000000000E+00  0.45593999997E+02  0.45594000000E+02  0.51100000000E-03 0.  1.
         11   -1    0    0    0    0 -0.00000000000E+00 -0.00000000000E+00 -0.45593999997E+02  0.45594000000E+02  0.51100000000E-03 0. -1.
         23    2    1    2    0    0  0.35527136788E-14  0.00000000000E+00  0.00000000000E+00  0.91188000000E+02  0.91188000000E+02 0.  0.
    9900012    2    3    3    0    0 -0.29710488199E+02 -0.14965257424E+02 -0.15783037970E+02  0.54367131917E+02  0.40000108831E+02 0.  0.
        -12    1    3    3    0    0  0.29710488199E+02  0.14965257424E+02  0.15783037970E+02  0.36820868083E+02  0.00000000000E+00 0.  1.
         11    1    4    4    0    0 -0.39409853519E+01 -0.18772455112E+02  0.25727822076E+00  0.19183394611E+02  0.51100000000E-03 0. -1.
        -11    1    4    4    0    0 -0.58213295299E+01  0.87825532312E+01 -0.74372571642E+01  0.12897050560E+02  0.51100000000E-03 0.  1.
         12    1    4    4    0    0 -0.19948173318E+02 -0.49753555432E+01 -0.86030590267E+01  0.22286686746E+02  0.00000000000E+00 0. -1.
</event>
<event>
 8    1  0.1212194E-006  0.9118800E+02  0.7816164E-02  0.1184000E+00
        -11   -1    0    0    0    0  0.00000000000E+00  0.00000000000E+00  0.45593999997E+02  0.45594000000E+02  0.51100000000E-03 0.  1.
         11   -1    0    0    0    0 -0.00000000000E+00 -0.00000000000E+00 -0.45593999997E+02  0.45594000000E+02  0.51100000000E-03 0. -1.
         23    2    1    2    0    0  0.00000000000E+00  0.00000000000E+00  0.26645352591E-14  0.91188000000E+02  0.91188000000E+02 0.  0.
    9900012    2    3    3    0    0  0.35925438288E+02  0.48310542287E+01  0.64656570097E+01  0.54367069516E+02  0.39999966575E+02 0.  0.
        -12    1    3    3    0    0 -0.35925438288E+02 -0.48310542287E+01 -0.64656570097E+01  0.36820930484E+02  0.00000000000E+00 0.  1.
         11    1    4    4    0    0  0.22910961136E+01  0.58850050886E+01 -0.11347523968E+02  0.12986481693E+02  0.51100000000E-03 0. -1.
        -11    1    4    4    0    0  0.89774297289E+00 -0.15621035256E+01 -0.23258211130E+01  0.29420322876E+01  0.51100000000E-03 0.  1.
        -12    1    4    4    0    0  0.32736599202E+02  0.50815266583E+00  0.20139002090E+02  0.38438555535E+02  0.00000000000E+00 0.  1.
</event>
<event>
 8    1  0.1212194E-006  0.9118800E+02  0.7816164E-02  0.1184000E+00
        -11   -1    0    0    0    0  0.00000000000E+00  0.00000000000E+00  0.45593999997E+02  0.45594000000E+02  0.51100000000E-03 0. -1.
         11   -1    0    0    0    0 -0.00000000000E+00 -0.00000000000E+00 -0.45593999997E+02  0.45594000000E+02  0.51100000000E-03 0.  1.
         23    2    1    2    0    0  0.00000000000E+00 -0.17763568394E-14 -0.35527136788E-14  0.91188000000E+02  0.91188000000E+02 0.  0.
    9900012    2    3    3    0    0  0.21936466153E+02 -0.94878043116E+01 -0.28009874318E+02  0.54367081526E+02  0.39999993954E+02 0.  0.
         12    1    3    3    0    0 -0.21936466153E+02  0.94878043116E+01  0.28009874318E+02  0.36820918474E+02  0.00000000000E+00 0. -1.
         11    1    4    4    0    0  0.57439689399E-01  0.16674769662E+01  0.47606625056E+01  0.50445700019E+01  0.51100000000E-03 0. -1.
        -11    1    4    4    0    0  0.14297624115E+02 -0.17287086004E+02 -0.10018322919E+02  0.24568927372E+02  0.51100000000E-03 0.  1.
        -12    1    4    4    0    0  0.75814023492E+01  0.61318047263E+01 -0.22752213905E+02  0.24753584152E+02  0.00000000000E+00 0.  1.
</event>
<event>
 8    1  0.1212194E-006  0.9118800E+02  0.7816164E-02  0.1184000E+00
        -11   -1    0    0    0    0  0.00000000000E+00  0.00000000000E+00  0.45593999997E+02  0.45594000000E+02  0.51100000000E-03 0.  1.
         11   -1    0    0    0    0 -0.00000000000E+00 -0.00000000000E+00 -0.45593999997E+02  0.45594000000E+02  0.51100000000E-03 0. -1.
         23    2    1    2    0    0 -0.35527136788E-14 -0.17763568394E-14  0.00000000000E+00  0.91188000000E+02  0.91188000000E+02 0.  0.
    9900012    2    3    3    0    0 -0.30867211092E+02 -0.15770135561E+02  0.12421741687E+02  0.54367060811E+02  0.39999946730E+02 0.  0.
         12    1    3    3    0    0  0.30867211092E+02  0.15770135561E+02 -0.12421741687E+02  0.36820939189E+02  0.00000000000E+00 0. -1.
         11    1    4    4    0    0  0.59514484901E+01 -0.10060349054E+01  0.75189047334E+00  0.60825311266E+01  0.51100000000E-03 0. -1.
        -11    1    4    4    0    0  0.14105256215E+00 -0.76497903897E+01  0.69775527232E+01  0.10354971323E+02  0.51100000000E-03 0.  1.
         12    1    4    4    0    0 -0.36959712144E+02 -0.71143102663E+01  0.46922984906E+01  0.37929558361E+02  0.00000000000E+00 0. -1.
</event>
<event>
 8    1  0.1212194E-006  0.9118800E+02  0.7816164E-02  0.1184000E+00
        -11   -1    0    0    0    0  0.00000000000E+00  0.00000000000E+00  0.45593999997E+02  0.45594000000E+02  0.51100000000E-03 0.  1.
         11   -1    0    0    0    0 -0.00000000000E+00 -0.00000000000E+00 -0.45593999997E+02  0.45594000000E+02  0.51100000000E-03 0. -1.
         23    2    1    2    0    0  0.71054273576E-14  0.88817841970E-15  0.35527136788E-14  0.91188000000E+02  0.91188000000E+02 0.  0.
    9900012    2    3    3    0    0 -0.27109236052E+02 -0.34029877591E+01 -0.24683782603E+02  0.54367080285E+02  0.39999991127E+02 0.  0.
        -12    1    3    3    0    0  0.27109236052E+02  0.34029877591E+01  0.24683782603E+02  0.36820919715E+02  0.00000000000E+00 0.  1.
         11    1    4    4    0    0 -0.58748953770E+01 -0.61614693341E+01 -0.10819626378E+02  0.13767440403E+02  0.51100000000E-03 0. -1.
        -11    1    4    4    0    0  0.54603077033E+01 -0.73420236971E+01 -0.72393980105E+00  0.91784727095E+01  0.51100000000E-03 0.  1.
        -12    1    4    4    0    0 -0.26694648378E+02  0.10100505272E+02 -0.13140216424E+02  0.31421167173E+02  0.00000000000E+00 0.  1.
</event>
<event>
 8    1  0.1212194E-006  0.9118800E+02  0.7816164E-02  0.1184000E+00
        -11   -1    0    0    0    0  0.00000000000E+00  0.00000000000E+00  0.45593999997E+02  0.45594000000E+02  0.51100000000E-03 0. -1.
         11   -1    0    0    0    0 -0.00000000000E+00 -0.00000000000E+00 -0.45593999997E+02  0.45594000000E+02  0.51100000000E-03 0.  1.
         23    2    1    2    0    0 -0.35527136788E-14  0.27755575616E-16 -0.35527136788E-14  0.91188000000E+02  0.91188000000E+02 0.  0.
    9900012    2    3    3    0    0 -0.19605882442E+02 -0.74610467355E-01  0.31167049412E+02  0.54367066252E+02  0.39999959135E+02 0.  0.
        -12    1    3    3    0    0  0.19605882442E+02  0.74610467355E-01 -0.31167049412E+02  0.36820933748E+02  0.00000000000E+00 0.  1.
         11    1    4    4    0    0 -0.10550191805E+02 -0.65133239035E+01  0.32851393595E+02  0.35113302277E+02  0.51100000000E-03 0. -1.
        -11    1    4    4    0    0 -0.31169675670E+01  0.26348237112E+00  0.66201785374E+01  0.73219993104E+01  0.51100000000E-03 0.  1.
        -12    1    4    4    0    0 -0.59387230698E+01  0.61752310650E+01 -0.83045227205E+01  0.11931764665E+02  0.00000000000E+00 0.  1.
</event>
<event>
 8    1  0.1212194E-006  0.9118800E+02  0.7816164E-02  0.1184000E+00
        -11   -1    0    0    0    0  0.00000000000E+00  0.00000000000E+00  0.45593999997E+02  0.45594000000E+02  0.51100000000E-03 0.  1.
         11   -1    0    0    0    0 -0.00000000000E+00 -0.00000000000E+00 -0.45593999997E+02  0.45594000000E+02  0.51100000000E-03 0. -1.
         23    2    1    2    0    0 -0.35527136788E-14  0.00000000000E+00  0.35527136788E-14  0.91188000000E+02  0.91188000000E+02 0.  0.
    9900012    2    3    3    0    0  0.26469898511E+02  0.62394598733E+01 -0.24823247199E+02  0.54367082193E+02  0.39999995475E+02 0.  0.
        -12    1    3    3    0    0 -0.26469898511E+02 -0.62394598733E+01  0.24823247199E+02  0.36820917807E+02  0.00000000000E+00 0.  1.
         11    1    4    4    0    0  0.32335616963E+02 -0.36706746952E+01 -0.20616382227E+02  0.38524033973E+02  0.51100000000E-03 0. -1.
        -11    1    4    4    0    0 -0.27255031373E+00  0.15113306239E+01  0.30493371155E+01  0.34142145559E+01  0.51100000000E-03 0.  1.
         12    1    4    4    0    0 -0.55931681390E+01  0.83988039446E+01 -0.72562020868E+01  0.12428833664E+02  0.00000000000E+00 0. -1.
</event>
<event>
 8    1  0.1212194E-006  0.9118800E+02  0.7816164E-02  0.1184000E+00
        -11   -1    0    0    0    0  0.00000000000E+00  0.00000000000E+00  0.45593999997E+02  0.45594000000E+02  0.51100000000E-03 0.  1.
         11   -1    0    0    0    0 -0.00000000000E+00 -0.00000000000E+00 -0.45593999997E+02  0.45594000000E+02  0.51100000000E-03 0. -1.
         23    2    1    2    0    0  0.71054273576E-14  0.66613381478E-15  0.00000000000E+00  0.91188000000E+02  0.91188000000E+02 0.  0.
    9900012    2    3    3    0    0  0.16336562484E+02 -0.13392155922E+01 -0.32971247111E+02  0.54367083277E+02  0.39999997948E+02 0.  0.
        -12    1    3    3    0    0 -0.16336562484E+02  0.13392155922E+01  0.32971247111E+02  0.36820916723E+02  0.00000000000E+00 0.  1.
         11    1    4    4    0    0 -0.10224189062E+02 -0.50807461095E+01 -0.69988614974E+00  0.11438438000E+02  0.51100000000E-03 0. -1.
        -11    1    4    4    0    0  0.82525132904E+01  0.48228774652E+01 -0.77389675125E+01  0.12298607282E+02  0.51100000000E-03 0.  1.
         12    1    4    4    0    0  0.18308238256E+02 -0.10813469479E+01 -0.24532393449E+02  0.30630037995E+02  0.00000000000E+00 0. -1.
</event>
<event>
 8    1  0.1212194E-006  0.9118800E+02  0.7816164E-02  0.1184000E+00
        -11   -1    0    0    0    0  0.00000000000E+00  0.00000000000E+00  0.45593999997E+02  0.45594000000E+02  0.51100000000E-03 0. -1.
         11   -1    0    0    0    0 -0.00000000000E+00 -0.00000000000E+00 -0.45593999997E+02  0.45594000000E+02  0.51100000000E-03 0.  1.
         23    2    1    2    0    0  0.00000000000E+00 -0.66613381478E-15  0.35527136788E-14  0.91188000000E+02  0.91188000000E+02 0.  0.
    9900012    2    3    3    0    0  0.20028480484E+02  0.12727438032E+01 -0.30871017787E+02  0.54367086832E+02  0.40000006051E+02 0.  0.
         12    1    3    3    0    0 -0.20028480484E+02 -0.12727438032E+01  0.30871017787E+02  0.36820913168E+02  0.00000000000E+00 0. -1.
         11    1    4    4    0    0 -0.22763641155E+01 -0.11466118095E+02 -0.43483518051E+01  0.12472444084E+02  0.51100000000E-03 0. -1.
        -11    1    4    4    0    0  0.15172892577E+02 -0.24369832972E+01 -0.98794743465E+01  0.18269087836E+02  0.51100000000E-03 0.  1.
         12    1    4    4    0    0  0.71319520228E+01  0.15175845196E+02 -0.16643191636E+02  0.23625554911E+02  0.00000000000E+00 0. -1.
</event>
<event>
 8    1  0.1212194E-006  0.9118800E+02  0.7816164E-02  0.1184000E+00
        -11   -1    0    0    0    0  0.00000000000E+00  0.00000000000E+00  0.45593999997E+02  0.45594000000E+02  0.51100000000E-03 0. -1.
         11   -1    0    0    0    0 -0.00000000000E+00 -0.00000000000E+00 -0.45593999997E+02  0.45594000000E+02  0.51100000000E-03 0.  1.
         23    2    1    2    0    0  0.35527136788E-14  0.00000000000E+00  0.00000000000E+00  0.91188000000E+02  0.91188000000E+02 0.  0.
    9900012    2    3    3    0    0 -0.13140160399E+02  0.30371727037E+02 -0.16145330189E+02  0.54367118622E+02  0.40000078523E+02 0.  0.
         12    1    3    3    0    0  0.13140160399E+02 -0.30371727037E+02  0.16145330189E+02  0.36820881378E+02  0.00000000000E+00 0. -1.
         11    1    4    4    0    0  0.75279896179E+01  0.86720009779E+01 -0.60901126850E+01  0.12998603826E+02  0.51100000000E-03 0. -1.
        -11    1    4    4    0    0  0.60157682101E+01  0.83014935392E+01 -0.20452529902E+01  0.10454057690E+02  0.51100000000E-03 0.  1.
         12    1    4    4    0    0 -0.26683918227E+02  0.13398232520E+02 -0.80099645133E+01  0.30914457106E+02  0.00000000000E+00 0. -1.
</event>
<event>
 8    1  0.1212194E-006  0.9118800E+02  0.7816164E-02  0.1184000E+00
        -11   -1    0    0    0    0  0.00000000000E+00  0.00000000000E+00  0.45593999997E+02  0.45594000000E+02  0.51100000000E-03 0. -1.
         11   -1    0    0    0    0 -0.00000000000E+00 -0.00000000000E+00 -0.45593999997E+02  0.45594000000E+02  0.51100000000E-03 0.  1.
         23    2    1    2    0    0  0.00000000000E+00  0.00000000000E+00  0.00000000000E+00  0.91188000000E+02  0.91188000000E+02 0.  0.
    9900012    2    3    3    0    0 -0.26680719247E+02  0.42614356031E+01  0.25015154297E+02  0.54367101621E+02  0.40000039765E+02 0.  0.
        -12    1    3    3    0    0  0.26680719247E+02 -0.42614356031E+01 -0.25015154297E+02  0.36820898379E+02  0.00000000000E+00 0.  1.
         11    1    4    4    0    0  0.55022078527E+01  0.36181142062E+01 -0.15482622862E+01  0.67647733171E+01  0.51100000000E-03 0. -1.
        -11    1    4    4    0    0 -0.17248597910E+02 -0.11087843706E+02  0.14190713201E+02  0.24936534429E+02  0.51100000000E-03 0.  1.
         12    1    4    4    0    0 -0.14934329190E+02  0.11731165103E+02  0.12372703382E+02  0.22665793875E+02  0.00000000000E+00 0. -1.
</event>
<event>
 8    1  0.1212194E-006  0.9118800E+02  0.7816164E-02  0.1184000E+00
        -11   -1    0    0    0    0  0.00000000000E+00  0.00000000000E+00  0.45593999997E+02  0.45594000000E+02  0.51100000000E-03 0.  1.
         11   -1    0    0    0    0 -0.00000000000E+00 -0.00000000000E+00 -0.45593999997E+02  0.45594000000E+02  0.51100000000E-03 0. -1.
         23    2    1    2    0    0  0.35527136788E-14  0.17763568394E-14  0.00000000000E+00  0.91188000000E+02  0.91188000000E+02 0.  0.
    9900012    2    3    3    0    0 -0.31812687435E+02 -0.15428172797E+02  0.10281392189E+02  0.54367046414E+02  0.39999913909E+02 0.  0.
        -12    1    3    3    0    0  0.31812687435E+02  0.15428172797E+02 -0.10281392189E+02  0.36820953586E+02  0.00000000000E+00 0.  1.
         11    1    4    4    0    0 -0.34224285321E+02 -0.16807404320E+02 -0.31307231058E+00  0.38129890640E+02  0.51100000000E-03 0. -1.
        -11    1    4    4    0    0  0.72149822592E+01  0.37084996967E+00  0.49520968984E+01  0.87588105730E+01  0.51100000000E-03 0.  1.
        -12    1    4    4    0    0 -0.48033843735E+01  0.10083815540E+01  0.56423676007E+01  0.74783452006E+01  0.00000000000E+00 0.  1.
</event>
<event>
 8    1  0.1212194E-006  0.9118800E+02  0.7816164E-02  0.1184000E+00
        -11   -1    0    0    0    0  0.00000000000E+00  0.00000000000E+00  0.45593999997E+02  0.45594000000E+02  0.51100000000E-03 0. -1.
         11   -1    0    0    0    0 -0.00000000000E+00 -0.00000000000E+00 -0.45593999997E+02  0.45594000000E+02  0.51100000000E-03 0.  1.
         23    2    1    2    0    0  0.00000000000E+00  0.88817841970E-15  0.00000000000E+00  0.91188000000E+02  0.91188000000E+02 0.  0.
    9900012    2    3    3    0    0  0.82630622062E+01 -0.70211481478E+01 -0.35188137981E+02  0.54367085115E+02  0.40000002138E+02 0.  0.
         12    1    3    3    0    0 -0.82630622062E+01  0.70211481478E+01  0.35188137981E+02  0.36820914885E+02  0.00000000000E+00 0. -1.
         11    1    4    4    0    0  0.84899921537E+01 -0.96142639197E+01  0.13489420872E+01  0.12897041618E+02  0.51100000000E-03 0. -1.
        -11    1    4    4    0    0 -0.21795455989E+01  0.87897608861E+01 -0.76297480406E+01  0.11841594946E+02  0.51100000000E-03 0.  1.
        -12    1    4    4    0    0  0.19526156514E+01 -0.61966451142E+01 -0.28907332028E+02  0.29628448551E+02  0.00000000000E+00 0.  1.
</event>
<event>
 8    1  0.1212194E-006  0.9118800E+02  0.7816164E-02  0.1184000E+00
        -11   -1    0    0    0    0  0.00000000000E+00  0.00000000000E+00  0.45593999997E+02  0.45594000000E+02  0.51100000000E-03 0. -1.
         11   -1    0    0    0    0 -0.00000000000E+00 -0.00000000000E+00 -0.45593999997E+02  0.45594000000E+02  0.51100000000E-03 0.  1.
         23    2    1    2    0    0  0.71054273576E-14 -0.35527136788E-14  0.88817841970E-15  0.91188000000E+02  0.91188000000E+02 0.  0.
    9900012    2    3    3    0    0  0.33542438583E+02 -0.14853289883E+02  0.31723229802E+01  0.54367095074E+02  0.40000024841E+02 0.  0.
        -12    1    3    3    0    0 -0.33542438583E+02  0.14853289883E+02 -0.31723229802E+01  0.36820904926E+02  0.00000000000E+00 0.  1.
         11    1    4    4    0    0  0.84456296492E+01 -0.17156223386E+02 -0.52508685263E+01  0.19830186121E+02  0.51100000000E-03 0. -1.
        -11    1    4    4    0    0  0.45955057106E+01 -0.85472218892E+01  0.55093424403E+01  0.11159145538E+02  0.51100000000E-03 0.  1.
        -12    1    4    4    0    0  0.20501303223E+02  0.10850155392E+02  0.29138490662E+01  0.23377763415E+02  0.00000000000E+00 0.  1.
</event>
<event>
 8    1  0.1212194E-006  0.9118800E+02  0.7816164E-02  0.1184000E+00
        -11   -1    0    0    0    0  0.00000000000E+00  0.00000000000E+00  0.45593999997E+02  0.45594000000E+02  0.51100000000E-03 0. -1.
         11   -1    0    0    0    0 -0.00000000000E+00 -0.00000000000E+00 -0.45593999997E+02  0.45594000000E+02  0.51100000000E-03 0.  1.
         23    2    1    2    0    0  0.22204460493E-15  0.00000000000E+00  0.00000000000E+00  0.91188000000E+02  0.91188000000E+02 0.  0.
    9900012    2    3    3    0    0 -0.55578415166E+00  0.12926800533E+02 -0.34472683644E+02  0.54367122964E+02  0.40000088422E+02 0.  0.
         12    1    3    3    0    0  0.55578415166E+00 -0.12926800533E+02  0.34472683644E+02  0.36820877036E+02  0.00000000000E+00 0. -1.
         11    1    4    4    0    0 -0.43923834048E+01 -0.17277008246E+01 -0.53057335702E+01  0.71013231932E+01  0.51100000000E-03 0.  1.
        -11    1    4    4    0    0  0.25497482663E+01  0.20174201650E+02 -0.30756109648E+01  0.20565967313E+02  0.51100000000E-03 0. -1.
         12    1    4    4    0    0  0.12868509869E+01 -0.55197002929E+01 -0.26091339109E+02  0.26699832458E+02  0.00000000000E+00 0. -1.
</event>
<event>
 8    1  0.1212194E-006  0.9118800E+02  0.7816164E-02  0.1184000E+00
        -11   -1    0    0    0    0  0.00000000000E+00  0.00000000000E+00  0.45593999997E+02  0.45594000000E+02  0.51100000000E-03 0.  1.
         11   -1    0    0    0    0 -0.00000000000E+00 -0.00000000000E+00 -0.45593999997E+02  0.45594000000E+02  0.51100000000E-03 0. -1.
         23    2    1    2    0    0  0.00000000000E+00  0.00000000000E+00  0.99920072216E-15  0.91188000000E+02  0.91188000000E+02 0.  0.
    9900012    2    3    3    0    0  0.31696538797E+02  0.18726549303E+02 -0.65062195614E+00  0.54367115580E+02  0.40000071588E+02 0.  0.
         12    1    3    3    0    0 -0.31696538797E+02 -0.18726549303E+02  0.65062195614E+00  0.36820884420E+02  0.00000000000E+00 0. -1.
         11    1    4    4    0    0  0.96044200105E+01  0.49575241064E+01  0.12929087974E+02  0.16851802429E+02  0.51100000000E-03 0. -1.
        -11    1    4    4    0    0  0.19908896234E+02  0.10944926858E+02  0.76619988327E+00  0.22731973863E+02  0.51100000000E-03 0.  1.
         12    1    4    4    0    0  0.21832225530E+01  0.28240983389E+01 -0.14345909813E+02  0.14783339288E+02  0.00000000000E+00 0. -1.
</event>
<event>
 8    1  0.1212194E-006  0.9118800E+02  0.7816164E-02  0.1184000E+00
        -11   -1    0    0    0    0  0.00000000000E+00  0.00000000000E+00  0.45593999997E+02  0.45594000000E+02  0.51100000000E-03 0. -1.
         11   -1    0    0    0    0 -0.00000000000E+00 -0.00000000000E+00 -0.45593999997E+02  0.45594000000E+02  0.51100000000E-03 0.  1.
         23    2    1    2    0    0  0.00000000000E+00 -0.35527136788E-14  0.44408920985E-15  0.91188000000E+02  0.91188000000E+02 0.  0.
    9900012    2    3    3    0    0  0.20096390723E+02  0.30594155014E+02 -0.39886302775E+01  0.54367130746E+02  0.40000106162E+02 0.  0.
        -12    1    3    3    0    0 -0.20096390723E+02 -0.30594155014E+02  0.39886302775E+01  0.36820869254E+02  0.00000000000E+00 0.  1.
         11    1    4    4    0    0 -0.38359260655E+00  0.13674437960E+02 -0.19204247853E+01  0.13813957739E+02  0.51100000000E-03 0. -1.
        -11    1    4    4    0    0 -0.11094367904E+01  0.15162422348E+02  0.74061280844E+01  0.16910961975E+02  0.51100000000E-03 0.  1.
        -12    1    4    4    0    0  0.21589420120E+02  0.17572947064E+01 -0.94743335765E+01  0.23642211033E+02  0.00000000000E+00 0.  1.
</event>
<event>
 8    1  0.1212194E-006  0.9118800E+02  0.7816164E-02  0.1184000E+00
        -11   -1    0    0    0    0  0.00000000000E+00  0.00000000000E+00  0.45593999997E+02  0.45594000000E+02  0.51100000000E-03 0.  1.
         11   -1    0    0    0    0 -0.00000000000E+00 -0.00000000000E+00 -0.45593999997E+02  0.45594000000E+02  0.51100000000E-03 0. -1.
         23    2    1    2    0    0  0.35527136788E-14  0.00000000000E+00 -0.35527136788E-14  0.91188000000E+02  0.91188000000E+02 0.  0.
    9900012    2    3    3    0    0  0.17583836805E+02 -0.18931521292E+02 -0.26233315910E+02  0.54367072814E+02  0.39999974094E+02 0.  0.
        -12    1    3    3    0    0 -0.17583836805E+02  0.18931521292E+02  0.26233315910E+02  0.36820927186E+02  0.00000000000E+00 0.  1.
         11    1    4    4    0    0 -0.16027110762E+01  0.16953830292E+01  0.68873404901E+01  0.72717580884E+01  0.51100000000E-03 0.  1.
        -11    1    4    4    0    0  0.15182636863E+02 -0.10113200878E+02 -0.87064006223E+01  0.20213626745E+02  0.51100000000E-03 0. -1.
         12    1    4    4    0    0  0.40039110178E+01 -0.10513703442E+02 -0.24414255778E+02  0.26881687981E+02  0.00000000000E+00 0. -1.
</event>
<event>
 8    1  0.1212194E-006  0.9118800E+02  0.7816164E-02  0.1184000E+00
        -11   -1    0    0    0    0  0.00000000000E+00  0.00000000000E+00  0.45593999997E+02  0.45594000000E+02  0.51100000000E-03 0. -1.
         11   -1    0    0    0    0 -0.00000000000E+00 -0.00000000000E+00 -0.45593999997E+02  0.45594000000E+02  0.51100000000E-03 0.  1.
         23    2    1    2    0    0  0.35527136788E-14  0.00000000000E+00  0.00000000000E+00  0.91188000000E+02  0.91188000000E+02 0.  0.
    9900012    2    3    3    0    0 -0.31376830799E+02  0.41589394209E+01  0.18814293518E+02  0.54367083000E+02  0.39999997316E+02 0.  0.
        -12    1    3    3    0    0  0.31376830799E+02 -0.41589394209E+01 -0.18814293518E+02  0.36820917000E+02  0.00000000000E+00 0.  1.
         11    1    4    4    0    0 -0.10120021434E+02  0.11150824909E+02  0.71496491538E+01  0.16669529485E+02  0.51100000000E-03 0. -1.
        -11    1    4    4    0    0 -0.30674949044E+01  0.83459009126E+01  0.10662627812E+02  0.13883631339E+02  0.51100000000E-03 0.  1.
        -12    1    4    4    0    0 -0.18189314461E+02 -0.15337786401E+02  0.10020165519E+01  0.23813922176E+02  0.00000000000E+00 0.  1.
</event>
<event>
 8    1  0.1212194E-006  0.9118800E+02  0.7816164E-02  0.1184000E+00
        -11   -1    0    0    0    0  0.00000000000E+00  0.00000000000E+00  0.45593999997E+02  0.45594000000E+02  0.51100000000E-03 0.  1.
         11   -1    0    0    0    0 -0.00000000000E+00 -0.00000000000E+00 -0.45593999997E+02  0.45594000000E+02  0.51100000000E-03 0. -1.
         23    2    1    2    0    0  0.35527136788E-14  0.17763568394E-14 -0.17763568394E-14  0.91188000000E+02  0.91188000000E+02 0.  0.
    9900012    2    3    3    0    0 -0.31553089320E+02 -0.13697507387E+02  0.13136251812E+02  0.54367078421E+02  0.39999986876E+02 0.  0.
         12    1    3    3    0    0  0.31553089320E+02  0.13697507387E+02 -0.13136251812E+02  0.36820921579E+02  0.00000000000E+00 0. -1.
         11    1    4    4    0    0 -0.31408037069E+02 -0.81777785743E+01  0.42411884812E+01  0.32731155417E+02  0.51100000000E-03 0. -1.
        -11    1    4    4    0    0 -0.93119268468E+01 -0.14935368795E+01  0.61333954440E+01  0.11249941064E+02  0.51100000000E-03 0.  1.
        -12    1    4    4    0    0  0.91668745957E+01 -0.40261919334E+01  0.27616678873E+01  0.10385981940E+02  0.00000000000E+00 0.  1.
</event>
<event>
 8    1  0.1212194E-006  0.9118800E+02  0.7816164E-02  0.1184000E+00
        -11   -1    0    0    0    0  0.00000000000E+00  0.00000000000E+00  0.45593999997E+02  0.45594000000E+02  0.51100000000E-03 0. -1.
         11   -1    0    0    0    0 -0.00000000000E+00 -0.00000000000E+00 -0.45593999997E+02  0.45594000000E+02  0.51100000000E-03 0.  1.
         23    2    1    2    0    0  0.00000000000E+00  0.88817841970E-15  0.71054273576E-14  0.91188000000E+02  0.91188000000E+02 0.  0.
    9900012    2    3    3    0    0  0.12856967468E+02 -0.61167662833E+01 -0.33956795231E+02  0.54367076809E+02  0.39999983203E+02 0.  0.
         12    1    3    3    0    0 -0.12856967468E+02  0.61167662833E+01  0.33956795231E+02  0.36820923191E+02  0.00000000000E+00 0. -1.
         11    1    4    4    0    0 -0.10966757165E+02 -0.98865057528E+00 -0.54040523369E+01  0.12265845858E+02  0.51100000000E-03 0. -1.
        -11    1    4    4    0    0  0.13257389138E+02  0.60723919885E+01 -0.19111715805E+02  0.24039342597E+02  0.51100000000E-03 0.  1.
        -12    1    4    4    0    0  0.10566335495E+02 -0.11200507697E+02 -0.94410270896E+01  0.18061888355E+02  0.00000000000E+00 0.  1.
</event>
<event>
 8    1  0.1212194E-006  0.9118800E+02  0.7816164E-02  0.1184000E+00
        -11   -1    0    0    0    0  0.00000000000E+00  0.00000000000E+00  0.45593999997E+02  0.45594000000E+02  0.51100000000E-03 0.  1.
         11   -1    0    0    0    0 -0.00000000000E+00 -0.00000000000E+00 -0.45593999997E+02  0.45594000000E+02  0.51100000000E-03 0. -1.
         23    2    1    2    0    0 -0.22204460493E-15  0.71054273576E-14  0.00000000000E+00  0.91188000000E+02  0.91188000000E+02 0.  0.
    9900012    2    3    3    0    0 -0.15699061661E+01 -0.30367605397E+02  0.20763532300E+02  0.54367077463E+02  0.39999984692E+02 0.  0.
        -12    1    3    3    0    0  0.15699061661E+01  0.30367605397E+02 -0.20763532300E+02  0.36820922537E+02  0.00000000000E+00 0.  1.
         11    1    4    4    0    0 -0.16849018353E+00 -0.17001491180E+02 -0.21014341050E+01  0.17131699182E+02  0.51100000000E-03 0. -1.
        -11    1    4    4    0    0 -0.31382348967E+01 -0.71209979485E+01  0.27939634165E+02  0.29003108240E+02  0.51100000000E-03 0.  1.
        -12    1    4    4    0    0  0.17368189141E+01 -0.62451162684E+01 -0.50746677607E+01  0.82322700409E+01  0.00000000000E+00 0.  1.
</event>
<event>
 8    1  0.1212194E-006  0.9118800E+02  0.7816164E-02  0.1184000E+00
        -11   -1    0    0    0    0  0.00000000000E+00  0.00000000000E+00  0.45593999997E+02  0.45594000000E+02  0.51100000000E-03 0.  1.
         11   -1    0    0    0    0 -0.00000000000E+00 -0.00000000000E+00 -0.45593999997E+02  0.45594000000E+02  0.51100000000E-03 0. -1.
         23    2    1    2    0    0 -0.22204460493E-15  0.17763568394E-14  0.00000000000E+00  0.91188000000E+02  0.91188000000E+02 0.  0.
    9900012    2    3    3    0    0  0.16587108168E+01  0.14242990447E+02  0.33914093400E+02  0.54367084346E+02  0.40000000383E+02 0.  0.
         12    1    3    3    0    0 -0.16587108168E+01 -0.14242990447E+02 -0.33914093400E+02  0.36820915654E+02  0.00000000000E+00 0. -1.
         11    1    4    4    0    0 -0.13016539563E+02 -0.22321039314E+01  0.21948696471E+02  0.25615578603E+02  0.51100000000E-03 0. -1.
        -11    1    4    4    0    0  0.79126787391E+01  0.37585709027E+01  0.11347526108E+02  0.14335399858E+02  0.51100000000E-03 0.  1.
         12    1    4    4    0    0  0.67625716404E+01  0.12716523476E+02  0.61787082090E+00  0.14416105884E+02  0.00000000000E+00 0. -1.
</event>
<event>
 8    1  0.1212194E-006  0.9118800E+02  0.7816164E-02  0.1184000E+00
        -11   -1    0    0    0    0  0.00000000000E+00  0.00000000000E+00  0.45593999997E+02  0.45594000000E+02  0.51100000000E-03 0.  1.
         11   -1    0    0    0    0 -0.00000000000E+00 -0.00000000000E+00 -0.45593999997E+02  0.45594000000E+02  0.51100000000E-03 0. -1.
         23    2    1    2    0    0  0.00000000000E+00  0.00000000000E+00  0.00000000000E+00  0.91188000000E+02  0.91188000000E+02 0.  0.
    9900012    2    3    3    0    0 -0.16335356691E+02 -0.32439201924E+02 -0.60524890469E+01  0.54367104799E+02  0.40000047011E+02 0.  0.
        -12    1    3    3    0    0  0.16335356691E+02  0.32439201924E+02  0.60524890469E+01  0.36820895201E+02  0.00000000000E+00 0.  1.
         11    1    4    4    0    0 -0.14773401821E+02 -0.54126754537E+01  0.66683145201E+00  0.15747860851E+02  0.51100000000E-03 0. -1.
        -11    1    4    4    0    0 -0.11614432220E+01 -0.23707434855E+02  0.68015875071E+01  0.24691152477E+02  0.51100000000E-03 0.  1.
         12    1    4    4    0    0 -0.40051164839E+00 -0.33190916153E+01 -0.13520908006E+02  0.13928091471E+02  0.00000000000E+00 0. -1.
</event>
<event>
 8    1  0.1212194E-006  0.9118800E+02  0.7816164E-02  0.1184000E+00
        -11   -1    0    0    0    0  0.00000000000E+00  0.00000000000E+00  0.45593999997E+02  0.45594000000E+02  0.51100000000E-03 0.  1.
         11   -1    0    0    0    0 -0.00000000000E+00 -0.00000000000E+00 -0.45593999997E+02  0.45594000000E+02  0.51100000000E-03 0. -1.
         23    2    1    2    0    0  0.00000000000E+00  0.00000000000E+00  0.00000000000E+00  0.91188000000E+02  0.91188000000E+02 0.  0.
    9900012    2    3    3    0    0  0.23350672842E+02 -0.56763943641E+01 -0.27898113989E+02  0.54367080141E+02  0.39999990797E+02 0.  0.
        -12    1    3    3    0    0 -0.23350672842E+02  0.56763943641E+01  0.27898113989E+02  0.36820919859E+02  0.00000000000E+00 0.  1.
         11    1    4    4    0    0 -0.21318765213E+01  0.41403120604E+01 -0.21087337273E+02  0.21595436439E+02  0.51100000000E-03 0. -1.
        -11    1    4    4    0    0  0.45260823518E+01  0.43833357985E+01  0.76756484083E+00  0.63472994434E+01  0.51100000000E-03 0.  1.
        -12    1    4    4    0    0  0.20956467011E+02 -0.14200042223E+02 -0.75783415562E+01  0.26424344258E+02  0.00000000000E+00 0.  1.
</event>
<event>
 8    1  0.1212194E-006  0.9118800E+02  0.7816164E-02  0.1184000E+00
        -11   -1    0    0    0    0  0.00000000000E+00  0.00000000000E+00  0.45593999997E+02  0.45594000000E+02  0.51100000000E-03 0. -1.
         11   -1    0    0    0    0 -0.00000000000E+00 -0.00000000000E+00 -0.45593999997E+02  0.45594000000E+02  0.51100000000E-03 0.  1.
         23    2    1    2    0    0  0.44408920985E-15 -0.88817841970E-15  0.00000000000E+00  0.91188000000E+02  0.91188000000E+02 0.  0.
    9900012    2    3    3    0    0 -0.26250609849E+01 -0.49381131598E+01 -0.36393589298E+02  0.54367228026E+02  0.40000327930E+02 0.  0.
         12    1    3    3    0    0  0.26250609849E+01  0.49381131598E+01  0.36393589298E+02  0.36820771974E+02  0.00000000000E+00 0. -1.
         11    1    4    4    0    0 -0.57763521761E+01  0.14827622428E+01 -0.28834868543E+02  0.29445109483E+02  0.51100000000E-03 0. -1.
        -11    1    4    4    0    0  0.12856463810E+01  0.85027330982E+01 -0.39072930575E+01  0.94454378435E+01  0.51100000000E-03 0.  1.
         12    1    4    4    0    0  0.18656448101E+01 -0.14923608501E+02 -0.36514276982E+01  0.15476680700E+02  0.00000000000E+00 0. -1.
</event>
<event>
 8    1  0.1212194E-006  0.9118800E+02  0.7816164E-02  0.1184000E+00
        -11   -1    0    0    0    0  0.00000000000E+00  0.00000000000E+00  0.45593999997E+02  0.45594000000E+02  0.51100000000E-03 0. -1.
         11   -1    0    0    0    0 -0.00000000000E+00 -0.00000000000E+00 -0.45593999997E+02  0.45594000000E+02  0.51100000000E-03 0.  1.
         23    2    1    2    0    0  0.00000000000E+00  0.00000000000E+00 -0.17763568394E-14  0.91188000000E+02  0.91188000000E+02 0.  0.
    9900012    2    3    3    0    0  0.18030919275E+02  0.30123964067E+02  0.11100246090E+02  0.54367045039E+02  0.39999910775E+02 0.  0.
        -12    1    3    3    0    0 -0.18030919275E+02 -0.30123964067E+02 -0.11100246090E+02  0.36820954961E+02  0.00000000000E+00 0.  1.
         11    1    4    4    0    0  0.15189109254E+02  0.35790633842E+00  0.30490692545E+01  0.15496256337E+02  0.51100000000E-03 0. -1.
        -11    1    4    4    0    0  0.25005698782E+01 -0.16942739154E+01 -0.41438236143E+01  0.51278346526E+01  0.51100000000E-03 0.  1.
         12    1    4    4    0    0  0.34124014188E+00  0.31460331644E+02  0.12195000450E+02  0.33742954049E+02  0.00000000000E+00 0. -1.
</event>
<event>
 8    1  0.1212194E-006  0.9118800E+02  0.7816164E-02  0.1184000E+00
        -11   -1    0    0    0    0  0.00000000000E+00  0.00000000000E+00  0.45593999997E+02  0.45594000000E+02  0.51100000000E-03 0. -1.
         11   -1    0    0    0    0 -0.00000000000E+00 -0.00000000000E+00 -0.45593999997E+02  0.45594000000E+02  0.51100000000E-03 0.  1.
         23    2    1    2    0    0  0.35527136788E-14  0.35527136788E-14  0.00000000000E+00  0.91188000000E+02  0.91188000000E+02 0.  0.
    9900012    2    3    3    0    0  0.22400668602E+02  0.19530656653E+02 -0.21738121365E+02  0.54367049122E+02  0.39999920083E+02 0.  0.
         12    1    3    3    0    0 -0.22400668602E+02 -0.19530656653E+02  0.21738121365E+02  0.36820950878E+02  0.00000000000E+00 0. -1.
         11    1    4    4    0    0  0.28085603232E+01  0.43736658075E+01 -0.10298053654E+02  0.11535461543E+02  0.51100000000E-03 0. -1.
        -11    1    4    4    0    0  0.25998994069E+02  0.47519549610E+01 -0.14621860101E+02  0.30204760579E+02  0.51100000000E-03 0.  1.
         12    1    4    4    0    0 -0.64068857907E+01  0.10405035884E+02  0.31817923897E+01  0.12626827000E+02  0.00000000000E+00 0. -1.
</event>
<event>
 8    1  0.1212194E-006  0.9118800E+02  0.7816164E-02  0.1184000E+00
        -11   -1    0    0    0    0  0.00000000000E+00  0.00000000000E+00  0.45593999997E+02  0.45594000000E+02  0.51100000000E-03 0.  1.
         11   -1    0    0    0    0 -0.00000000000E+00 -0.00000000000E+00 -0.45593999997E+02  0.45594000000E+02  0.51100000000E-03 0. -1.
         23    2    1    2    0    0 -0.88817841970E-15 -0.35527136788E-14  0.00000000000E+00  0.91188000000E+02  0.91188000000E+02 0.  0.
    9900012    2    3    3    0    0 -0.61874106743E+01  0.27223413893E+02 -0.24007943735E+02  0.54367086415E+02  0.40000005100E+02 0.  0.
        -12    1    3    3    0    0  0.61874106743E+01 -0.27223413893E+02  0.24007943735E+02  0.36820913585E+02  0.00000000000E+00 0.  1.
         11    1    4    4    0    0  0.67377183156E+01  0.79277238940E+01 -0.94487789246E+01  0.14054361518E+02  0.51100000000E-03 0. -1.
        -11    1    4    4    0    0 -0.31237498565E+00 -0.55500860987E+01 -0.10865764020E+02  0.12205157182E+02  0.51100000000E-03 0.  1.
        -12    1    4    4    0    0 -0.12612754004E+02  0.24845776098E+02 -0.36934007902E+01  0.28107567715E+02  0.00000000000E+00 0.  1.
</event>
<event>
 8    1  0.1212194E-006  0.9118800E+02  0.7816164E-02  0.1184000E+00
        -11   -1    0    0    0    0  0.00000000000E+00  0.00000000000E+00  0.45593999997E+02  0.45594000000E+02  0.51100000000E-03 0. -1.
         11   -1    0    0    0    0 -0.00000000000E+00 -0.00000000000E+00 -0.45593999997E+02  0.45594000000E+02  0.51100000000E-03 0.  1.
         23    2    1    2    0    0  0.00000000000E+00  0.17763568394E-14  0.00000000000E+00  0.91188000000E+02  0.91188000000E+02 0.  0.
    9900012    2    3    3    0    0  0.34262932535E+02 -0.72930101765E+01 -0.11342119525E+02  0.54367079063E+02  0.39999988340E+02 0.  0.
        -12    1    3    3    0    0 -0.34262932535E+02  0.72930101765E+01  0.11342119525E+02  0.36820920937E+02  0.00000000000E+00 0.  1.
         11    1    4    4    0    0  0.24239249200E+02 -0.11976743225E+02 -0.26620720473E+01  0.27167447578E+02  0.51100000000E-03 0. -1.
        -11    1    4    4    0    0  0.10054563483E+02  0.84899880526E+01 -0.14917580438E+02  0.19892419419E+02  0.51100000000E-03 0.  1.
        -12    1    4    4    0    0 -0.30880147725E-01 -0.38062550040E+01  0.62375329606E+01  0.73072120657E+01  0.00000000000E+00 0.  1.
</event>
<event>
 8    1  0.1212194E-006  0.9118800E+02  0.7816164E-02  0.1184000E+00
        -11   -1    0    0    0    0  0.00000000000E+00  0.00000000000E+00  0.45593999997E+02  0.45594000000E+02  0.51100000000E-03 0. -1.
         11   -1    0    0    0    0 -0.00000000000E+00 -0.00000000000E+00 -0.45593999997E+02  0.45594000000E+02  0.51100000000E-03 0.  1.
         23    2    1    2    0    0  0.00000000000E+00  0.00000000000E+00 -0.16653345369E-14  0.91188000000E+02  0.91188000000E+02 0.  0.
    9900012    2    3    3    0    0 -0.32432839822E+02 -0.17408920305E+02 -0.90803055033E+00  0.54367026023E+02  0.39999867425E+02 0.  0.
        -12    1    3    3    0    0  0.32432839822E+02  0.17408920305E+02  0.90803055033E+00  0.36820973977E+02  0.00000000000E+00 0.  1.
         11    1    4    4    0    0 -0.49514944455E+01  0.45989954509E+01 -0.14795922488E+02  0.16266142103E+02  0.51100000000E-03 0.  1.
        -11    1    4    4    0    0 -0.15553324238E+02 -0.99428829450E+01  0.82839390943E+01  0.20233399697E+02  0.51100000000E-03 0. -1.
        -12    1    4    4    0    0 -0.11928021139E+02 -0.12065032811E+02  0.56039528430E+01  0.17867484224E+02  0.00000000000E+00 0.  1.
</event>
<event>
 8    1  0.1212194E-006  0.9118800E+02  0.7816164E-02  0.1184000E+00
        -11   -1    0    0    0    0  0.00000000000E+00  0.00000000000E+00  0.45593999997E+02  0.45594000000E+02  0.51100000000E-03 0.  1.
         11   -1    0    0    0    0 -0.00000000000E+00 -0.00000000000E+00 -0.45593999997E+02  0.45594000000E+02  0.51100000000E-03 0. -1.
         23    2    1    2    0    0  0.17763568394E-14  0.00000000000E+00  0.88817841970E-15  0.91188000000E+02  0.91188000000E+02 0.  0.
    9900012    2    3    3    0    0  0.12969399372E+02  0.34258176582E+02 -0.37347046520E+01  0.54367136327E+02  0.40000118884E+02 0.  0.
        -12    1    3    3    0    0 -0.12969399372E+02 -0.34258176582E+02  0.37347046520E+01  0.36820863673E+02  0.00000000000E+00 0.  1.
         11    1    4    4    0    0  0.91931574284E+01 -0.10537891356E+01 -0.51273400842E+01  0.10578952294E+02  0.51100000000E-03 0. -1.
        -11    1    4    4    0    0  0.80622405359E+01  0.17798088641E+02  0.11940741996E+02  0.22898755455E+02  0.51100000000E-03 0.  1.
         12    1    4    4    0    0 -0.42859985924E+01  0.17513877077E+02 -0.10548106563E+02  0.20889428577E+02  0.00000000000E+00 0. -1.
</event>
<event>
 8    1  0.1212194E-006  0.9118800E+02  0.7816164E-02  0.1184000E+00
        -11   -1    0    0    0    0  0.00000000000E+00  0.00000000000E+00  0.45593999997E+02  0.45594000000E+02  0.51100000000E-03 0.  1.
         11   -1    0    0    0    0 -0.00000000000E+00 -0.00000000000E+00 -0.45593999997E+02  0.45594000000E+02  0.51100000000E-03 0. -1.
         23    2    1    2    0    0  0.00000000000E+00 -0.17763568394E-14  0.00000000000E+00  0.91188000000E+02  0.91188000000E+02 0.  0.
    9900012    2    3    3    0    0  0.28980681418E+02  0.98917419016E+01 -0.20446358087E+02  0.54367081865E+02  0.39999994727E+02 0.  0.
         12    1    3    3    0    0 -0.28980681418E+02 -0.98917419016E+01  0.20446358087E+02  0.36820918135E+02  0.00000000000E+00 0. -1.
         11    1    4    4    0    0  0.12372103880E+02 -0.56058481166E+01 -0.14938944962E+02  0.20190754427E+02  0.51100000000E-03 0. -1.
        -11    1    4    4    0    0  0.11113135794E+02 -0.19876225811E+01  0.57472387290E+01  0.12668195766E+02  0.51100000000E-03 0.  1.
         12    1    4    4    0    0  0.54954417444E+01  0.17485212599E+02 -0.11254651854E+02  0.21508131671E+02  0.00000000000E+00 0. -1.
</event>
<event>
 8    1  0.1212194E-006  0.9118800E+02  0.7816164E-02  0.1184000E+00
        -11   -1    0    0    0    0  0.00000000000E+00  0.00000000000E+00  0.45593999997E+02  0.45594000000E+02  0.51100000000E-03 0.  1.
         11   -1    0    0    0    0 -0.00000000000E+00 -0.00000000000E+00 -0.45593999997E+02  0.45594000000E+02  0.51100000000E-03 0. -1.
         23    2    1    2    0    0 -0.35527136788E-14  0.00000000000E+00  0.00000000000E+00  0.91188000000E+02  0.91188000000E+02 0.  0.
    9900012    2    3    3    0    0  0.16596530521E+02  0.25855628519E+02  0.20293402926E+02  0.54367074512E+02  0.39999977966E+02 0.  0.
         12    1    3    3    0    0 -0.16596530521E+02 -0.25855628519E+02 -0.20293402926E+02  0.36820925488E+02  0.00000000000E+00 0. -1.
         11    1    4    4    0    0 -0.49451446742E+01  0.87295852249E+00  0.91971558707E+01  0.10478749391E+02  0.51100000000E-03 0. -1.
        -11    1    4    4    0    0 -0.95851376906E+00  0.93389079940E+01  0.13428980694E+02  0.16385099142E+02  0.51100000000E-03 0.  1.
         12    1    4    4    0    0  0.22500188964E+02  0.15643762003E+02 -0.23327336384E+01  0.27503225979E+02  0.00000000000E+00 0. -1.
</event>
<event>
 8    1  0.1212194E-006  0.9118800E+02  0.7816164E-02  0.1184000E+00
        -11   -1    0    0    0    0  0.00000000000E+00  0.00000000000E+00  0.45593999997E+02  0.45594000000E+02  0.51100000000E-03 0.  1.
         11   -1    0    0    0    0 -0.00000000000E+00 -0.00000000000E+00 -0.45593999997E+02  0.45594000000E+02  0.51100000000E-03 0. -1.
         23    2    1    2    0    0  0.41633363423E-15  0.00000000000E+00  0.00000000000E+00  0.91188000000E+02  0.91188000000E+02 0.  0.
    9900012    2    3    3    0    0  0.95573933617E-01 -0.85041491523E+01 -0.35825280181E+02  0.54367076774E+02  0.39999983122E+02 0.  0.
        -12    1    3    3    0    0 -0.95573933617E-01  0.85041491523E+01  0.35825280181E+02  0.36820923226E+02  0.00000000000E+00 0.  1.
         11    1    4    4    0    0 -0.14048083866E+01  0.18908611570E+01 -0.19897485349E+02  0.20036435960E+02  0.51100000000E-03 0. -1.
        -11    1    4    4    0    0 -0.60441082593E+01 -0.33878581789E+01 -0.21523859252E+02  0.22611619691E+02  0.51100000000E-03 0.  1.
        -12    1    4    4    0    0  0.75444905795E+01 -0.70071521304E+01  0.55960644201E+01  0.11719021123E+02  0.00000000000E+00 0.  1.
</event>
<event>
 8    1  0.1212194E-006  0.9118800E+02  0.7816164E-02  0.1184000E+00
        -11   -1    0    0    0    0  0.00000000000E+00  0.00000000000E+00  0.45593999997E+02  0.45594000000E+02  0.51100000000E-03 0.  1.
         11   -1    0    0    0    0 -0.00000000000E+00 -0.00000000000E+00 -0.45593999997E+02  0.45594000000E+02  0.51100000000E-03 0. -1.
         23    2    1    2    0    0 -0.13322676296E-14 -0.71054273576E-14  0.17763568394E-14  0.91188000000E+02  0.91188000000E+02 0.  0.
    9900012    2    3    3    0    0 -0.22113734337E+01 -0.34182502729E+02  0.13507260503E+02  0.54367085406E+02  0.40000002800E+02 0.  0.
        -12    1    3    3    0    0  0.22113734337E+01  0.34182502729E+02 -0.13507260503E+02  0.36820914594E+02  0.00000000000E+00 0.  1.
         11    1    4    4    0    0  0.59310515857E+01 -0.26873769033E+02  0.13458812636E+02  0.30635216219E+02  0.51100000000E-03 0. -1.
        -11    1    4    4    0    0 -0.12255186927E+02 -0.68799897863E+01  0.69557781559E+01  0.15681413077E+02  0.51100000000E-03 0.  1.
        -12    1    4    4    0    0  0.41127619076E+01 -0.42874390905E+00 -0.69073302896E+01  0.80504561099E+01  0.00000000000E+00 0.  1.
</event>
<event>
 8    1  0.1212194E-006  0.9118800E+02  0.7816164E-02  0.1184000E+00
        -11   -1    0    0    0    0  0.00000000000E+00  0.00000000000E+00  0.45593999997E+02  0.45594000000E+02  0.51100000000E-03 0. -1.
         11   -1    0    0    0    0 -0.00000000000E+00 -0.00000000000E+00 -0.45593999997E+02  0.45594000000E+02  0.51100000000E-03 0.  1.
         23    2    1    2    0    0 -0.13322676296E-14  0.71054273576E-14  0.00000000000E+00  0.91188000000E+02  0.91188000000E+02 0.  0.
    9900012    2    3    3    0    0 -0.36214760397E+01 -0.29772002215E+02  0.21360953880E+02  0.54367115230E+02  0.40000070789E+02 0.  0.
        -12    1    3    3    0    0  0.36214760397E+01  0.29772002215E+02 -0.21360953880E+02  0.36820884770E+02  0.00000000000E+00 0.  1.
         11    1    4    4    0    0 -0.95600795854E+01 -0.15316433539E+01  0.78982448015E+01  0.12494931942E+02  0.51100000000E-03 0.  1.
        -11    1    4    4    0    0  0.11630895892E+02 -0.87413157308E+01 -0.39950995966E+01  0.15088046958E+02  0.51100000000E-03 0. -1.
         12    1    4    4    0    0 -0.56922923461E+01 -0.19499043130E+02  0.17457808675E+02  0.26784136329E+02  0.00000000000E+00 0. -1.
</event>
<event>
 8    1  0.1212194E-006  0.9118800E+02  0.7816164E-02  0.1184000E+00
        -11   -1    0    0    0    0  0.00000000000E+00  0.00000000000E+00  0.45593999997E+02  0.45594000000E+02  0.51100000000E-03 0.  1.
         11   -1    0    0    0    0 -0.00000000000E+00 -0.00000000000E+00 -0.45593999997E+02  0.45594000000E+02  0.51100000000E-03 0. -1.
         23    2    1    2    0    0  0.00000000000E+00 -0.22204460493E-15  0.35527136788E-14  0.91188000000E+02  0.91188000000E+02 0.  0.
    9900012    2    3    3    0    0 -0.22267305077E+02  0.52656741281E+00 -0.29320118734E+02  0.54367088670E+02  0.40000010240E+02 0.  0.
        -12    1    3    3    0    0  0.22267305077E+02 -0.52656741281E+00  0.29320118734E+02  0.36820911330E+02  0.00000000000E+00 0.  1.
         11    1    4    4    0    0 -0.13675999182E+02 -0.63649911757E+01 -0.13754726699E+02  0.20414175788E+02  0.51100000000E-03 0. -1.
        -11    1    4    4    0    0 -0.17836303947E+02  0.99570187773E+01 -0.10892455177E+02  0.23149979297E+02  0.51100000000E-03 0.  1.
        -12    1    4    4    0    0  0.92449980517E+01 -0.30654601888E+01 -0.46729368578E+01  0.10802933584E+02  0.00000000000E+00 0.  1.
</event>
<event>
 8    1  0.1212194E-006  0.9118800E+02  0.7816164E-02  0.1184000E+00
        -11   -1    0    0    0    0  0.00000000000E+00  0.00000000000E+00  0.45593999997E+02  0.45594000000E+02  0.51100000000E-03 0.  1.
         11   -1    0    0    0    0 -0.00000000000E+00 -0.00000000000E+00 -0.45593999997E+02  0.45594000000E+02  0.51100000000E-03 0. -1.
         23    2    1    2    0    0  0.00000000000E+00  0.17763568394E-14  0.00000000000E+00  0.91188000000E+02  0.91188000000E+02 0.  0.
    9900012    2    3    3    0    0  0.35073600261E+02  0.10361893630E+02 -0.42721590534E+01  0.54367114380E+02  0.40000068852E+02 0.  0.
        -12    1    3    3    0    0 -0.35073600261E+02 -0.10361893630E+02  0.42721590534E+01  0.36820885620E+02  0.00000000000E+00 0.  1.
         11    1    4    4    0    0  0.37809427533E+02  0.10870004129E+02 -0.57487756302E+01  0.39758750253E+02  0.51100000000E-03 0. -1.
        -11    1    4    4    0    0 -0.17840867809E+01 -0.11038323057E+01  0.78558040064E+01  0.81311172817E+01  0.51100000000E-03 0.  1.
         12    1    4    4    0    0 -0.95174049135E+00  0.59572180704E+00 -0.63791874296E+01  0.64772468454E+01  0.00000000000E+00 0. -1.
</event>
<event>
 8    1  0.1212194E-006  0.9118800E+02  0.7816164E-02  0.1184000E+00
        -11   -1    0    0    0    0  0.00000000000E+00  0.00000000000E+00  0.45593999997E+02  0.45594000000E+02  0.51100000000E-03 0. -1.
         11   -1    0    0    0    0 -0.00000000000E+00 -0.00000000000E+00 -0.45593999997E+02  0.45594000000E+02  0.51100000000E-03 0.  1.
         23    2    1    2    0    0 -0.17763568394E-14 -0.88817841970E-15  0.71054273576E-14  0.91188000000E+02  0.91188000000E+02 0.  0.
    9900012    2    3    3    0    0 -0.11686271452E+02 -0.67782823228E+01  0.34252966347E+02  0.54367085355E+02  0.40000002684E+02 0.  0.
        -12    1    3    3    0    0  0.11686271452E+02  0.67782823228E+01 -0.34252966347E+02  0.36820914645E+02  0.00000000000E+00 0.  1.
         11    1    4    4    0    0 -0.21722826708E+02 -0.17132415410E+01  0.16026086480E+02  0.27049063660E+02  0.51100000000E-03 0. -1.
        -11    1    4    4    0    0 -0.39320528157E+01 -0.36116020868E+01  0.16421056199E+01  0.55858052335E+01  0.51100000000E-03 0.  1.
        -12    1    4    4    0    0  0.13968608072E+02 -0.14534386950E+01  0.16584774248E+02  0.21732216462E+02  0.00000000000E+00 0.  1.
</event>
<event>
 8    1  0.1212194E-006  0.9118800E+02  0.7816164E-02  0.1184000E+00
        -11   -1    0    0    0    0  0.00000000000E+00  0.00000000000E+00  0.45593999997E+02  0.45594000000E+02  0.51100000000E-03 0. -1.
         11   -1    0    0    0    0 -0.00000000000E+00 -0.00000000000E+00 -0.45593999997E+02  0.45594000000E+02  0.51100000000E-03 0.  1.
         23    2    1    2    0    0  0.00000000000E+00  0.88817841970E-15  0.00000000000E+00  0.91188000000E+02  0.91188000000E+02 0.  0.
    9900012    2    3    3    0    0  0.35039839151E+02  0.40985607770E+01  0.10544753506E+02  0.54367077216E+02  0.39999984128E+02 0.  0.
        -12    1    3    3    0    0 -0.35039839151E+02 -0.40985607770E+01 -0.10544753506E+02  0.36820922784E+02  0.00000000000E+00 0.  1.
         11    1    4    4    0    0  0.24729468163E+01  0.24238065965E+01  0.56042987659E+01  0.65877514595E+01  0.51100000000E-03 0. -1.
        -11    1    4    4    0    0 -0.32735582441E+01  0.24509932234E+01 -0.85488003899E+01  0.94765784821E+01  0.51100000000E-03 0.  1.
         12    1    4    4    0    0  0.35840450579E+02 -0.77623904293E+00  0.13489255130E+02  0.38302747274E+02  0.00000000000E+00 0. -1.
</event>
<event>
 8    1  0.1212194E-006  0.9118800E+02  0.7816164E-02  0.1184000E+00
        -11   -1    0    0    0    0  0.00000000000E+00  0.00000000000E+00  0.45593999997E+02  0.45594000000E+02  0.51100000000E-03 0.  1.
         11   -1    0    0    0    0 -0.00000000000E+00 -0.00000000000E+00 -0.45593999997E+02  0.45594000000E+02  0.51100000000E-03 0. -1.
         23    2    1    2    0    0 -0.17763568394E-14  0.00000000000E+00  0.00000000000E+00  0.91188000000E+02  0.91188000000E+02 0.  0.
    9900012    2    3    3    0    0 -0.15721348896E+02  0.23405125243E+02  0.23681674376E+02  0.54367049442E+02  0.39999920813E+02 0.  0.
         12    1    3    3    0    0  0.15721348896E+02 -0.23405125243E+02 -0.23681674376E+02  0.36820950558E+02  0.00000000000E+00 0. -1.
         11    1    4    4    0    0  0.11652812875E+02  0.43077928929E+01  0.79684220045E+01  0.14759433492E+02  0.51100000000E-03 0. -1.
        -11    1    4    4    0    0 -0.10407652122E+02  0.12484847356E+02  0.11568861380E+01  0.16295061276E+02  0.51100000000E-03 0.  1.
         12    1    4    4    0    0 -0.16966509650E+02  0.66124849944E+01  0.14556366233E+02  0.23312554674E+02  0.00000000000E+00 0. -1.
</event>
<event>
 8    1  0.1212194E-006  0.9118800E+02  0.7816164E-02  0.1184000E+00
        -11   -1    0    0    0    0  0.00000000000E+00  0.00000000000E+00  0.45593999997E+02  0.45594000000E+02  0.51100000000E-03 0. -1.
         11   -1    0    0    0    0 -0.00000000000E+00 -0.00000000000E+00 -0.45593999997E+02  0.45594000000E+02  0.51100000000E-03 0.  1.
         23    2    1    2    0    0  0.00000000000E+00  0.88817841970E-15  0.35527136788E-14  0.91188000000E+02  0.91188000000E+02 0.  0.
    9900012    2    3    3    0    0 -0.22721524572E+02  0.79170296620E+01 -0.27871708604E+02  0.54367093194E+02  0.40000020554E+02 0.  0.
         12    1    3    3    0    0  0.22721524572E+02 -0.79170296620E+01  0.27871708604E+02  0.36820906806E+02  0.00000000000E+00 0. -1.
         11    1    4    4    0    0  0.33997437153E+01  0.41347521972E+01  0.63271687567E+01  0.82877920944E+01  0.51100000000E-03 0. -1.
        -11    1    4    4    0    0 -0.95492985298E+01 -0.48503101697E+01 -0.60736611342E+01  0.12312756433E+02  0.51100000000E-03 0.  1.
         12    1    4    4    0    0 -0.16571969757E+02  0.86325876345E+01 -0.28125216226E+02  0.33766544666E+02  0.00000000000E+00 0. -1.
</event>
<event>
 8    1  0.1212194E-006  0.9118800E+02  0.7816164E-02  0.1184000E+00
        -11   -1    0    0    0    0  0.00000000000E+00  0.00000000000E+00  0.45593999997E+02  0.45594000000E+02  0.51100000000E-03 0. -1.
         11   -1    0    0    0    0 -0.00000000000E+00 -0.00000000000E+00 -0.45593999997E+02  0.45594000000E+02  0.51100000000E-03 0.  1.
         23    2    1    2    0    0  0.00000000000E+00 -0.35527136788E-14  0.35527136788E-14  0.91188000000E+02  0.91188000000E+02 0.  0.
    9900012    2    3    3    0    0  0.51257653702E+01 -0.24673304688E+02  0.26846484485E+02  0.54367093384E+02  0.40000020987E+02 0.  0.
        -12    1    3    3    0    0 -0.51257653702E+01  0.24673304688E+02 -0.26846484485E+02  0.36820906616E+02  0.00000000000E+00 0.  1.
         11    1    4    4    0    0 -0.70585893623E+01 -0.97684655294E+01  0.15144512724E+02  0.19354660124E+02  0.51100000000E-03 0. -1.
        -11    1    4    4    0    0  0.12970115560E+02 -0.17299105981E+02 -0.14035368359E+01  0.21666861362E+02  0.51100000000E-03 0.  1.
         12    1    4    4    0    0 -0.78576082762E+00  0.23942668228E+01  0.13105508597E+02  0.13345571898E+02  0.00000000000E+00 0. -1.
</event>
<event>
 8    1  0.1212194E-006  0.9118800E+02  0.7816164E-02  0.1184000E+00
        -11   -1    0    0    0    0  0.00000000000E+00  0.00000000000E+00  0.45593999997E+02  0.45594000000E+02  0.51100000000E-03 0. -1.
         11   -1    0    0    0    0 -0.00000000000E+00 -0.00000000000E+00 -0.45593999997E+02  0.45594000000E+02  0.51100000000E-03 0.  1.
         23    2    1    2    0    0  0.35527136788E-14  0.00000000000E+00 -0.71054273576E-14  0.91188000000E+02  0.91188000000E+02 0.  0.
    9900012    2    3    3    0    0 -0.20186271296E+02  0.21960672210E+02  0.21587585969E+02  0.54367074690E+02  0.39999978370E+02 0.  0.
        -12    1    3    3    0    0  0.20186271296E+02 -0.21960672210E+02 -0.21587585969E+02  0.36820925310E+02  0.00000000000E+00 0.  1.
         11    1    4    4    0    0 -0.81590329293E+01  0.23314145016E+02  0.28581974220E+02  0.37776294508E+02  0.51100000000E-03 0. -1.
        -11    1    4    4    0    0 -0.54546342030E+01  0.38325804811E+01 -0.33268416480E+01  0.74504753570E+01  0.51100000000E-03 0.  1.
        -12    1    4    4    0    0 -0.65726041640E+01 -0.51860532876E+01 -0.36675466036E+01  0.91403048247E+01  0.00000000000E+00 0.  1.
</event>
<event>
 8    1  0.1212194E-006  0.9118800E+02  0.7816164E-02  0.1184000E+00
        -11   -1    0    0    0    0  0.00000000000E+00  0.00000000000E+00  0.45593999997E+02  0.45594000000E+02  0.51100000000E-03 0. -1.
         11   -1    0    0    0    0 -0.00000000000E+00 -0.00000000000E+00 -0.45593999997E+02  0.45594000000E+02  0.51100000000E-03 0.  1.
         23    2    1    2    0    0 -0.71054273576E-14  0.11102230246E-14  0.68001160258E-15  0.91188000000E+02  0.91188000000E+02 0.  0.
    9900012    2    3    3    0    0  0.36783239701E+02  0.16623422698E+01  0.10050845022E+00  0.54367079226E+02  0.39999988711E+02 0.  0.
        -12    1    3    3    0    0 -0.36783239701E+02 -0.16623422698E+01 -0.10050845022E+00  0.36820920774E+02  0.00000000000E+00 0.  1.
         11    1    4    4    0    0  0.62695907617E+01  0.38196783793E+01  0.55136539825E+01  0.91813992256E+01  0.51100000000E-03 0. -1.
        -11    1    4    4    0    0 -0.49492823066E+01  0.63111521405E+01  0.12637698353E+01  0.81193073072E+01  0.51100000000E-03 0.  1.
         12    1    4    4    0    0  0.35462931246E+02 -0.84684882500E+01 -0.66769153676E+01  0.37066372693E+02  0.00000000000E+00 0. -1.
</event>
<event>
 8    1  0.1212194E-006  0.9118800E+02  0.7816164E-02  0.1184000E+00
        -11   -1    0    0    0    0  0.00000000000E+00  0.00000000000E+00  0.45593999997E+02  0.45594000000E+02  0.51100000000E-03 0.  1.
         11   -1    0    0    0    0 -0.00000000000E+00 -0.00000000000E+00 -0.45593999997E+02  0.45594000000E+02  0.51100000000E-03 0. -1.
         23    2    1    2    0    0  0.71054273576E-14  0.00000000000E+00  0.17763568394E-14  0.91188000000E+02  0.91188000000E+02 0.  0.
    9900012    2    3    3    0    0 -0.35914345235E+02 -0.45643083701E+01  0.67161819958E+01  0.54367079247E+02  0.39999988759E+02 0.  0.
        -12    1    3    3    0    0  0.35914345235E+02  0.45643083701E+01 -0.67161819958E+01  0.36820920753E+02  0.00000000000E+00 0.  1.
         11    1    4    4    0    0 -0.72876171001E+01 -0.38192733444E+01 -0.11983427752E+02  0.14536118906E+02  0.51100000000E-03 0. -1.
        -11    1    4    4    0    0 -0.68532644157E+01 -0.18913593711E+01  0.16438984363E+02  0.17910462880E+02  0.51100000000E-03 0.  1.
         12    1    4    4    0    0 -0.21773463719E+02  0.11463243454E+01  0.22606253853E+01  0.21920497461E+02  0.00000000000E+00 0. -1.
</event>
<event>
 8    1  0.1212194E-006  0.9118800E+02  0.7816164E-02  0.1184000E+00
        -11   -1    0    0    0    0  0.00000000000E+00  0.00000000000E+00  0.45593999997E+02  0.45594000000E+02  0.51100000000E-03 0.  1.
         11   -1    0    0    0    0 -0.00000000000E+00 -0.00000000000E+00 -0.45593999997E+02  0.45594000000E+02  0.51100000000E-03 0. -1.
         23    2    1    2    0    0  0.88817841970E-15  0.35527136788E-14  0.35527136788E-14  0.91188000000E+02  0.91188000000E+02 0.  0.
    9900012    2    3    3    0    0  0.55498002117E+01  0.29178449430E+02  0.21762307170E+02  0.54367079223E+02  0.39999988704E+02 0.  0.
         12    1    3    3    0    0 -0.55498002117E+01 -0.29178449430E+02 -0.21762307170E+02  0.36820920777E+02  0.00000000000E+00 0. -1.
         11    1    4    4    0    0  0.86672843693E+01  0.16897000579E+02  0.10017695582E+02  0.21470553601E+02  0.51100000000E-03 0. -1.
        -11    1    4    4    0    0  0.15026331976E+01  0.13085192610E+02  0.19678936514E+02  0.23679964416E+02  0.51100000000E-03 0.  1.
        -12    1    4    4    0    0 -0.46201173551E+01 -0.80374375916E+00 -0.79343249265E+01  0.92165612050E+01  0.00000000000E+00 0.  1.
</event>
<event>
 8    1  0.1212194E-006  0.9118800E+02  0.7816164E-02  0.1184000E+00
        -11   -1    0    0    0    0  0.00000000000E+00  0.00000000000E+00  0.45593999997E+02  0.45594000000E+02  0.51100000000E-03 0.  1.
         11   -1    0    0    0    0 -0.00000000000E+00 -0.00000000000E+00 -0.45593999997E+02  0.45594000000E+02  0.51100000000E-03 0. -1.
         23    2    1    2    0    0  0.00000000000E+00 -0.88817841970E-15 -0.17763568394E-14  0.91188000000E+02  0.91188000000E+02 0.  0.
    9900012    2    3    3    0    0  0.35814289739E+02 -0.67129355113E+01 -0.52964677808E+01  0.54367089858E+02  0.40000012950E+02 0.  0.
        -12    1    3    3    0    0 -0.35814289739E+02  0.67129355113E+01  0.52964677808E+01  0.36820910142E+02  0.00000000000E+00 0.  1.
         11    1    4    4    0    0  0.17568748693E+01 -0.84790981865E-01 -0.15539054884E+02  0.15638287175E+02  0.51100000000E-03 0. -1.
        -11    1    4    4    0    0  0.18013302130E+02 -0.12606039084E+01 -0.15233348756E+01  0.18121498979E+02  0.51100000000E-03 0.  1.
        -12    1    4    4    0    0  0.16044112740E+02 -0.53675406210E+01  0.11765921979E+02  0.20607303704E+02  0.00000000000E+00 0.  1.
</event>
<event>
 8    1  0.1212194E-006  0.9118800E+02  0.7816164E-02  0.1184000E+00
        -11   -1    0    0    0    0  0.00000000000E+00  0.00000000000E+00  0.45593999997E+02  0.45594000000E+02  0.51100000000E-03 0. -1.
         11   -1    0    0    0    0 -0.00000000000E+00 -0.00000000000E+00 -0.45593999997E+02  0.45594000000E+02  0.51100000000E-03 0.  1.
         23    2    1    2    0    0 -0.44408920985E-15  0.00000000000E+00  0.00000000000E+00  0.91188000000E+02  0.91188000000E+02 0.  0.
    9900012    2    3    3    0    0 -0.13991299927E+01  0.33890831535E+02 -0.14326038357E+02  0.54367062996E+02  0.39999951711E+02 0.  0.
         12    1    3    3    0    0  0.13991299927E+01 -0.33890831535E+02  0.14326038357E+02  0.36820937004E+02  0.00000000000E+00 0. -1.
         11    1    4    4    0    0 -0.11712513930E+02  0.11128766167E+02  0.72190842494E+01  0.17695976849E+02  0.51100000000E-03 0. -1.
        -11    1    4    4    0    0 -0.42957521991E+01  0.53450003116E+01 -0.38583009204E+01  0.78682273443E+01  0.51100000000E-03 0.  1.
        -12    1    4    4    0    0  0.14609136137E+02  0.17417065056E+02 -0.17686821686E+02  0.28802858803E+02  0.00000000000E+00 0.  1.
</event>
<event>
 8    1  0.1212194E-006  0.9118800E+02  0.7816164E-02  0.1184000E+00
        -11   -1    0    0    0    0  0.00000000000E+00  0.00000000000E+00  0.45593999997E+02  0.45594000000E+02  0.51100000000E-03 0.  1.
         11   -1    0    0    0    0 -0.00000000000E+00 -0.00000000000E+00 -0.45593999997E+02  0.45594000000E+02  0.51100000000E-03 0. -1.
         23    2    1    2    0    0  0.00000000000E+00  0.35527136788E-14  0.00000000000E+00  0.91188000000E+02  0.91188000000E+02 0.  0.
    9900012    2    3    3    0    0 -0.30999121402E+02  0.19762154847E+02  0.20723334329E+01  0.54367043226E+02  0.39999906641E+02 0.  0.
         12    1    3    3    0    0  0.30999121402E+02 -0.19762154847E+02 -0.20723334329E+01  0.36820956774E+02  0.00000000000E+00 0. -1.
         11    1    4    4    0    0 -0.32180995841E+01  0.47651474483E+01 -0.28854769812E+01  0.64334106668E+01  0.51100000000E-03 0. -1.
        -11    1    4    4    0    0 -0.11433698744E+02 -0.91942919761E+01  0.10723460223E+02  0.18172976403E+02  0.51100000000E-03 0.  1.
        -12    1    4    4    0    0 -0.16347323074E+02  0.24191299375E+02 -0.57656498085E+01  0.29760656156E+02  0.00000000000E+00 0.  1.
</event>
<event>
 8    1  0.1212194E-006  0.9118800E+02  0.7816164E-02  0.1184000E+00
        -11   -1    0    0    0    0  0.00000000000E+00  0.00000000000E+00  0.45593999997E+02  0.45594000000E+02  0.51100000000E-03 0.  1.
         11   -1    0    0    0    0 -0.00000000000E+00 -0.00000000000E+00 -0.45593999997E+02  0.45594000000E+02  0.51100000000E-03 0. -1.
         23    2    1    2    0    0  0.00000000000E+00  0.35527136788E-14 -0.35527136788E-14  0.91188000000E+02  0.91188000000E+02 0.  0.
    9900012    2    3    3    0    0  0.15251328553E+01  0.25803117693E+02 -0.26223133759E+02  0.54367086689E+02  0.40000005725E+02 0.  0.
         12    1    3    3    0    0 -0.15251328553E+01 -0.25803117693E+02  0.26223133759E+02  0.36820913311E+02  0.00000000000E+00 0. -1.
         11    1    4    4    0    0 -0.17479759977E+01 -0.69494306549E+01  0.81331242757E+00  0.72118987709E+01  0.51100000000E-03 0. -1.
        -11    1    4    4    0    0  0.16994749679E+01 -0.19821096011E+01  0.67053362934E+00  0.26956611891E+01  0.51100000000E-03 0.  1.
        -12    1    4    4    0    0  0.15736338852E+01  0.34734657949E+02 -0.27706979816E+02  0.44459526729E+02  0.00000000000E+00 0.  1.
</event>
<event>
 8    1  0.1212194E-006  0.9118800E+02  0.7816164E-02  0.1184000E+00
        -11   -1    0    0    0    0  0.00000000000E+00  0.00000000000E+00  0.45593999997E+02  0.45594000000E+02  0.51100000000E-03 0. -1.
         11   -1    0    0    0    0 -0.00000000000E+00 -0.00000000000E+00 -0.45593999997E+02  0.45594000000E+02  0.51100000000E-03 0.  1.
         23    2    1    2    0    0  0.35527136788E-14  0.00000000000E+00  0.00000000000E+00  0.91188000000E+02  0.91188000000E+02 0.  0.
    9900012    2    3    3    0    0 -0.31943174128E+02 -0.80168815625E+01  0.16466485489E+02  0.54367056126E+02  0.39999936051E+02 0.  0.
        -12    1    3    3    0    0  0.31943174128E+02  0.80168815625E+01 -0.16466485489E+02  0.36820943874E+02  0.00000000000E+00 0.  1.
         11    1    4    4    0    0  0.19194074327E+01  0.72439323607E+00  0.12462681045E+02  0.12630411298E+02  0.51100000000E-03 0. -1.
        -11    1    4    4    0    0 -0.29523784833E+02 -0.53777153666E+01 -0.57391771967E+01  0.30553426135E+02  0.51100000000E-03 0.  1.
         12    1    4    4    0    0 -0.43387967275E+01 -0.33635594320E+01  0.97429816407E+01  0.11183218693E+02  0.00000000000E+00 0. -1.
</event>
<event>
 8    1  0.1212194E-006  0.9118800E+02  0.7816164E-02  0.1184000E+00
        -11   -1    0    0    0    0  0.00000000000E+00  0.00000000000E+00  0.45593999997E+02  0.45594000000E+02  0.51100000000E-03 0.  1.
         11   -1    0    0    0    0 -0.00000000000E+00 -0.00000000000E+00 -0.45593999997E+02  0.45594000000E+02  0.51100000000E-03 0. -1.
         23    2    1    2    0    0  0.00000000000E+00  0.35527136788E-14  0.35527136788E-14  0.91188000000E+02  0.91188000000E+02 0.  0.
    9900012    2    3    3    0    0 -0.14382622457E+02  0.24786365052E+02  0.23120426067E+02  0.54367111598E+02  0.40000062510E+02 0.  0.
         12    1    3    3    0    0  0.14382622457E+02 -0.24786365052E+02 -0.23120426067E+02  0.36820888402E+02  0.00000000000E+00 0. -1.
         11    1    4    4    0    0 -0.10428706323E+02  0.89885718774E+01 -0.44309385616E+00  0.13774929125E+02  0.51100000000E-03 0. -1.
        -11    1    4    4    0    0  0.59614958808E+01 -0.59435831293E+01  0.26172839457E+01  0.88156559067E+01  0.51100000000E-03 0.  1.
        -12    1    4    4    0    0 -0.99154120141E+01  0.21741376304E+02  0.20946235977E+02  0.31776526566E+02  0.00000000000E+00 0.  1.
</event>
<event>
 8    1  0.1212194E-006  0.9118800E+02  0.7816164E-02  0.1184000E+00
        -11   -1    0    0    0    0  0.00000000000E+00  0.00000000000E+00  0.45593999997E+02  0.45594000000E+02  0.51100000000E-03 0. -1.
         11   -1    0    0    0    0 -0.00000000000E+00 -0.00000000000E+00 -0.45593999997E+02  0.45594000000E+02  0.51100000000E-03 0.  1.
         23    2    1    2    0    0  0.17763568394E-14 -0.17763568394E-14  0.35527136788E-14  0.91188000000E+02  0.91188000000E+02 0.  0.
    9900012    2    3    3    0    0 -0.12352252289E+02  0.14563871385E+02 -0.31481673158E+02  0.54367078893E+02  0.39999987953E+02 0.  0.
         12    1    3    3    0    0  0.12352252289E+02 -0.14563871385E+02  0.31481673158E+02  0.36820921107E+02  0.00000000000E+00 0. -1.
         11    1    4    4    0    0  0.81183922982E+01  0.12584076841E+02 -0.17215452334E+02  0.22817517016E+02  0.51100000000E-03 0. -1.
        -11    1    4    4    0    0 -0.84304663108E+01 -0.24688828323E+01 -0.16335877287E+02  0.18548019615E+02  0.51100000000E-03 0.  1.
         12    1    4    4    0    0 -0.12040178276E+02  0.44486773760E+01  0.20696564628E+01  0.13001542262E+02  0.00000000000E+00 0. -1.
</event>
<event>
 8    1  0.1212194E-006  0.9118800E+02  0.7816164E-02  0.1184000E+00
        -11   -1    0    0    0    0  0.00000000000E+00  0.00000000000E+00  0.45593999997E+02  0.45594000000E+02  0.51100000000E-03 0. -1.
         11   -1    0    0    0    0 -0.00000000000E+00 -0.00000000000E+00 -0.45593999997E+02  0.45594000000E+02  0.51100000000E-03 0.  1.
         23    2    1    2    0    0  0.00000000000E+00 -0.44408920985E-15  0.71054273576E-14  0.91188000000E+02  0.91188000000E+02 0.  0.
    9900012    2    3    3    0    0  0.52026949464E+01 -0.33692512903E+01  0.36295487187E+02  0.54367051084E+02  0.39999924556E+02 0.  0.
        -12    1    3    3    0    0 -0.52026949464E+01  0.33692512903E+01 -0.36295487187E+02  0.36820948916E+02  0.00000000000E+00 0.  1.
         11    1    4    4    0    0 -0.89301243418E+00 -0.15412063349E+02  0.38330630305E+01  0.15906650821E+02  0.51100000000E-03 0. -1.
        -11    1    4    4    0    0 -0.22299278073E+01  0.11897747750E+02  0.21758386707E+02  0.24898923107E+02  0.51100000000E-03 0.  1.
        -12    1    4    4    0    0  0.83256351878E+01  0.14506430879E+00  0.10704037449E+02  0.13561477155E+02  0.00000000000E+00 0.  1.
</event>
<event>
 8    1  0.1212194E-006  0.9118800E+02  0.7816164E-02  0.1184000E+00
        -11   -1    0    0    0    0  0.00000000000E+00  0.00000000000E+00  0.45593999997E+02  0.45594000000E+02  0.51100000000E-03 0. -1.
         11   -1    0    0    0    0 -0.00000000000E+00 -0.00000000000E+00 -0.45593999997E+02  0.45594000000E+02  0.51100000000E-03 0.  1.
         23    2    1    2    0    0  0.00000000000E+00  0.00000000000E+00  0.00000000000E+00  0.91188000000E+02  0.91188000000E+02 0.  0.
    9900012    2    3    3    0    0 -0.86363558953E+01  0.87322893572E+01 -0.34712248675E+02  0.54367085717E+02  0.40000003509E+02 0.  0.
         12    1    3    3    0    0  0.86363558953E+01 -0.87322893572E+01  0.34712248675E+02  0.36820914283E+02  0.00000000000E+00 0. -1.
         11    1    4    4    0    0 -0.11271809448E+02  0.58179696334E+00 -0.74798950378E+01  0.13540347336E+02  0.51100000000E-03 0. -1.
        -11    1    4    4    0    0  0.10413972750E+01  0.14101526993E+02 -0.30669393186E+02  0.33772018750E+02  0.51100000000E-03 0.  1.
         12    1    4    4    0    0  0.15940562776E+01 -0.59510345989E+01  0.34370395486E+01  0.70547196310E+01  0.00000000000E+00 0. -1.
</event>
<event>
 8    1  0.1212194E-006  0.9118800E+02  0.7816164E-02  0.1184000E+00
        -11   -1    0    0    0    0  0.00000000000E+00  0.00000000000E+00  0.45593999997E+02  0.45594000000E+02  0.51100000000E-03 0.  1.
         11   -1    0    0    0    0 -0.00000000000E+00 -0.00000000000E+00 -0.45593999997E+02  0.45594000000E+02  0.51100000000E-03 0. -1.
         23    2    1    2    0    0 -0.44408920985E-15  0.17763568394E-14  0.00000000000E+00  0.91188000000E+02  0.91188000000E+02 0.  0.
    9900012    2    3    3    0    0 -0.39802374594E+01 -0.86219783285E+01 -0.35575253059E+02  0.54367089762E+02  0.40000012730E+02 0.  0.
        -12    1    3    3    0    0  0.39802374594E+01  0.86219783285E+01  0.35575253059E+02  0.36820910238E+02  0.00000000000E+00 0.  1.
         11    1    4    4    0    0 -0.94745770768E+01 -0.96042331723E+01 -0.78847879386E+01  0.15626221127E+02  0.51100000000E-03 0.  1.
        -11    1    4    4    0    0 -0.56733104657E+01 -0.60384318692E+01 -0.23472266592E+02  0.24891693601E+02  0.51100000000E-03 0. -1.
         12    1    4    4    0    0  0.11167650083E+02  0.70206867129E+01 -0.42181985285E+01  0.13849175034E+02  0.00000000000E+00 0. -1.
</event>
<event>
 8    1  0.1212194E-006  0.9118800E+02  0.7816164E-02  0.1184000E+00
        -11   -1    0    0    0    0  0.00000000000E+00  0.00000000000E+00  0.45593999997E+02  0.45594000000E+02  0.51100000000E-03 0.  1.
         11   -1    0    0    0    0 -0.00000000000E+00 -0.00000000000E+00 -0.45593999997E+02  0.45594000000E+02  0.51100000000E-03 0. -1.
         23    2    1    2    0    0 -0.17763568394E-14 -0.71054273576E-14 -0.17763568394E-14  0.91188000000E+02  0.91188000000E+02 0.  0.
    9900012    2    3    3    0    0 -0.11166039156E+02 -0.34817011062E+02 -0.43446904270E+01  0.54367068119E+02  0.39999963390E+02 0.  0.
        -12    1    3    3    0    0  0.11166039156E+02  0.34817011062E+02  0.43446904270E+01  0.36820931881E+02  0.00000000000E+00 0.  1.
         11    1    4    4    0    0  0.56397496247E+01 -0.16688831956E+02  0.69340501842E+01  0.18931585779E+02  0.51100000000E-03 0. -1.
        -11    1    4    4    0    0  0.50234431760E+01 -0.81892940539E+01 -0.32242445373E+01  0.10133867551E+02  0.51100000000E-03 0.  1.
        -12    1    4    4    0    0 -0.21829231957E+02 -0.99388850513E+01 -0.80544960738E+01  0.25301614789E+02  0.00000000000E+00 0.  1.
</event>
<event>
 8    1  0.1212194E-006  0.9118800E+02  0.7816164E-02  0.1184000E+00
        -11   -1    0    0    0    0  0.00000000000E+00  0.00000000000E+00  0.45593999997E+02  0.45594000000E+02  0.51100000000E-03 0. -1.
         11   -1    0    0    0    0 -0.00000000000E+00 -0.00000000000E+00 -0.45593999997E+02  0.45594000000E+02  0.51100000000E-03 0.  1.
         23    2    1    2    0    0  0.00000000000E+00  0.17763568394E-14 -0.17763568394E-14  0.91188000000E+02  0.91188000000E+02 0.  0.
    9900012    2    3    3    0    0  0.33962404998E+02  0.86286151115E+01 -0.11308453369E+02  0.54367094667E+02  0.40000023912E+02 0.  0.
         12    1    3    3    0    0 -0.33962404998E+02 -0.86286151115E+01  0.11308453369E+02  0.36820905333E+02  0.00000000000E+00 0. -1.
         11    1    4    4    0    0  0.48902545355E+01  0.15893394645E+02 -0.13952857001E+01  0.16687162887E+02  0.51100000000E-03 0. -1.
        -11    1    4    4    0    0  0.27766345502E+02 -0.91357037717E+01 -0.18377148494E+01  0.29288363254E+02  0.51100000000E-03 0.  1.
         12    1    4    4    0    0  0.13058049601E+01  0.18709242385E+01 -0.80754528192E+01  0.83915685265E+01  0.00000000000E+00 0. -1.
</event>
<event>
 8    1  0.1212194E-006  0.9118800E+02  0.7816164E-02  0.1184000E+00
        -11   -1    0    0    0    0  0.00000000000E+00  0.00000000000E+00  0.45593999997E+02  0.45594000000E+02  0.51100000000E-03 0.  1.
         11   -1    0    0    0    0 -0.00000000000E+00 -0.00000000000E+00 -0.45593999997E+02  0.45594000000E+02  0.51100000000E-03 0. -1.
         23    2    1    2    0    0  0.71054273576E-14  0.35527136788E-14  0.00000000000E+00  0.91188000000E+02  0.91188000000E+02 0.  0.
    9900012    2    3    3    0    0  0.32830164986E+02  0.16493141099E+02  0.24376173947E+01  0.54367008502E+02  0.39999827482E+02 0.  0.
         12    1    3    3    0    0 -0.32830164986E+02 -0.16493141099E+02 -0.24376173947E+01  0.36820991498E+02  0.00000000000E+00 0. -1.
         11    1    4    4    0    0  0.42714624047E+01 -0.70711432480E+01 -0.44469973652E+01  0.93820170398E+01  0.51100000000E-03 0. -1.
        -11    1    4    4    0    0 -0.35287537768E+01  0.18678199679E+00  0.37631279927E+01  0.51621820272E+01  0.51100000000E-03 0.  1.
         12    1    4    4    0    0  0.32087456358E+02  0.23377502350E+02  0.31214867671E+01  0.39822809435E+02  0.00000000000E+00 0. -1.
</event>
<event>
 8    1  0.1212194E-006  0.9118800E+02  0.7816164E-02  0.1184000E+00
        -11   -1    0    0    0    0  0.00000000000E+00  0.00000000000E+00  0.45593999997E+02  0.45594000000E+02  0.51100000000E-03 0. -1.
         11   -1    0    0    0    0 -0.00000000000E+00 -0.00000000000E+00 -0.45593999997E+02  0.45594000000E+02  0.51100000000E-03 0.  1.
         23    2    1    2    0    0  0.35527136788E-14  0.00000000000E+00 -0.44408920985E-15  0.91188000000E+02  0.91188000000E+02 0.  0.
    9900012    2    3    3    0    0 -0.24805821050E+02  0.27025333636E+02 -0.31753846287E+01  0.54367075465E+02  0.39999980137E+02 0.  0.
        -12    1    3    3    0    0  0.24805821050E+02 -0.27025333636E+02  0.31753846287E+01  0.36820924535E+02  0.00000000000E+00 0.  1.
         11    1    4    4    0    0 -0.25548058332E+02  0.26044287665E+01  0.28086787028E+01  0.25833602344E+02  0.51100000000E-03 0.  1.
        -11    1    4    4    0    0 -0.37617414532E+01  0.53034415066E+01  0.27228729501E+01  0.70492005177E+01  0.51100000000E-03 0. -1.
        -12    1    4    4    0    0  0.45039787355E+01  0.19117463363E+02 -0.87069362816E+01  0.21484272603E+02  0.00000000000E+00 0.  1.
</event>
<event>
 8    1  0.1212194E-006  0.9118800E+02  0.7816164E-02  0.1184000E+00
        -11   -1    0    0    0    0  0.00000000000E+00  0.00000000000E+00  0.45593999997E+02  0.45594000000E+02  0.51100000000E-03 0. -1.
         11   -1    0    0    0    0 -0.00000000000E+00 -0.00000000000E+00 -0.45593999997E+02  0.45594000000E+02  0.51100000000E-03 0.  1.
         23    2    1    2    0    0 -0.71054273576E-14  0.26645352591E-14  0.22204460493E-15  0.91188000000E+02  0.91188000000E+02 0.  0.
    9900012    2    3    3    0    0  0.36038403837E+02 -0.74085381803E+01 -0.14586795373E+01  0.54367072051E+02  0.39999972354E+02 0.  0.
         12    1    3    3    0    0 -0.36038403837E+02  0.74085381803E+01  0.14586795373E+01  0.36820927949E+02  0.00000000000E+00 0. -1.
         11    1    4    4    0    0  0.59130054685E+01 -0.11392040447E+01  0.66023157759E+01  0.89359942587E+01  0.51100000000E-03 0. -1.
        -11    1    4    4    0    0  0.57556883533E+01  0.12525288303E+02 -0.78173052347E+00  0.13806588947E+02  0.51100000000E-03 0.  1.
         12    1    4    4    0    0  0.24369710015E+02 -0.18794622438E+02 -0.72792647897E+01  0.31624488845E+02  0.00000000000E+00 0. -1.
</event>
<event>
 8    1  0.1212194E-006  0.9118800E+02  0.7816164E-02  0.1184000E+00
        -11   -1    0    0    0    0  0.00000000000E+00  0.00000000000E+00  0.45593999997E+02  0.45594000000E+02  0.51100000000E-03 0.  1.
         11   -1    0    0    0    0 -0.00000000000E+00 -0.00000000000E+00 -0.45593999997E+02  0.45594000000E+02  0.51100000000E-03 0. -1.
         23    2    1    2    0    0  0.00000000000E+00  0.17763568394E-14 -0.22204460493E-15  0.91188000000E+02  0.91188000000E+02 0.  0.
    9900012    2    3    3    0    0  0.35525233114E+02  0.95483991224E+01  0.16029953044E+01  0.54367031687E+02  0.39999880336E+02 0.  0.
         12    1    3    3    0    0 -0.35525233114E+02 -0.95483991224E+01 -0.16029953044E+01  0.36820968313E+02  0.00000000000E+00 0. -1.
         11    1    4    4    0    0 -0.83206251875E+01  0.26776653535E+01 -0.60727689211E+00  0.87619336188E+01  0.51100000000E-03 0. -1.
        -11    1    4    4    0    0  0.26751998330E+02  0.18883867203E+01  0.58075694457E+01  0.27440176424E+02  0.51100000000E-03 0.  1.
         12    1    4    4    0    0  0.17093859971E+02  0.49823470485E+01 -0.35972972492E+01  0.18164921644E+02  0.00000000000E+00 0. -1.
</event>
<event>
 8    1  0.1212194E-006  0.9118800E+02  0.7816164E-02  0.1184000E+00
        -11   -1    0    0    0    0  0.00000000000E+00  0.00000000000E+00  0.45593999997E+02  0.45594000000E+02  0.51100000000E-03 0.  1.
         11   -1    0    0    0    0 -0.00000000000E+00 -0.00000000000E+00 -0.45593999997E+02  0.45594000000E+02  0.51100000000E-03 0. -1.
         23    2    1    2    0    0  0.00000000000E+00  0.44408920985E-15  0.35527136788E-14  0.91188000000E+02  0.91188000000E+02 0.  0.
    9900012    2    3    3    0    0  0.18938957773E+02 -0.37117406574E+01 -0.31357907247E+02  0.54367088997E+02  0.40000010986E+02 0.  0.
        -12    1    3    3    0    0 -0.18938957773E+02  0.37117406574E+01  0.31357907247E+02  0.36820911003E+02  0.00000000000E+00 0.  1.
         11    1    4    4    0    0  0.64882073597E+01  0.46528677072E-01 -0.11509210726E+02  0.13212150902E+02  0.51100000000E-03 0. -1.
        -11    1    4    4    0    0 -0.20320688451E+01 -0.14571088315E+02 -0.56171286123E+00  0.14722820384E+02  0.51100000000E-03 0.  1.
         12    1    4    4    0    0  0.14482819258E+02  0.10812818980E+02 -0.19286983660E+02  0.26432117710E+02  0.00000000000E+00 0. -1.
</event>
<event>
 8    1  0.1212194E-006  0.9118800E+02  0.7816164E-02  0.1184000E+00
        -11   -1    0    0    0    0  0.00000000000E+00  0.00000000000E+00  0.45593999997E+02  0.45594000000E+02  0.51100000000E-03 0.  1.
         11   -1    0    0    0    0 -0.00000000000E+00 -0.00000000000E+00 -0.45593999997E+02  0.45594000000E+02  0.51100000000E-03 0. -1.
         23    2    1    2    0    0  0.88817841970E-15 -0.88817841970E-15  0.71054273576E-14  0.91188000000E+02  0.91188000000E+02 0.  0.
    9900012    2    3    3    0    0  0.17479480617E+01 -0.41736650456E+01  0.36541817015E+02  0.54367092989E+02  0.40000020087E+02 0.  0.
         12    1    3    3    0    0 -0.17479480617E+01  0.41736650456E+01 -0.36541817015E+02  0.36820907011E+02  0.00000000000E+00 0. -1.
         11    1    4    4    0    0  0.56812399553E+01 -0.64469296350E+01 -0.15803905363E+01  0.87371061374E+01  0.51100000000E-03 0. -1.
        -11    1    4    4    0    0  0.14889236452E+01  0.55271957868E-01 -0.33918195291E+01  0.37046441921E+01  0.51100000000E-03 0.  1.
        -12    1    4    4    0    0 -0.54222155388E+01  0.22179926316E+01  0.41514027081E+02  0.41925342659E+02  0.00000000000E+00 0.  1.
</event>
<event>
 8    1  0.1212194E-006  0.9118800E+02  0.7816164E-02  0.1184000E+00
        -11   -1    0    0    0    0  0.00000000000E+00  0.00000000000E+00  0.45593999997E+02  0.45594000000E+02  0.51100000000E-03 0. -1.
         11   -1    0    0    0    0 -0.00000000000E+00 -0.00000000000E+00 -0.45593999997E+02  0.45594000000E+02  0.51100000000E-03 0.  1.
         23    2    1    2    0    0 -0.44408920985E-15  0.35527136788E-14 -0.35527136788E-14  0.91188000000E+02  0.91188000000E+02 0.  0.
    9900012    2    3    3    0    0 -0.10831027524E+01  0.31215240674E+02 -0.19499065383E+02  0.54367110376E+02  0.40000059724E+02 0.  0.
         12    1    3    3    0    0  0.10831027524E+01 -0.31215240674E+02  0.19499065383E+02  0.36820889624E+02  0.00000000000E+00 0. -1.
         11    1    4    4    0    0 -0.22064060497E+01 -0.74842698576E+01  0.86382616978E+00  0.78503960964E+01  0.51100000000E-03 0. -1.
        -11    1    4    4    0    0  0.78736490286E+01  0.12562068667E+02 -0.69896816991E+01  0.16390715931E+02  0.51100000000E-03 0.  1.
        -12    1    4    4    0    0 -0.67503457313E+01  0.26137441864E+02 -0.13373209854E+02  0.30125998348E+02  0.00000000000E+00 0.  1.
</event>
<event>
 8    1  0.1212194E-006  0.9118800E+02  0.7816164E-02  0.1184000E+00
        -11   -1    0    0    0    0  0.00000000000E+00  0.00000000000E+00  0.45593999997E+02  0.45594000000E+02  0.51100000000E-03 0. -1.
         11   -1    0    0    0    0 -0.00000000000E+00 -0.00000000000E+00 -0.45593999997E+02  0.45594000000E+02  0.51100000000E-03 0.  1.
         23    2    1    2    0    0 -0.17763568394E-14  0.17763568394E-14  0.00000000000E+00  0.91188000000E+02  0.91188000000E+02 0.  0.
    9900012    2    3    3    0    0  0.47703827077E+01  0.14945604548E+02  0.33311452151E+02  0.54367075366E+02  0.39999979912E+02 0.  0.
        -12    1    3    3    0    0 -0.47703827077E+01 -0.14945604548E+02 -0.33311452151E+02  0.36820924634E+02  0.00000000000E+00 0.  1.
         11    1    4    4    0    0 -0.88434551382E+01  0.97475342757E+01  0.37020965588E+02  0.39290877015E+02  0.51100000000E-03 0. -1.
        -11    1    4    4    0    0  0.61217410658E+01  0.20811349236E+01 -0.11483375483E+01  0.65670020278E+01  0.51100000000E-03 0.  1.
         12    1    4    4    0    0  0.74920967801E+01  0.31169353492E+01 -0.25611758894E+01  0.85091963234E+01  0.00000000000E+00 0. -1.
</event>
<event>
 8    1  0.1212194E-006  0.9118800E+02  0.7816164E-02  0.1184000E+00
        -11   -1    0    0    0    0  0.00000000000E+00  0.00000000000E+00  0.45593999997E+02  0.45594000000E+02  0.51100000000E-03 0. -1.
         11   -1    0    0    0    0 -0.00000000000E+00 -0.00000000000E+00 -0.45593999997E+02  0.45594000000E+02  0.51100000000E-03 0.  1.
         23    2    1    2    0    0  0.00000000000E+00 -0.71054273576E-14  0.00000000000E+00  0.91188000000E+02  0.91188000000E+02 0.  0.
    9900012    2    3    3    0    0 -0.14620814124E+02 -0.33459682878E+02 -0.47393043571E+01  0.54367087603E+02  0.40000007808E+02 0.  0.
        -12    1    3    3    0    0  0.14620814124E+02  0.33459682878E+02  0.47393043571E+01  0.36820912397E+02  0.00000000000E+00 0.  1.
         11    1    4    4    0    0 -0.65411259889E+01 -0.25870848272E+01  0.36475485506E+01  0.79236322350E+01  0.51100000000E-03 0. -1.
        -11    1    4    4    0    0 -0.14324913717E+02 -0.10055223814E+01  0.13274596020E+01  0.14421386116E+02  0.51100000000E-03 0.  1.
        -12    1    4    4    0    0  0.62452255813E+01 -0.29867075670E+02 -0.97143125097E+01  0.32022069252E+02  0.00000000000E+00 0.  1.
</event>
<event>
 8    1  0.1212194E-006  0.9118800E+02  0.7816164E-02  0.1184000E+00
        -11   -1    0    0    0    0  0.00000000000E+00  0.00000000000E+00  0.45593999997E+02  0.45594000000E+02  0.51100000000E-03 0.  1.
         11   -1    0    0    0    0 -0.00000000000E+00 -0.00000000000E+00 -0.45593999997E+02  0.45594000000E+02  0.51100000000E-03 0. -1.
         23    2    1    2    0    0  0.35527136788E-14 -0.35527136788E-14  0.00000000000E+00  0.91188000000E+02  0.91188000000E+02 0.  0.
    9900012    2    3    3    0    0  0.24260729286E+02 -0.18768843253E+02  0.20369743489E+02  0.54367096802E+02  0.40000028778E+02 0.  0.
         12    1    3    3    0    0 -0.24260729286E+02  0.18768843253E+02 -0.20369743489E+02  0.36820903198E+02  0.00000000000E+00 0. -1.
         11    1    4    4    0    0  0.45019404362E+01 -0.42898967477E+00 -0.74372495186E+01  0.87042622028E+01  0.51100000000E-03 0. -1.
        -11    1    4    4    0    0  0.22465943621E+02 -0.13738578619E+02  0.11925770743E+02  0.28908323599E+02  0.51100000000E-03 0.  1.
         12    1    4    4    0    0 -0.27071547713E+01 -0.46012749597E+01  0.15881222265E+02  0.16754510999E+02  0.00000000000E+00 0. -1.
</event>
<event>
 8    1  0.1212194E-006  0.9118800E+02  0.7816164E-02  0.1184000E+00
        -11   -1    0    0    0    0  0.00000000000E+00  0.00000000000E+00  0.45593999997E+02  0.45594000000E+02  0.51100000000E-03 0.  1.
         11   -1    0    0    0    0 -0.00000000000E+00 -0.00000000000E+00 -0.45593999997E+02  0.45594000000E+02  0.51100000000E-03 0. -1.
         23    2    1    2    0    0  0.00000000000E+00  0.00000000000E+00  0.71054273576E-14  0.91188000000E+02  0.91188000000E+02 0.  0.
    9900012    2    3    3    0    0 -0.15645290975E+02 -0.25524522418E+01  0.33233874099E+02  0.54367074839E+02  0.39999978710E+02 0.  0.
         12    1    3    3    0    0  0.15645290975E+02  0.25524522418E+01 -0.33233874099E+02  0.36820925161E+02  0.00000000000E+00 0. -1.
         11    1    4    4    0    0 -0.28788180662E+00  0.83944623498E+01  0.14077866377E+01  0.85165566725E+01  0.51100000000E-03 0. -1.
        -11    1    4    4    0    0 -0.22342243406E+02 -0.12649365378E+02  0.23028780091E+02  0.34489230169E+02  0.51100000000E-03 0.  1.
        -12    1    4    4    0    0  0.69848342376E+01  0.17024507862E+01  0.87973073697E+01  0.11361287998E+02  0.00000000000E+00 0.  1.
</event>
<event>
 8    1  0.1212194E-006  0.9118800E+02  0.7816164E-02  0.1184000E+00
        -11   -1    0    0    0    0  0.00000000000E+00  0.00000000000E+00  0.45593999997E+02  0.45594000000E+02  0.51100000000E-03 0.  1.
         11   -1    0    0    0    0 -0.00000000000E+00 -0.00000000000E+00 -0.45593999997E+02  0.45594000000E+02  0.51100000000E-03 0. -1.
         23    2    1    2    0    0  0.00000000000E+00  0.35527136788E-14  0.18873791419E-14  0.91188000000E+02  0.91188000000E+02 0.  0.
    9900012    2    3    3    0    0  0.20807975988E+02 -0.30371602072E+02 -0.61134830307E+00  0.54367084423E+02  0.40000000560E+02 0.  0.
        -12    1    3    3    0    0 -0.20807975988E+02  0.30371602072E+02  0.61134830307E+00  0.36820915577E+02  0.00000000000E+00 0.  1.
         11    1    4    4    0    0  0.73684469441E+01 -0.13614026614E+02  0.30192475756E+01  0.15771860613E+02  0.51100000000E-03 0. -1.
        -11    1    4    4    0    0 -0.14327355724E+01 -0.15969807792E+02  0.95880053966E+01  0.18682005778E+02  0.51100000000E-03 0.  1.
        -12    1    4    4    0    0  0.14872264616E+02 -0.78776766556E+00 -0.13218601275E+02  0.19913218032E+02  0.00000000000E+00 0.  1.
</event>
<event>
 8    1  0.1212194E-006  0.9118800E+02  0.7816164E-02  0.1184000E+00
        -11   -1    0    0    0    0  0.00000000000E+00  0.00000000000E+00  0.45593999997E+02  0.45594000000E+02  0.51100000000E-03 0. -1.
         11   -1    0    0    0    0 -0.00000000000E+00 -0.00000000000E+00 -0.45593999997E+02  0.45594000000E+02  0.51100000000E-03 0.  1.
         23    2    1    2    0    0  0.00000000000E+00  0.00000000000E+00  0.00000000000E+00  0.91188000000E+02  0.91188000000E+02 0.  0.
    9900012    2    3    3    0    0  0.22082448139E+02  0.24560373096E+02 -0.16276815660E+02  0.54367066138E+02  0.39999958875E+02 0.  0.
         12    1    3    3    0    0 -0.22082448139E+02 -0.24560373096E+02  0.16276815660E+02  0.36820933862E+02  0.00000000000E+00 0. -1.
         11    1    4    4    0    0  0.73003698935E+01  0.15380915972E+01 -0.19976494487E+02  0.21324198897E+02  0.51100000000E-03 0. -1.
        -11    1    4    4    0    0  0.13655849357E+00  0.13783762999E+02 -0.36068870950E+01  0.14248522921E+02  0.51100000000E-03 0.  1.
         12    1    4    4    0    0  0.14645519752E+02  0.92385184995E+01  0.73065659216E+01  0.18794344321E+02  0.00000000000E+00 0. -1.
</event>
<event>
 8    1  0.1212194E-006  0.9118800E+02  0.7816164E-02  0.1184000E+00
        -11   -1    0    0    0    0  0.00000000000E+00  0.00000000000E+00  0.45593999997E+02  0.45594000000E+02  0.51100000000E-03 0.  1.
         11   -1    0    0    0    0 -0.00000000000E+00 -0.00000000000E+00 -0.45593999997E+02  0.45594000000E+02  0.51100000000E-03 0. -1.
         23    2    1    2    0    0 -0.35527136788E-14  0.17763568394E-14  0.00000000000E+00  0.91188000000E+02  0.91188000000E+02 0.  0.
    9900012    2    3    3    0    0  0.27341591406E+02 -0.11892024308E+02  0.21605485197E+02  0.54367084023E+02  0.39999999647E+02 0.  0.
         12    1    3    3    0    0 -0.27341591406E+02  0.11892024308E+02 -0.21605485197E+02  0.36820915977E+02  0.00000000000E+00 0. -1.
         11    1    4    4    0    0 -0.35101630807E+01 -0.34134226652E+01 -0.14092353639E+01  0.50949625825E+01  0.51100000000E-03 0. -1.
        -11    1    4    4    0    0  0.24813438717E+02 -0.10356279935E+02  0.29704691728E+02  0.40066544473E+02  0.51100000000E-03 0.  1.
        -12    1    4    4    0    0  0.60383157696E+01  0.18776782922E+01 -0.66899711667E+01  0.92055769680E+01  0.00000000000E+00 0.  1.
</event>
<event>
 8    1  0.1212194E-006  0.9118800E+02  0.7816164E-02  0.1184000E+00
        -11   -1    0    0    0    0  0.00000000000E+00  0.00000000000E+00  0.45593999997E+02  0.45594000000E+02  0.51100000000E-03 0.  1.
         11   -1    0    0    0    0 -0.00000000000E+00 -0.00000000000E+00 -0.45593999997E+02  0.45594000000E+02  0.51100000000E-03 0. -1.
         23    2    1    2    0    0  0.35527136788E-14 -0.35527136788E-14  0.35527136788E-14  0.91188000000E+02  0.91188000000E+02 0.  0.
    9900012    2    3    3    0    0 -0.28274426071E+02 -0.89836676053E+01 -0.21808932137E+02  0.54367095961E+02  0.40000026863E+02 0.  0.
        -12    1    3    3    0    0  0.28274426071E+02  0.89836676053E+01  0.21808932137E+02  0.36820904039E+02  0.00000000000E+00 0.  1.
         11    1    4    4    0    0 -0.21506508975E+02  0.66544351329E+01 -0.43386194661E+01  0.22926732309E+02  0.51100000000E-03 0. -1.
        -11    1    4    4    0    0  0.40778611696E+01 -0.16780219627E+01  0.22548575457E+01  0.49526853563E+01  0.51100000000E-03 0.  1.
         12    1    4    4    0    0 -0.10845778265E+02 -0.13960080775E+02 -0.19725170217E+02  0.26487678296E+02  0.00000000000E+00 0. -1.
</event>
<event>
 8    1  0.1212194E-006  0.9118800E+02  0.7816164E-02  0.1184000E+00
        -11   -1    0    0    0    0  0.00000000000E+00  0.00000000000E+00  0.45593999997E+02  0.45594000000E+02  0.51100000000E-03 0.  1.
         11   -1    0    0    0    0 -0.00000000000E+00 -0.00000000000E+00 -0.45593999997E+02  0.45594000000E+02  0.51100000000E-03 0. -1.
         23    2    1    2    0    0  0.35527136788E-14  0.00000000000E+00 -0.71054273576E-14  0.91188000000E+02  0.91188000000E+02 0.  0.
    9900012    2    3    3    0    0 -0.24644597963E+02  0.11655918125E+02  0.24750006855E+02  0.54367089156E+02  0.40000011348E+02 0.  0.
         12    1    3    3    0    0  0.24644597963E+02 -0.11655918125E+02 -0.24750006855E+02  0.36820910844E+02  0.00000000000E+00 0. -1.
         11    1    4    4    0    0  0.55323209914E+01 -0.13719786458E+01 -0.33150381074E+01  0.65938136819E+01  0.51100000000E-03 0. -1.
        -11    1    4    4    0    0 -0.17383290332E+02  0.11753023418E+02  0.53225655350E+01  0.21648141868E+02  0.51100000000E-03 0.  1.
        -12    1    4    4    0    0 -0.12793628623E+02  0.12748733525E+01  0.22742479427E+02  0.26125133605E+02  0.00000000000E+00 0.  1.
</event>
<event>
 8    1  0.1212194E-006  0.9118800E+02  0.7816164E-02  0.1184000E+00
        -11   -1    0    0    0    0  0.00000000000E+00  0.00000000000E+00  0.45593999997E+02  0.45594000000E+02  0.51100000000E-03 0.  1.
         11   -1    0    0    0    0 -0.00000000000E+00 -0.00000000000E+00 -0.45593999997E+02  0.45594000000E+02  0.51100000000E-03 0. -1.
         23    2    1    2    0    0  0.88817841970E-15  0.00000000000E+00  0.00000000000E+00  0.91188000000E+02  0.91188000000E+02 0.  0.
    9900012    2    3    3    0    0  0.31110792843E+01 -0.31056664936E+02 -0.19534167737E+02  0.54367096148E+02  0.40000027290E+02 0.  0.
         12    1    3    3    0    0 -0.31110792843E+01  0.31056664936E+02  0.19534167737E+02  0.36820903852E+02  0.00000000000E+00 0. -1.
         11    1    4    4    0    0 -0.19479906411E+01  0.42887512157E+01  0.52748920599E+01  0.70719545412E+01  0.51100000000E-03 0. -1.
        -11    1    4    4    0    0  0.18492053505E-01 -0.59762087508E+01  0.28655131242E+01  0.66277129325E+01  0.51100000000E-03 0.  1.
        -12    1    4    4    0    0  0.50405778719E+01 -0.29369207401E+02 -0.27674572921E+02  0.40667428675E+02  0.00000000000E+00 0.  1.
</event>
<event>
 8    1  0.1212194E-006  0.9118800E+02  0.7816164E-02  0.1184000E+00
        -11   -1    0    0    0    0  0.00000000000E+00  0.00000000000E+00  0.45593999997E+02  0.45594000000E+02  0.51100000000E-03 0.  1.
         11   -1    0    0    0    0 -0.00000000000E+00 -0.00000000000E+00 -0.45593999997E+02  0.45594000000E+02  0.51100000000E-03 0. -1.
         23    2    1    2    0    0  0.35527136788E-14 -0.35527136788E-14  0.88817841970E-15  0.91188000000E+02  0.91188000000E+02 0.  0.
    9900012    2    3    3    0    0  0.28537956367E+02 -0.22904974156E+02 -0.40898804399E+01  0.54367083163E+02  0.39999997687E+02 0.  0.
        -12    1    3    3    0    0 -0.28537956367E+02  0.22904974156E+02  0.40898804399E+01  0.36820916837E+02  0.00000000000E+00 0.  1.
         11    1    4    4    0    0  0.19335497446E+02 -0.23395012231E+02 -0.14625924143E+02  0.33691329984E+02  0.51100000000E-03 0. -1.
        -11    1    4    4    0    0  0.79825236018E+01  0.37972943946E+01 -0.73126783335E+00  0.88698861705E+01  0.51100000000E-03 0.  1.
         12    1    4    4    0    0  0.12199353189E+01 -0.33072563198E+01  0.11267311537E+02  0.11805867008E+02  0.00000000000E+00 0. -1.
</event>
<event>
 8    1  0.1212194E-006  0.9118800E+02  0.7816164E-02  0.1184000E+00
        -11   -1    0    0    0    0  0.00000000000E+00  0.00000000000E+00  0.45593999997E+02  0.45594000000E+02  0.51100000000E-03 0.  1.
         11   -1    0    0    0    0 -0.00000000000E+00 -0.00000000000E+00 -0.45593999997E+02  0.45594000000E+02  0.51100000000E-03 0. -1.
         23    2    1    2    0    0  0.00000000000E+00 -0.88817841970E-15 -0.88817841970E-15  0.91188000000E+02  0.91188000000E+02 0.  0.
    9900012    2    3    3    0    0  0.36159817475E+02 -0.10552472170E+01 -0.68654816672E+01  0.54367071372E+02  0.39999970807E+02 0.  0.
         12    1    3    3    0    0 -0.36159817475E+02  0.10552472170E+01  0.68654816672E+01  0.36820928628E+02  0.00000000000E+00 0. -1.
         11    1    4    4    0    0  0.35666355792E+01  0.28617043957E+01 -0.24933107036E+00  0.45795641328E+01  0.51100000000E-03 0. -1.
        -11    1    4    4    0    0  0.17174982834E+02  0.16300239568E+02 -0.73164044677E+00  0.23689937596E+02  0.51100000000E-03 0.  1.
         12    1    4    4    0    0  0.15418199062E+02 -0.20217191181E+02 -0.58845101501E+01  0.26097569643E+02  0.00000000000E+00 0. -1.
</event>
<event>
 8    1  0.1212194E-006  0.9118800E+02  0.7816164E-02  0.1184000E+00
        -11   -1    0    0    0    0  0.00000000000E+00  0.00000000000E+00  0.45593999997E+02  0.45594000000E+02  0.51100000000E-03 0. -1.
         11   -1    0    0    0    0 -0.00000000000E+00 -0.00000000000E+00 -0.45593999997E+02  0.45594000000E+02  0.51100000000E-03 0.  1.
         23    2    1    2    0    0  0.00000000000E+00  0.00000000000E+00  0.00000000000E+00  0.91188000000E+02  0.91188000000E+02 0.  0.
    9900012    2    3    3    0    0 -0.18712164655E+02 -0.19224123453E+02 -0.25220387657E+02  0.54367082274E+02  0.39999995659E+02 0.  0.
        -12    1    3    3    0    0  0.18712164655E+02  0.19224123453E+02  0.25220387657E+02  0.36820917726E+02  0.00000000000E+00 0.  1.
         11    1    4    4    0    0 -0.75940332663E+01 -0.10869733851E+02 -0.26914904684E+02  0.30003875577E+02  0.51100000000E-03 0. -1.
        -11    1    4    4    0    0  0.27092690478E+01 -0.10016807566E+02  0.80072503888E+00  0.10407580575E+02  0.51100000000E-03 0.  1.
         12    1    4    4    0    0 -0.13827400437E+02  0.16624179633E+01  0.89379198769E+00  0.13955626122E+02  0.00000000000E+00 0. -1.
</event>
<event>
 8    1  0.1212194E-006  0.9118800E+02  0.7816164E-02  0.1184000E+00
        -11   -1    0    0    0    0  0.00000000000E+00  0.00000000000E+00  0.45593999997E+02  0.45594000000E+02  0.51100000000E-03 0. -1.
         11   -1    0    0    0    0 -0.00000000000E+00 -0.00000000000E+00 -0.45593999997E+02  0.45594000000E+02  0.51100000000E-03 0.  1.
         23    2    1    2    0    0  0.26645352591E-14 -0.35527136788E-14  0.00000000000E+00  0.91188000000E+02  0.91188000000E+02 0.  0.
    9900012    2    3    3    0    0 -0.32346872349E+01  0.26148898344E+02 -0.25720652048E+02  0.54367081653E+02  0.39999994244E+02 0.  0.
         12    1    3    3    0    0  0.32346872349E+01 -0.26148898344E+02  0.25720652048E+02  0.36820918347E+02  0.00000000000E+00 0. -1.
         11    1    4    4    0    0 -0.88681397272E+01  0.14682367237E+02  0.39975218968E+01  0.17612381766E+02  0.51100000000E-03 0. -1.
        -11    1    4    4    0    0  0.10672350870E+02  0.12540838633E+02 -0.22209448917E+02  0.27648351273E+02  0.51100000000E-03 0.  1.
        -12    1    4    4    0    0 -0.50388983773E+01 -0.10743075253E+01 -0.75087250286E+01  0.91063486135E+01  0.00000000000E+00 0.  1.
</event>
<event>
 8    1  0.1212194E-006  0.9118800E+02  0.7816164E-02  0.1184000E+00
        -11   -1    0    0    0    0  0.00000000000E+00  0.00000000000E+00  0.45593999997E+02  0.45594000000E+02  0.51100000000E-03 0.  1.
         11   -1    0    0    0    0 -0.00000000000E+00 -0.00000000000E+00 -0.45593999997E+02  0.45594000000E+02  0.51100000000E-03 0. -1.
         23    2    1    2    0    0 -0.17763568394E-14  0.35527136788E-14 -0.71054273576E-14  0.91188000000E+02  0.91188000000E+02 0.  0.
    9900012    2    3    3    0    0 -0.34295879601E+01 -0.22992261370E+02  0.28554741102E+02  0.54367090236E+02  0.40000013810E+02 0.  0.
         12    1    3    3    0    0  0.34295879601E+01  0.22992261370E+02 -0.28554741102E+02  0.36820909764E+02  0.00000000000E+00 0. -1.
         11    1    4    4    0    0  0.34989887616E+01  0.10446190967E+01  0.89382157893E+01  0.96553536014E+01  0.51100000000E-03 0. -1.
        -11    1    4    4    0    0  0.10025404177E+02 -0.17263060894E+02  0.33157699184E+01  0.20236509846E+02  0.51100000000E-03 0.  1.
         12    1    4    4    0    0 -0.16953980899E+02 -0.67738195724E+01  0.16300755394E+02  0.24475226788E+02  0.00000000000E+00 0. -1.
</event>
<event>
 8    1  0.1212194E-006  0.9118800E+02  0.7816164E-02  0.1184000E+00
        -11   -1    0    0    0    0  0.00000000000E+00  0.00000000000E+00  0.45593999997E+02  0.45594000000E+02  0.51100000000E-03 0.  1.
         11   -1    0    0    0    0 -0.00000000000E+00 -0.00000000000E+00 -0.45593999997E+02  0.45594000000E+02  0.51100000000E-03 0. -1.
         23    2    1    2    0    0 -0.17763568394E-14 -0.35527136788E-14 -0.35527136788E-14  0.91188000000E+02  0.91188000000E+02 0.  0.
    9900012    2    3    3    0    0 -0.10405356522E+02 -0.30116446303E+02  0.18452869033E+02  0.54367079889E+02  0.39999990223E+02 0.  0.
         12    1    3    3    0    0  0.10405356522E+02  0.30116446303E+02 -0.18452869033E+02  0.36820920111E+02  0.00000000000E+00 0. -1.
         11    1    4    4    0    0 -0.47597026308E+01 -0.11872176094E+02  0.25397206766E+02  0.28436269905E+02  0.51100000000E-03 0.  1.
        -11    1    4    4    0    0 -0.11210539717E+02 -0.12503688724E+02 -0.61989964675E+01  0.17901005277E+02  0.51100000000E-03 0. -1.
        -12    1    4    4    0    0  0.55648858257E+01 -0.57405814849E+01 -0.74534126564E+00  0.80298047075E+01  0.00000000000E+00 0.  1.
</event>
<event>
 8    1  0.1212194E-006  0.9118800E+02  0.7816164E-02  0.1184000E+00
        -11   -1    0    0    0    0  0.00000000000E+00  0.00000000000E+00  0.45593999997E+02  0.45594000000E+02  0.51100000000E-03 0.  1.
         11   -1    0    0    0    0 -0.00000000000E+00 -0.00000000000E+00 -0.45593999997E+02  0.45594000000E+02  0.51100000000E-03 0. -1.
         23    2    1    2    0    0  0.00000000000E+00  0.00000000000E+00  0.00000000000E+00  0.91188000000E+02  0.91188000000E+02 0.  0.
    9900012    2    3    3    0    0  0.70078660537E+01 -0.17402932836E+02  0.31682942426E+02  0.54367067112E+02  0.39999961096E+02 0.  0.
         12    1    3    3    0    0 -0.70078660537E+01  0.17402932836E+02 -0.31682942426E+02  0.36820932888E+02  0.00000000000E+00 0. -1.
         11    1    4    4    0    0 -0.35210111141E+01 -0.17092939453E+02  0.29389372403E+01  0.17697554938E+02  0.51100000000E-03 0. -1.
        -11    1    4    4    0    0 -0.51257422758E+01 -0.25616292746E+01  0.13663388172E+02  0.14816320563E+02  0.51100000000E-03 0.  1.
        -12    1    4    4    0    0  0.15654619444E+02  0.22516358911E+01  0.15080617014E+02  0.21853191612E+02  0.00000000000E+00 0.  1.
</event>
<event>
 8    1  0.1212194E-006  0.9118800E+02  0.7816164E-02  0.1184000E+00
        -11   -1    0    0    0    0  0.00000000000E+00  0.00000000000E+00  0.45593999997E+02  0.45594000000E+02  0.51100000000E-03 0. -1.
         11   -1    0    0    0    0 -0.00000000000E+00 -0.00000000000E+00 -0.45593999997E+02  0.45594000000E+02  0.51100000000E-03 0.  1.
         23    2    1    2    0    0  0.00000000000E+00  0.00000000000E+00 -0.17763568394E-14  0.91188000000E+02  0.91188000000E+02 0.  0.
    9900012    2    3    3    0    0 -0.15170450934E+02 -0.32509138331E+02 -0.82941651338E+01  0.54367084315E+02  0.40000000314E+02 0.  0.
         12    1    3    3    0    0  0.15170450934E+02  0.32509138331E+02  0.82941651338E+01  0.36820915685E+02  0.00000000000E+00 0. -1.
         11    1    4    4    0    0 -0.16291474335E+02 -0.29552604690E+02 -0.48993122648E+01  0.34099440478E+02  0.51100000000E-03 0. -1.
        -11    1    4    4    0    0  0.10305420985E+02 -0.95401094478E-01 -0.99981858007E+00  0.10354247462E+02  0.51100000000E-03 0.  1.
         12    1    4    4    0    0 -0.91843975852E+01 -0.28611325462E+01 -0.23950342888E+01  0.99133963753E+01  0.00000000000E+00 0. -1.
</event>
<event>
 8    1  0.1212194E-006  0.9118800E+02  0.7816164E-02  0.1184000E+00
        -11   -1    0    0    0    0  0.00000000000E+00  0.00000000000E+00  0.45593999997E+02  0.45594000000E+02  0.51100000000E-03 0.  1.
         11   -1    0    0    0    0 -0.00000000000E+00 -0.00000000000E+00 -0.45593999997E+02  0.45594000000E+02  0.51100000000E-03 0. -1.
         23    2    1    2    0    0  0.35527136788E-14  0.00000000000E+00 -0.55511151231E-15  0.91188000000E+02  0.91188000000E+02 0.  0.
    9900012    2    3    3    0    0  0.16904970062E+02 -0.32697825155E+02 -0.92460973107E+00  0.54367072719E+02  0.39999973878E+02 0.  0.
        -12    1    3    3    0    0 -0.16904970062E+02  0.32697825155E+02  0.92460973107E+00  0.36820927281E+02  0.00000000000E+00 0.  1.
         11    1    4    4    0    0 -0.12114362126E+01 -0.23072916753E+02 -0.14612030325E+02  0.27337492491E+02  0.51100000000E-03 0. -1.
        -11    1    4    4    0    0  0.12616549093E+02 -0.19428297676E+01  0.37206458575E+01  0.13296432017E+02  0.51100000000E-03 0.  1.
         12    1    4    4    0    0  0.54998571815E+01 -0.76820786344E+01  0.99667747368E+01  0.13733148212E+02  0.00000000000E+00 0. -1.
</event>
<event>
 8    1  0.1212194E-006  0.9118800E+02  0.7816164E-02  0.1184000E+00
        -11   -1    0    0    0    0  0.00000000000E+00  0.00000000000E+00  0.45593999997E+02  0.45594000000E+02  0.51100000000E-03 0.  1.
         11   -1    0    0    0    0 -0.00000000000E+00 -0.00000000000E+00 -0.45593999997E+02  0.45594000000E+02  0.51100000000E-03 0. -1.
         23    2    1    2    0    0  0.00000000000E+00  0.00000000000E+00 -0.35527136788E-14  0.91188000000E+02  0.91188000000E+02 0.  0.
    9900012    2    3    3    0    0  0.11166653320E+02 -0.19852685112E+02 -0.28930205663E+02  0.54367081323E+02  0.39999993492E+02 0.  0.
        -12    1    3    3    0    0 -0.11166653320E+02  0.19852685112E+02  0.28930205663E+02  0.36820918677E+02  0.00000000000E+00 0.  1.
         11    1    4    4    0    0  0.83563578280E+01 -0.79218343423E+00  0.63058582598E+00  0.84174764322E+01  0.51100000000E-03 0. -1.
        -11    1    4    4    0    0  0.19149512024E+01  0.36606290546E+01  0.37755604861E+01  0.55966150867E+01  0.51100000000E-03 0.  1.
         12    1    4    4    0    0  0.89534428979E+00 -0.22721130732E+02 -0.33336351975E+02  0.40352989804E+02  0.00000000000E+00 0. -1.
</event>
<event>
 8    1  0.1212194E-006  0.9118800E+02  0.7816164E-02  0.1184000E+00
        -11   -1    0    0    0    0  0.00000000000E+00  0.00000000000E+00  0.45593999997E+02  0.45594000000E+02  0.51100000000E-03 0.  1.
         11   -1    0    0    0    0 -0.00000000000E+00 -0.00000000000E+00 -0.45593999997E+02  0.45594000000E+02  0.51100000000E-03 0. -1.
         23    2    1    2    0    0  0.00000000000E+00  0.00000000000E+00  0.35527136788E-14  0.91188000000E+02  0.91188000000E+02 0.  0.
    9900012    2    3    3    0    0 -0.18538414846E+02 -0.29826815394E+01 -0.31673495849E+02  0.54367088095E+02  0.40000008931E+02 0.  0.
        -12    1    3    3    0    0  0.18538414846E+02  0.29826815394E+01  0.31673495849E+02  0.36820911905E+02  0.00000000000E+00 0.  1.
         11    1    4    4    0    0 -0.69623657457E+01 -0.36803294178E+00 -0.11085829416E+02  0.13096014627E+02  0.51100000000E-03 0. -1.
        -11    1    4    4    0    0  0.61081949636E+00  0.12934701679E+02 -0.29885422245E+00  0.12952564306E+02  0.51100000000E-03 0.  1.
        -12    1    4    4    0    0 -0.12186868597E+02 -0.15549350277E+02 -0.20288812211E+02  0.28318509162E+02  0.00000000000E+00 0.  1.
</event>
<event>
 8    1  0.1212194E-006  0.9118800E+02  0.7816164E-02  0.1184000E+00
        -11   -1    0    0    0    0  0.00000000000E+00  0.00000000000E+00  0.45593999997E+02  0.45594000000E+02  0.51100000000E-03 0. -1.
         11   -1    0    0    0    0 -0.00000000000E+00 -0.00000000000E+00 -0.45593999997E+02  0.45594000000E+02  0.51100000000E-03 0.  1.
         23    2    1    2    0    0  0.00000000000E+00  0.00000000000E+00  0.00000000000E+00  0.91188000000E+02  0.91188000000E+02 0.  0.
    9900012    2    3    3    0    0  0.31098387089E+02  0.85040593642E+01  0.17786239163E+02  0.54367095492E+02  0.40000025793E+02 0.  0.
        -12    1    3    3    0    0 -0.31098387089E+02 -0.85040593642E+01 -0.17786239163E+02  0.36820904508E+02  0.00000000000E+00 0.  1.
         11    1    4    4    0    0  0.13842951097E+01 -0.83462000459E+01 -0.28660586926E+01  0.89325036159E+01  0.51100000000E-03 0. -1.
        -11    1    4    4    0    0 -0.21073708924E+01  0.15377742916E+01 -0.21653012210E+01  0.33903232130E+01  0.51100000000E-03 0.  1.
         12    1    4    4    0    0  0.31821462872E+02  0.15312485119E+02  0.22817599076E+02  0.42044268663E+02  0.00000000000E+00 0. -1.
</event>
<event>
 8    1  0.1212194E-006  0.9118800E+02  0.7816164E-02  0.1184000E+00
        -11   -1    0    0    0    0  0.00000000000E+00  0.00000000000E+00  0.45593999997E+02  0.45594000000E+02  0.51100000000E-03 0.  1.
         11   -1    0    0    0    0 -0.00000000000E+00 -0.00000000000E+00 -0.45593999997E+02  0.45594000000E+02  0.51100000000E-03 0. -1.
         23    2    1    2    0    0 -0.35527136788E-14 -0.35527136788E-14  0.88817841970E-15  0.91188000000E+02  0.91188000000E+02 0.  0.
    9900012    2    3    3    0    0  0.29029384263E+02  0.21475796889E+02 -0.72017321312E+01  0.54367082733E+02  0.39999996707E+02 0.  0.
        -12    1    3    3    0    0 -0.29029384263E+02 -0.21475796889E+02  0.72017321312E+01  0.36820917267E+02  0.00000000000E+00 0.  1.
         11    1    4    4    0    0  0.16249939213E+02  0.86720271682E+01 -0.11494421250E+02  0.21711432467E+02  0.51100000000E-03 0. -1.
        -11    1    4    4    0    0  0.12867301707E+02 -0.12814010543E+01  0.11072181802E+02  0.17023591043E+02  0.51100000000E-03 0.  1.
        -12    1    4    4    0    0 -0.87856656901E-01  0.14085170775E+02 -0.67794926823E+01  0.15632059224E+02  0.00000000000E+00 0.  1.
</event>
<event>
 8    1  0.1212194E-006  0.9118800E+02  0.7816164E-02  0.1184000E+00
        -11   -1    0    0    0    0  0.00000000000E+00  0.00000000000E+00  0.45593999997E+02  0.45594000000E+02  0.51100000000E-03 0.  1.
         11   -1    0    0    0    0 -0.00000000000E+00 -0.00000000000E+00 -0.45593999997E+02  0.45594000000E+02  0.51100000000E-03 0. -1.
         23    2    1    2    0    0 -0.35527136788E-14  0.88817841970E-15 -0.35527136788E-14  0.91188000000E+02  0.91188000000E+02 0.  0.
    9900012    2    3    3    0    0 -0.20955453620E+02  0.73493245761E+01  0.29370682379E+02  0.54367073999E+02  0.39999976796E+02 0.  0.
         12    1    3    3    0    0  0.20955453620E+02 -0.73493245761E+01 -0.29370682379E+02  0.36820926001E+02  0.00000000000E+00 0. -1.
         11    1    4    4    0    0  0.27242288922E+01 -0.76330004637E+01  0.12287083120E+02  0.14719257148E+02  0.51100000000E-03 0. -1.
        -11    1    4    4    0    0 -0.69608820741E+01  0.24309123453E+00 -0.47632288723E+01  0.84380875884E+01  0.51100000000E-03 0.  1.
        -12    1    4    4    0    0 -0.16718800438E+02  0.14739233805E+02  0.21846828132E+02  0.31209729263E+02  0.00000000000E+00 0.  1.
</event>
<event>
 8    1  0.1212194E-006  0.9118800E+02  0.7816164E-02  0.1184000E+00
        -11   -1    0    0    0    0  0.00000000000E+00  0.00000000000E+00  0.45593999997E+02  0.45594000000E+02  0.51100000000E-03 0. -1.
         11   -1    0    0    0    0 -0.00000000000E+00 -0.00000000000E+00 -0.45593999997E+02  0.45594000000E+02  0.51100000000E-03 0.  1.
         23    2    1    2    0    0 -0.35527136788E-14  0.88817841970E-15 -0.35527136788E-14  0.91188000000E+02  0.91188000000E+02 0.  0.
    9900012    2    3    3    0    0 -0.25405842710E+02 -0.72781621198E+01 -0.25638866681E+02  0.54367082408E+02  0.39999995965E+02 0.  0.
         12    1    3    3    0    0  0.25405842710E+02  0.72781621198E+01  0.25638866681E+02  0.36820917592E+02  0.00000000000E+00 0. -1.
         11    1    4    4    0    0 -0.73726197539E+01  0.54227151942E+00 -0.27530319358E+02  0.28505579536E+02  0.51100000000E-03 0. -1.
        -11    1    4    4    0    0 -0.15170406478E+02  0.19744972715E+01 -0.76238339318E+00  0.15317346404E+02  0.51100000000E-03 0.  1.
         12    1    4    4    0    0 -0.28628164780E+01 -0.97949309107E+01  0.26538360701E+01  0.10544156468E+02  0.00000000000E+00 0. -1.
</event>
<event>
 8    1  0.1212194E-006  0.9118800E+02  0.7816164E-02  0.1184000E+00
        -11   -1    0    0    0    0  0.00000000000E+00  0.00000000000E+00  0.45593999997E+02  0.45594000000E+02  0.51100000000E-03 0.  1.
         11   -1    0    0    0    0 -0.00000000000E+00 -0.00000000000E+00 -0.45593999997E+02  0.45594000000E+02  0.51100000000E-03 0. -1.
         23    2    1    2    0    0 -0.44408920985E-15  0.00000000000E+00 -0.88817841970E-15  0.91188000000E+02  0.91188000000E+02 0.  0.
    9900012    2    3    3    0    0 -0.39432682191E+01 -0.36555478499E+02 -0.19816201941E+01  0.54367093016E+02  0.40000020148E+02 0.  0.
        -12    1    3    3    0    0  0.39432682191E+01  0.36555478499E+02  0.19816201941E+01  0.36820906984E+02  0.00000000000E+00 0.  1.
         11    1    4    4    0    0 -0.41075695946E+01 -0.20622526988E+02 -0.80516075043E+01  0.22516419143E+02  0.51100000000E-03 0. -1.
        -11    1    4    4    0    0  0.18809941265E+01 -0.21403265642E+02  0.11135667788E+02  0.24200021000E+02  0.51100000000E-03 0.  1.
         12    1    4    4    0    0 -0.17166927510E+01  0.54703141306E+01 -0.50656804777E+01  0.76506528735E+01  0.00000000000E+00 0. -1.
</event>
<event>
 8    1  0.1212194E-006  0.9118800E+02  0.7816164E-02  0.1184000E+00
        -11   -1    0    0    0    0  0.00000000000E+00  0.00000000000E+00  0.45593999997E+02  0.45594000000E+02  0.51100000000E-03 0. -1.
         11   -1    0    0    0    0 -0.00000000000E+00 -0.00000000000E+00 -0.45593999997E+02  0.45594000000E+02  0.51100000000E-03 0.  1.
         23    2    1    2    0    0 -0.71054273576E-14  0.00000000000E+00  0.00000000000E+00  0.91188000000E+02  0.91188000000E+02 0.  0.
    9900012    2    3    3    0    0 -0.35008116832E+02 -0.46429739579E+01  0.10423742910E+02  0.54367083831E+02  0.39999999210E+02 0.  0.
        -12    1    3    3    0    0  0.35008116832E+02  0.46429739579E+01 -0.10423742910E+02  0.36820916169E+02  0.00000000000E+00 0.  1.
         11    1    4    4    0    0 -0.12775489969E+02  0.42328131339E+01  0.86270623043E+00  0.13486071084E+02  0.51100000000E-03 0. -1.
        -11    1    4    4    0    0  0.29347027199E+01 -0.10030422378E+02 -0.52087247822E+01  0.11677014484E+02  0.51100000000E-03 0.  1.
         12    1    4    4    0    0 -0.25167329583E+02  0.11546352862E+01  0.14769761461E+02  0.29203998264E+02  0.00000000000E+00 0. -1.
</event>
<event>
 8    1  0.1212194E-006  0.9118800E+02  0.7816164E-02  0.1184000E+00
        -11   -1    0    0    0    0  0.00000000000E+00  0.00000000000E+00  0.45593999997E+02  0.45594000000E+02  0.51100000000E-03 0. -1.
         11   -1    0    0    0    0 -0.00000000000E+00 -0.00000000000E+00 -0.45593999997E+02  0.45594000000E+02  0.51100000000E-03 0.  1.
         23    2    1    2    0    0  0.00000000000E+00 -0.66613381478E-15  0.00000000000E+00  0.91188000000E+02  0.91188000000E+02 0.  0.
    9900012    2    3    3    0    0  0.56850306588E+01 -0.14386417637E+01  0.36350939769E+02  0.54367080867E+02  0.39999992452E+02 0.  0.
        -12    1    3    3    0    0 -0.56850306588E+01  0.14386417637E+01 -0.36350939769E+02  0.36820919133E+02  0.00000000000E+00 0.  1.
         11    1    4    4    0    0  0.56910007456E+01  0.17109547701E+01 -0.28402978954E+01  0.65865125907E+01  0.51100000000E-03 0. -1.
        -11    1    4    4    0    0  0.34916971771E+01 -0.61962041054E+01 -0.11229498243E+01  0.72004104787E+01  0.51100000000E-03 0.  1.
         12    1    4    4    0    0 -0.34976672639E+01  0.30466075716E+01  0.40314187489E+02  0.40580157797E+02  0.00000000000E+00 0. -1.
</event>
<event>
 8    1  0.1212194E-006  0.9118800E+02  0.7816164E-02  0.1184000E+00
        -11   -1    0    0    0    0  0.00000000000E+00  0.00000000000E+00  0.45593999997E+02  0.45594000000E+02  0.51100000000E-03 0.  1.
         11   -1    0    0    0    0 -0.00000000000E+00 -0.00000000000E+00 -0.45593999997E+02  0.45594000000E+02  0.51100000000E-03 0. -1.
         23    2    1    2    0    0  0.00000000000E+00  0.00000000000E+00 -0.17763568394E-14  0.91188000000E+02  0.91188000000E+02 0.  0.
    9900012    2    3    3    0    0 -0.24498674056E+02 -0.24240692386E+02  0.12960751782E+02  0.54367118905E+02  0.40000079169E+02 0.  0.
        -12    1    3    3    0    0  0.24498674056E+02  0.24240692386E+02 -0.12960751782E+02  0.36820881095E+02  0.00000000000E+00 0.  1.
         11    1    4    4    0    0 -0.87126709156E+01 -0.41921339749E+01 -0.73789165084E+01  0.12162772334E+02  0.51100000000E-03 0. -1.
        -11    1    4    4    0    0 -0.82427502571E+01  0.16449313830E+01  0.17040945375E+02  0.19001119719E+02  0.51100000000E-03 0.  1.
        -12    1    4    4    0    0 -0.75432528829E+01 -0.21693489794E+02  0.32987229157E+01  0.23203226852E+02  0.00000000000E+00 0.  1.
</event>
<event>
 8    1  0.1212194E-006  0.9118800E+02  0.7816164E-02  0.1184000E+00
        -11   -1    0    0    0    0  0.00000000000E+00  0.00000000000E+00  0.45593999997E+02  0.45594000000E+02  0.51100000000E-03 0.  1.
         11   -1    0    0    0    0 -0.00000000000E+00 -0.00000000000E+00 -0.45593999997E+02  0.45594000000E+02  0.51100000000E-03 0. -1.
         23    2    1    2    0    0  0.44408920985E-15  0.35527136788E-14  0.35527136788E-14  0.91188000000E+02  0.91188000000E+02 0.  0.
    9900012    2    3    3    0    0 -0.15414233765E+01 -0.18218096041E+02  0.31961001848E+02  0.54367073226E+02  0.39999975032E+02 0.  0.
         12    1    3    3    0    0  0.15414233765E+01  0.18218096041E+02 -0.31961001848E+02  0.36820926774E+02  0.00000000000E+00 0. -1.
         11    1    4    4    0    0  0.90968488825E+00 -0.24475295154E+02  0.16957215607E+02  0.29789507563E+02  0.51100000000E-03 0. -1.
        -11    1    4    4    0    0 -0.90392609829E+01 -0.83375822565E+00  0.10564921975E+02  0.13929140982E+02  0.51100000000E-03 0.  1.
        -12    1    4    4    0    0  0.65881527181E+01  0.70909573379E+01  0.44388642663E+01  0.10648424681E+02  0.00000000000E+00 0.  1.
</event>
<event>
 8    1  0.1212194E-006  0.9118800E+02  0.7816164E-02  0.1184000E+00
        -11   -1    0    0    0    0  0.00000000000E+00  0.00000000000E+00  0.45593999997E+02  0.45594000000E+02  0.51100000000E-03 0. -1.
         11   -1    0    0    0    0 -0.00000000000E+00 -0.00000000000E+00 -0.45593999997E+02  0.45594000000E+02  0.51100000000E-03 0.  1.
         23    2    1    2    0    0  0.00000000000E+00  0.17763568394E-14 -0.17763568394E-14  0.91188000000E+02  0.91188000000E+02 0.  0.
    9900012    2    3    3    0    0  0.30873718390E+02 -0.12237693096E+02 -0.15900700330E+02  0.54367083518E+02  0.39999998497E+02 0.  0.
         12    1    3    3    0    0 -0.30873718390E+02  0.12237693096E+02  0.15900700330E+02  0.36820916482E+02  0.00000000000E+00 0. -1.
         11    1    4    4    0    0  0.52270644951E+01 -0.17934842410E+02 -0.14135234082E+02  0.23426173788E+02  0.51100000000E-03 0.  1.
        -11    1    4    4    0    0  0.21336975123E+02  0.66981819547E+01 -0.75989214905E+01  0.23619393663E+02  0.51100000000E-03 0. -1.
        -12    1    4    4    0    0  0.43096787720E+01 -0.10010326402E+01  0.58334552423E+01  0.73215160677E+01  0.00000000000E+00 0.  1.
</event>
<event>
 8    1  0.1212194E-006  0.9118800E+02  0.7816164E-02  0.1184000E+00
        -11   -1    0    0    0    0  0.00000000000E+00  0.00000000000E+00  0.45593999997E+02  0.45594000000E+02  0.51100000000E-03 0.  1.
         11   -1    0    0    0    0 -0.00000000000E+00 -0.00000000000E+00 -0.45593999997E+02  0.45594000000E+02  0.51100000000E-03 0. -1.
         23    2    1    2    0    0  0.00000000000E+00 -0.35527136788E-14  0.00000000000E+00  0.91188000000E+02  0.91188000000E+02 0.  0.
    9900012    2    3    3    0    0 -0.17340260598E+02 -0.19398975594E+02 -0.26053200181E+02  0.54367161724E+02  0.40000176781E+02 0.  0.
        -12    1    3    3    0    0  0.17340260598E+02  0.19398975594E+02  0.26053200181E+02  0.36820838276E+02  0.00000000000E+00 0.  1.
         11    1    4    4    0    0 -0.63158635546E+01 -0.23997648840E+02 -0.72005697061E+01  0.25838449773E+02  0.51100000000E-03 0. -1.
        -11    1    4    4    0    0 -0.72252427057E+01 -0.46209962858E+01 -0.17831705690E+01  0.87599906603E+01  0.51100000000E-03 0.  1.
        -12    1    4    4    0    0 -0.37991543381E+01  0.92196695326E+01 -0.17069459906E+02  0.19768721291E+02  0.00000000000E+00 0.  1.
</event>
<event>
 8    1  0.1212194E-006  0.9118800E+02  0.7816164E-02  0.1184000E+00
        -11   -1    0    0    0    0  0.00000000000E+00  0.00000000000E+00  0.45593999997E+02  0.45594000000E+02  0.51100000000E-03 0.  1.
         11   -1    0    0    0    0 -0.00000000000E+00 -0.00000000000E+00 -0.45593999997E+02  0.45594000000E+02  0.51100000000E-03 0. -1.
         23    2    1    2    0    0  0.00000000000E+00 -0.35527136788E-14  0.00000000000E+00  0.91188000000E+02  0.91188000000E+02 0.  0.
    9900012    2    3    3    0    0  0.18612878700E+02 -0.24485389134E+02 -0.20243703136E+02  0.54367067758E+02  0.39999962567E+02 0.  0.
        -12    1    3    3    0    0 -0.18612878700E+02  0.24485389134E+02  0.20243703136E+02  0.36820932242E+02  0.00000000000E+00 0.  1.
         11    1    4    4    0    0  0.96392404329E+01 -0.57586801649E+01 -0.10147513139E+02  0.15134377309E+02  0.51100000000E-03 0. -1.
        -11    1    4    4    0    0 -0.60517467358E+01 -0.20334469787E+02 -0.28869417041E+00  0.21217861453E+02  0.51100000000E-03 0.  1.
        -12    1    4    4    0    0  0.15025385003E+02  0.16077608179E+01 -0.98074958264E+01  0.18014828995E+02  0.00000000000E+00 0.  1.
</event>
<event>
 8    1  0.1212194E-006  0.9118800E+02  0.7816164E-02  0.1184000E+00
        -11   -1    0    0    0    0  0.00000000000E+00  0.00000000000E+00  0.45593999997E+02  0.45594000000E+02  0.51100000000E-03 0.  1.
         11   -1    0    0    0    0 -0.00000000000E+00 -0.00000000000E+00 -0.45593999997E+02  0.45594000000E+02  0.51100000000E-03 0. -1.
         23    2    1    2    0    0  0.00000000000E+00 -0.88817841970E-15  0.00000000000E+00  0.91188000000E+02  0.91188000000E+02 0.  0.
    9900012    2    3    3    0    0 -0.24989655808E+02  0.60772707566E+01 -0.26350913719E+02  0.54366990086E+02  0.39999785499E+02 0.  0.
        -12    1    3    3    0    0  0.24989655808E+02 -0.60772707566E+01  0.26350913719E+02  0.36821009914E+02  0.00000000000E+00 0.  1.
         11    1    4    4    0    0 -0.56664730688E+01 -0.17085467510E+01 -0.15934371907E+02  0.16998007453E+02  0.51100000000E-03 0. -1.
        -11    1    4    4    0    0 -0.14539733668E+02  0.16313420258E+02 -0.15065497212E+02  0.26542432860E+02  0.51100000000E-03 0.  1.
        -12    1    4    4    0    0 -0.47834490707E+01 -0.85276027501E+01  0.46489553999E+01  0.10826549773E+02  0.00000000000E+00 0.  1.
</event>
<event>
 8    1  0.1212194E-006  0.9118800E+02  0.7816164E-02  0.1184000E+00
        -11   -1    0    0    0    0  0.00000000000E+00  0.00000000000E+00  0.45593999997E+02  0.45594000000E+02  0.51100000000E-03 0. -1.
         11   -1    0    0    0    0 -0.00000000000E+00 -0.00000000000E+00 -0.45593999997E+02  0.45594000000E+02  0.51100000000E-03 0.  1.
         23    2    1    2    0    0  0.00000000000E+00 -0.26645352591E-14  0.35527136788E-14  0.91188000000E+02  0.91188000000E+02 0.  0.
    9900012    2    3    3    0    0 -0.18725744978E+02  0.75272911153E+01 -0.30797183133E+02  0.54367080328E+02  0.39999991224E+02 0.  0.
         12    1    3    3    0    0  0.18725744978E+02 -0.75272911153E+01  0.30797183133E+02  0.36820919672E+02  0.00000000000E+00 0. -1.
         11    1    4    4    0    0 -0.87265029178E+01  0.20734806557E+02 -0.96450575252E+01  0.24476747967E+02  0.51100000000E-03 0. -1.
        -11    1    4    4    0    0 -0.95101973659E+01 -0.98694706394E+01 -0.22427283247E+02  0.26283708618E+02  0.51100000000E-03 0.  1.
        -12    1    4    4    0    0 -0.48904469476E+00 -0.33380448024E+01  0.12751576389E+01  0.36066237425E+01  0.00000000000E+00 0.  1.
</event>
<event>
 8    1  0.1212194E-006  0.9118800E+02  0.7816164E-02  0.1184000E+00
        -11   -1    0    0    0    0  0.00000000000E+00  0.00000000000E+00  0.45593999997E+02  0.45594000000E+02  0.51100000000E-03 0. -1.
         11   -1    0    0    0    0 -0.00000000000E+00 -0.00000000000E+00 -0.45593999997E+02  0.45594000000E+02  0.51100000000E-03 0.  1.
         23    2    1    2    0    0  0.35527136788E-14  0.17763568394E-14  0.35527136788E-14  0.91188000000E+02  0.91188000000E+02 0.  0.
    9900012    2    3    3    0    0 -0.26465745037E+02 -0.10084826230E+02 -0.23529565653E+02  0.54367084202E+02  0.40000000054E+02 0.  0.
         12    1    3    3    0    0  0.26465745037E+02  0.10084826230E+02  0.23529565653E+02  0.36820915798E+02  0.00000000000E+00 0. -1.
         11    1    4    4    0    0 -0.14982290916E+02  0.24028817880E+01 -0.55292198841E+01  0.16149772592E+02  0.51100000000E-03 0. -1.
        -11    1    4    4    0    0 -0.15421735782E+02 -0.19735723139E+02 -0.10830149367E+02  0.27287741532E+02  0.51100000000E-03 0.  1.
         12    1    4    4    0    0  0.39382816620E+01  0.72480151206E+01 -0.71701964013E+01  0.10929570077E+02  0.00000000000E+00 0. -1.
</event>
<event>
 8    1  0.1212194E-006  0.9118800E+02  0.7816164E-02  0.1184000E+00
        -11   -1    0    0    0    0  0.00000000000E+00  0.00000000000E+00  0.45593999997E+02  0.45594000000E+02  0.51100000000E-03 0.  1.
         11   -1    0    0    0    0 -0.00000000000E+00 -0.00000000000E+00 -0.45593999997E+02  0.45594000000E+02  0.51100000000E-03 0. -1.
         23    2    1    2    0    0 -0.35527136788E-14  0.00000000000E+00  0.00000000000E+00  0.91188000000E+02  0.91188000000E+02 0.  0.
    9900012    2    3    3    0    0 -0.30522643707E+02 -0.11512001139E+02 -0.17076955624E+02  0.54367077110E+02  0.39999983888E+02 0.  0.
        -12    1    3    3    0    0  0.30522643707E+02  0.11512001139E+02  0.17076955624E+02  0.36820922890E+02  0.00000000000E+00 0.  1.
         11    1    4    4    0    0 -0.11469880201E+02 -0.38905884218E+01 -0.87912076905E+01  0.14965966825E+02  0.51100000000E-03 0. -1.
        -11    1    4    4    0    0 -0.91237444102E+01  0.10309301545E+02  0.53648842459E+01  0.14775195215E+02  0.51100000000E-03 0.  1.
        -12    1    4    4    0    0 -0.99290190954E+01 -0.17930714262E+02 -0.13650632180E+02  0.24625915070E+02  0.00000000000E+00 0.  1.
</event>
<event>
 8    1  0.1212194E-006  0.9118800E+02  0.7816164E-02  0.1184000E+00
        -11   -1    0    0    0    0  0.00000000000E+00  0.00000000000E+00  0.45593999997E+02  0.45594000000E+02  0.51100000000E-03 0. -1.
         11   -1    0    0    0    0 -0.00000000000E+00 -0.00000000000E+00 -0.45593999997E+02  0.45594000000E+02  0.51100000000E-03 0.  1.
         23    2    1    2    0    0  0.00000000000E+00  0.00000000000E+00  0.71054273576E-14  0.91188000000E+02  0.91188000000E+02 0.  0.
    9900012    2    3    3    0    0  0.14003186566E+02 -0.72692605639E+01 -0.33269318032E+02  0.54367096895E+02  0.40000028991E+02 0.  0.
         12    1    3    3    0    0 -0.14003186566E+02  0.72692605639E+01  0.33269318032E+02  0.36820903105E+02  0.00000000000E+00 0. -1.
         11    1    4    4    0    0 -0.11055587418E+02 -0.11324477616E+02 -0.12416458647E+02  0.20115622089E+02  0.51100000000E-03 0.  1.
        -11    1    4    4    0    0  0.46112132539E+01  0.20448791213E+01 -0.95625609153E-01  0.50451920490E+01  0.51100000000E-03 0. -1.
        -12    1    4    4    0    0  0.20447560730E+02  0.20103379306E+01 -0.20757233777E+02  0.29206282757E+02  0.00000000000E+00 0.  1.
</event>
<event>
 8    1  0.1212194E-006  0.9118800E+02  0.7816164E-02  0.1184000E+00
        -11   -1    0    0    0    0  0.00000000000E+00  0.00000000000E+00  0.45593999997E+02  0.45594000000E+02  0.51100000000E-03 0. -1.
         11   -1    0    0    0    0 -0.00000000000E+00 -0.00000000000E+00 -0.45593999997E+02  0.45594000000E+02  0.51100000000E-03 0.  1.
         23    2    1    2    0    0  0.17763568394E-14  0.00000000000E+00  0.00000000000E+00  0.91188000000E+02  0.91188000000E+02 0.  0.
    9900012    2    3    3    0    0  0.97050791222E+01  0.29923591244E+02  0.19135550119E+02  0.54367093547E+02  0.40000021359E+02 0.  0.
        -12    1    3    3    0    0 -0.97050791222E+01 -0.29923591244E+02 -0.19135550119E+02  0.36820906453E+02  0.00000000000E+00 0.  1.
         11    1    4    4    0    0  0.92022330887E+01  0.47606559775E+01  0.15732577542E+02  0.18837699847E+02  0.51100000000E-03 0.  1.
        -11    1    4    4    0    0 -0.85977522439E+01  0.24696364038E+02  0.37078883718E+01  0.26411743160E+02  0.51100000000E-03 0. -1.
         12    1    4    4    0    0  0.91005982774E+01  0.46657122859E+00 -0.30491579493E+00  0.91176505394E+01  0.00000000000E+00 0. -1.
</event>
<event>
 8    1  0.1212194E-006  0.9118800E+02  0.7816164E-02  0.1184000E+00
        -11   -1    0    0    0    0  0.00000000000E+00  0.00000000000E+00  0.45593999997E+02  0.45594000000E+02  0.51100000000E-03 0.  1.
         11   -1    0    0    0    0 -0.00000000000E+00 -0.00000000000E+00 -0.45593999997E+02  0.45594000000E+02  0.51100000000E-03 0. -1.
         23    2    1    2    0    0 -0.35527136788E-14  0.17763568394E-14  0.35527136788E-14  0.91188000000E+02  0.91188000000E+02 0.  0.
    9900012    2    3    3    0    0 -0.18049802882E+02 -0.10365520510E+02 -0.30373351698E+02  0.54367083486E+02  0.39999998423E+02 0.  0.
        -12    1    3    3    0    0  0.18049802882E+02  0.10365520510E+02  0.30373351698E+02  0.36820916514E+02  0.00000000000E+00 0.  1.
         11    1    4    4    0    0 -0.46271003621E+01 -0.19706503413E+02 -0.25211842954E+02  0.32332543357E+02  0.51100000000E-03 0. -1.
        -11    1    4    4    0    0 -0.26134915159E+01 -0.36702765024E+01 -0.10341936065E+01  0.46228588756E+01  0.51100000000E-03 0.  1.
        -12    1    4    4    0    0 -0.10809211004E+02  0.13011259405E+02 -0.41273151379E+01  0.17411681254E+02  0.00000000000E+00 0.  1.
</event>
<event>
 8    1  0.1212194E-006  0.9118800E+02  0.7816164E-02  0.1184000E+00
        -11   -1    0    0    0    0  0.00000000000E+00  0.00000000000E+00  0.45593999997E+02  0.45594000000E+02  0.51100000000E-03 0. -1.
         11   -1    0    0    0    0 -0.00000000000E+00 -0.00000000000E+00 -0.45593999997E+02  0.45594000000E+02  0.51100000000E-03 0.  1.
         23    2    1    2    0    0  0.00000000000E+00 -0.35527136788E-14 -0.35527136788E-14  0.91188000000E+02  0.91188000000E+02 0.  0.
    9900012    2    3    3    0    0  0.65150623583E+01  0.22710342897E+02  0.28241371292E+02  0.54367071651E+02  0.39999971442E+02 0.  0.
        -12    1    3    3    0    0 -0.65150623583E+01 -0.22710342897E+02 -0.28241371292E+02  0.36820928349E+02  0.00000000000E+00 0.  1.
         11    1    4    4    0    0  0.53595482918E+01  0.22845710759E+02  0.13430384117E+02  0.27037501286E+02  0.51100000000E-03 0. -1.
        -11    1    4    4    0    0 -0.12742359284E+01  0.11185207693E+02  0.58382519900E+01  0.12681393255E+02  0.51100000000E-03 0.  1.
        -12    1    4    4    0    0  0.24297499949E+01 -0.11320575555E+02  0.89727351849E+01  0.14648177109E+02  0.00000000000E+00 0.  1.
</event>
<event>
 8    1  0.1212194E-006  0.9118800E+02  0.7816164E-02  0.1184000E+00
        -11   -1    0    0    0    0  0.00000000000E+00  0.00000000000E+00  0.45593999997E+02  0.45594000000E+02  0.51100000000E-03 0.  1.
         11   -1    0    0    0    0 -0.00000000000E+00 -0.00000000000E+00 -0.45593999997E+02  0.45594000000E+02  0.51100000000E-03 0. -1.
         23    2    1    2    0    0 -0.17763568394E-14  0.35527136788E-14  0.35527136788E-14  0.91188000000E+02  0.91188000000E+02 0.  0.
    9900012    2    3    3    0    0  0.96604173118E+01 -0.23773192670E+02 -0.26406279677E+02  0.54367082592E+02  0.39999996386E+02 0.  0.
        -12    1    3    3    0    0 -0.96604173118E+01  0.23773192670E+02  0.26406279677E+02  0.36820917408E+02  0.00000000000E+00 0.  1.
         11    1    4    4    0    0  0.31231754028E+01  0.51667309289E+01  0.26768034339E+01  0.66041358233E+01  0.51100000000E-03 0. -1.
        -11    1    4    4    0    0 -0.72451646531E+01 -0.21246039851E+01 -0.40060227287E+01  0.85471966929E+01  0.51100000000E-03 0.  1.
         12    1    4    4    0    0  0.13782406562E+02 -0.26815319614E+02 -0.25077060382E+02  0.39215750076E+02  0.00000000000E+00 0. -1.
</event>
<event>
 8    1  0.1212194E-006  0.9118800E+02  0.7816164E-02  0.1184000E+00
        -11   -1    0    0    0    0  0.00000000000E+00  0.00000000000E+00  0.45593999997E+02  0.45594000000E+02  0.51100000000E-03 0. -1.
         11   -1    0    0    0    0 -0.00000000000E+00 -0.00000000000E+00 -0.45593999997E+02  0.45594000000E+02  0.51100000000E-03 0.  1.
         23    2    1    2    0    0  0.00000000000E+00  0.14210854715E-13  0.00000000000E+00  0.91188000000E+02  0.91188000000E+02 0.  0.
    9900012    2    3    3    0    0  0.17119705658E+01  0.32962388695E+02  0.16319627636E+02  0.54367079888E+02  0.39999990221E+02 0.  0.
        -12    1    3    3    0    0 -0.17119705658E+01 -0.32962388695E+02 -0.16319627636E+02  0.36820920112E+02  0.00000000000E+00 0.  1.
         11    1    4    4    0    0  0.60148316802E+01  0.62540075022E+00 -0.40994143589E+01  0.73057870614E+01  0.51100000000E-03 0. -1.
        -11    1    4    4    0    0  0.50311174571E+00 -0.48335703704E+01  0.31734160158E+01  0.58040583581E+01  0.51100000000E-03 0.  1.
         12    1    4    4    0    0 -0.48059728601E+01  0.37170558315E+02  0.17245625979E+02  0.41257234469E+02  0.00000000000E+00 0. -1.
</event>
<event>
 8    1  0.1212194E-006  0.9118800E+02  0.7816164E-02  0.1184000E+00
        -11   -1    0    0    0    0  0.00000000000E+00  0.00000000000E+00  0.45593999997E+02  0.45594000000E+02  0.51100000000E-03 0. -1.
         11   -1    0    0    0    0 -0.00000000000E+00 -0.00000000000E+00 -0.45593999997E+02  0.45594000000E+02  0.51100000000E-03 0.  1.
         23    2    1    2    0    0  0.17763568394E-14  0.00000000000E+00  0.00000000000E+00  0.91188000000E+02  0.91188000000E+02 0.  0.
    9900012    2    3    3    0    0  0.83482979950E+01 -0.23926623490E+02  0.26713210444E+02  0.54367177043E+02  0.40000211704E+02 0.  0.
        -12    1    3    3    0    0 -0.83482979950E+01  0.23926623490E+02 -0.26713210444E+02  0.36820822957E+02  0.00000000000E+00 0.  1.
         11    1    4    4    0    0 -0.96469768468E+00 -0.25359517483E+02  0.44549657955E+01  0.25765917199E+02  0.51100000000E-03 0. -1.
        -11    1    4    4    0    0  0.54154210921E+01  0.81987940822E+01  0.15056008955E+02  0.17978609955E+02  0.51100000000E-03 0.  1.
         12    1    4    4    0    0  0.38975745876E+01 -0.67659000888E+01  0.72022356929E+01  0.10622649889E+02  0.00000000000E+00 0. -1.
</event>
<event>
 8    1  0.1212194E-006  0.9118800E+02  0.7816164E-02  0.1184000E+00
        -11   -1    0    0    0    0  0.00000000000E+00  0.00000000000E+00  0.45593999997E+02  0.45594000000E+02  0.51100000000E-03 0.  1.
         11   -1    0    0    0    0 -0.00000000000E+00 -0.00000000000E+00 -0.45593999997E+02  0.45594000000E+02  0.51100000000E-03 0. -1.
         23    2    1    2    0    0  0.00000000000E+00  0.35527136788E-14  0.35527136788E-14  0.91188000000E+02  0.91188000000E+02 0.  0.
    9900012    2    3    3    0    0  0.21290382930E+02 -0.25161423583E+02 -0.16413464252E+02  0.54367089490E+02  0.40000012110E+02 0.  0.
        -12    1    3    3    0    0 -0.21290382930E+02  0.25161423583E+02  0.16413464252E+02  0.36820910510E+02  0.00000000000E+00 0.  1.
         11    1    4    4    0    0  0.30406652267E+01 -0.38133684853E+01 -0.12715009352E+02  0.13618329094E+02  0.51100000000E-03 0. -1.
        -11    1    4    4    0    0 -0.61465907793E+01 -0.13684042772E+02 -0.98560904476E+00  0.15033463681E+02  0.51100000000E-03 0.  1.
        -12    1    4    4    0    0  0.24396308483E+02 -0.76640123254E+01 -0.27128458553E+01  0.25715296715E+02  0.00000000000E+00 0.  1.
</event>
<event>
 8    1  0.1212194E-006  0.9118800E+02  0.7816164E-02  0.1184000E+00
        -11   -1    0    0    0    0  0.00000000000E+00  0.00000000000E+00  0.45593999997E+02  0.45594000000E+02  0.51100000000E-03 0. -1.
         11   -1    0    0    0    0 -0.00000000000E+00 -0.00000000000E+00 -0.45593999997E+02  0.45594000000E+02  0.51100000000E-03 0.  1.
         23    2    1    2    0    0  0.00000000000E+00  0.00000000000E+00  0.35527136788E-14  0.91188000000E+02  0.91188000000E+02 0.  0.
    9900012    2    3    3    0    0 -0.21041931190E+02  0.55552147305E+01 -0.29701115690E+02  0.54367088114E+02  0.40000008973E+02 0.  0.
         12    1    3    3    0    0  0.21041931190E+02 -0.55552147305E+01  0.29701115690E+02  0.36820911886E+02  0.00000000000E+00 0. -1.
         11    1    4    4    0    0 -0.70376461321E+00  0.62358382464E+01 -0.38042673973E+01  0.73384885336E+01  0.51100000000E-03 0. -1.
        -11    1    4    4    0    0  0.68172498760E+01 -0.43071643632E+00 -0.17210685675E+02  0.18516698253E+02  0.51100000000E-03 0.  1.
         12    1    4    4    0    0 -0.27155416453E+02 -0.24990707956E+00 -0.86861626175E+01  0.28511901327E+02  0.00000000000E+00 0. -1.
</event>
<event>
 8    1  0.1212194E-006  0.9118800E+02  0.7816164E-02  0.1184000E+00
        -11   -1    0    0    0    0  0.00000000000E+00  0.00000000000E+00  0.45593999997E+02  0.45594000000E+02  0.51100000000E-03 0. -1.
         11   -1    0    0    0    0 -0.00000000000E+00 -0.00000000000E+00 -0.45593999997E+02  0.45594000000E+02  0.51100000000E-03 0.  1.
         23    2    1    2    0    0  0.17763568394E-14 -0.17763568394E-14  0.71054273576E-14  0.91188000000E+02  0.91188000000E+02 0.  0.
    9900012    2    3    3    0    0 -0.21243992169E+01 -0.10678588239E+02 -0.35174377207E+02  0.54367053099E+02  0.39999929150E+02 0.  0.
         12    1    3    3    0    0  0.21243992169E+01  0.10678588239E+02  0.35174377207E+02  0.36820946901E+02  0.00000000000E+00 0. -1.
         11    1    4    4    0    0 -0.56362578363E+01 -0.43892769033E+01  0.19005809486E+01  0.73922501537E+01  0.51100000000E-03 0. -1.
        -11    1    4    4    0    0 -0.10960282602E+02  0.13879136345E+01 -0.22419609132E+02  0.24993858703E+02  0.51100000000E-03 0.  1.
        -12    1    4    4    0    0  0.14472141222E+02 -0.76772249698E+01 -0.14655349023E+02  0.21980944242E+02  0.00000000000E+00 0.  1.
</event>
<event>
 8    1  0.1212194E-006  0.9118800E+02  0.7816164E-02  0.1184000E+00
        -11   -1    0    0    0    0  0.00000000000E+00  0.00000000000E+00  0.45593999997E+02  0.45594000000E+02  0.51100000000E-03 0.  1.
         11   -1    0    0    0    0 -0.00000000000E+00 -0.00000000000E+00 -0.45593999997E+02  0.45594000000E+02  0.51100000000E-03 0. -1.
         23    2    1    2    0    0  0.00000000000E+00 -0.17763568394E-14  0.17763568394E-14  0.91188000000E+02  0.91188000000E+02 0.  0.
    9900012    2    3    3    0    0  0.32870133744E+02  0.11027662032E+02  0.12398525758E+02  0.54367102901E+02  0.40000042683E+02 0.  0.
         12    1    3    3    0    0 -0.32870133744E+02 -0.11027662032E+02 -0.12398525758E+02  0.36820897099E+02  0.00000000000E+00 0. -1.
         11    1    4    4    0    0  0.29292938950E+02 -0.23795310455E+01  0.14358454262E+01  0.29424481179E+02  0.51100000000E-03 0.  1.
        -11    1    4    4    0    0 -0.48518160029E+01  0.31151972443E+01 -0.22534899071E+01  0.61905403172E+01  0.51100000000E-03 0. -1.
        -12    1    4    4    0    0  0.84290107969E+01  0.10291995833E+02  0.13216170238E+02  0.18752081405E+02  0.00000000000E+00 0.  1.
</event>
<event>
 8    1  0.1212194E-006  0.9118800E+02  0.7816164E-02  0.1184000E+00
        -11   -1    0    0    0    0  0.00000000000E+00  0.00000000000E+00  0.45593999997E+02  0.45594000000E+02  0.51100000000E-03 0.  1.
         11   -1    0    0    0    0 -0.00000000000E+00 -0.00000000000E+00 -0.45593999997E+02  0.45594000000E+02  0.51100000000E-03 0. -1.
         23    2    1    2    0    0  0.71054273576E-14  0.17763568394E-14  0.17763568394E-14  0.91188000000E+02  0.91188000000E+02 0.  0.
    9900012    2    3    3    0    0  0.34236727498E+02  0.10545189156E+02 -0.85101269335E+01  0.54367125696E+02  0.40000094648E+02 0.  0.
        -12    1    3    3    0    0 -0.34236727498E+02 -0.10545189156E+02  0.85101269335E+01  0.36820874304E+02  0.00000000000E+00 0.  1.
         11    1    4    4    0    0 -0.28607029222E+01 -0.16549077086E+01 -0.74627211814E+01  0.81617736079E+01  0.51100000000E-03 0. -1.
        -11    1    4    4    0    0  0.32362108733E+02  0.89684534600E+01 -0.10469671843E+02  0.35176032577E+02  0.51100000000E-03 0.  1.
         12    1    4    4    0    0  0.47353216869E+01  0.32316434051E+01  0.94222660907E+01  0.11029319510E+02  0.00000000000E+00 0. -1.
</event>
<event>
 8    1  0.1212194E-006  0.9118800E+02  0.7816164E-02  0.1184000E+00
        -11   -1    0    0    0    0  0.00000000000E+00  0.00000000000E+00  0.45593999997E+02  0.45594000000E+02  0.51100000000E-03 0. -1.
         11   -1    0    0    0    0 -0.00000000000E+00 -0.00000000000E+00 -0.45593999997E+02  0.45594000000E+02  0.51100000000E-03 0.  1.
         23    2    1    2    0    0  0.00000000000E+00 -0.44408920985E-15  0.35527136788E-14  0.91188000000E+02  0.91188000000E+02 0.  0.
    9900012    2    3    3    0    0 -0.33096055000E+02 -0.27971193906E+01  0.15893596078E+02  0.54367093850E+02  0.40000022049E+02 0.  0.
        -12    1    3    3    0    0  0.33096055000E+02  0.27971193906E+01 -0.15893596078E+02  0.36820906150E+02  0.00000000000E+00 0.  1.
         11    1    4    4    0    0 -0.10010068397E+02  0.37977496646E+01  0.20261427374E+02  0.22916147393E+02  0.51100000000E-03 0. -1.
        -11    1    4    4    0    0 -0.11817285940E+02 -0.10538977166E+02  0.46344003302E+01  0.16498362142E+02  0.51100000000E-03 0.  1.
        -12    1    4    4    0    0 -0.11268700663E+02  0.39441081107E+01 -0.90022316267E+01  0.14952584315E+02  0.00000000000E+00 0.  1.
</event>
<event>
 8    1  0.1212194E-006  0.9118800E+02  0.7816164E-02  0.1184000E+00
        -11   -1    0    0    0    0  0.00000000000E+00  0.00000000000E+00  0.45593999997E+02  0.45594000000E+02  0.51100000000E-03 0.  1.
         11   -1    0    0    0    0 -0.00000000000E+00 -0.00000000000E+00 -0.45593999997E+02  0.45594000000E+02  0.51100000000E-03 0. -1.
         23    2    1    2    0    0  0.00000000000E+00  0.17763568394E-14 -0.35527136788E-14  0.91188000000E+02  0.91188000000E+02 0.  0.
    9900012    2    3    3    0    0 -0.16872268943E+02  0.99795562337E+01 -0.31169127022E+02  0.54367089076E+02  0.40000011167E+02 0.  0.
        -12    1    3    3    0    0  0.16872268943E+02 -0.99795562337E+01  0.31169127022E+02  0.36820910924E+02  0.00000000000E+00 0.  1.
         11    1    4    4    0    0 -0.13221275005E+02  0.15369874328E+02 -0.19123263798E+02  0.27869954578E+02  0.51100000000E-03 0. -1.
        -11    1    4    4    0    0  0.56879757017E+01 -0.11041133531E+02 -0.83788154155E+01  0.14982130865E+02  0.51100000000E-03 0.  1.
        -12    1    4    4    0    0 -0.93389696402E+01  0.56508154367E+01 -0.36670478089E+01  0.11515003633E+02  0.00000000000E+00 0.  1.
</event>
<event>
 8    1  0.1212194E-006  0.9118800E+02  0.7816164E-02  0.1184000E+00
        -11   -1    0    0    0    0  0.00000000000E+00  0.00000000000E+00  0.45593999997E+02  0.45594000000E+02  0.51100000000E-03 0.  1.
         11   -1    0    0    0    0 -0.00000000000E+00 -0.00000000000E+00 -0.45593999997E+02  0.45594000000E+02  0.51100000000E-03 0. -1.
         23    2    1    2    0    0 -0.17763568394E-14  0.00000000000E+00  0.00000000000E+00  0.91188000000E+02  0.91188000000E+02 0.  0.
    9900012    2    3    3    0    0 -0.57002837872E+01  0.63733802528E+01  0.35814378716E+02  0.54367042192E+02  0.39999904285E+02 0.  0.
         12    1    3    3    0    0  0.57002837872E+01 -0.63733802528E+01 -0.35814378716E+02  0.36820957808E+02  0.00000000000E+00 0. -1.
         11    1    4    4    0    0 -0.19760634717E+02  0.82200532748E+00  0.18807969026E+02  0.27292820967E+02  0.51100000000E-03 0.  1.
        -11    1    4    4    0    0  0.94729829869E+00 -0.30349233960E+01 -0.87312198677E+00  0.32970405444E+01  0.51100000000E-03 0. -1.
        -12    1    4    4    0    0  0.13113052631E+02  0.85862983213E+01  0.17879531677E+02  0.23777180681E+02  0.00000000000E+00 0.  1.
</event>
<event>
 8    1  0.1212194E-006  0.9118800E+02  0.7816164E-02  0.1184000E+00
        -11   -1    0    0    0    0  0.00000000000E+00  0.00000000000E+00  0.45593999997E+02  0.45594000000E+02  0.51100000000E-03 0. -1.
         11   -1    0    0    0    0 -0.00000000000E+00 -0.00000000000E+00 -0.45593999997E+02  0.45594000000E+02  0.51100000000E-03 0.  1.
         23    2    1    2    0    0  0.00000000000E+00  0.00000000000E+00  0.17763568394E-14  0.91188000000E+02  0.91188000000E+02 0.  0.
    9900012    2    3    3    0    0 -0.43918018294E+01  0.35088356818E+02 -0.10261587135E+02  0.54367070109E+02  0.39999967928E+02 0.  0.
         12    1    3    3    0    0  0.43918018294E+01 -0.35088356818E+02  0.10261587135E+02  0.36820929891E+02  0.00000000000E+00 0. -1.
         11    1    4    4    0    0 -0.32340586061E+01  0.11605617751E+02  0.90327189721E+01  0.15057872052E+02  0.51100000000E-03 0. -1.
        -11    1    4    4    0    0 -0.23990688052E+00 -0.41648904300E+01 -0.87705583827E+01  0.97121862735E+01  0.51100000000E-03 0.  1.
         12    1    4    4    0    0 -0.91783634277E+00  0.27647629497E+02 -0.10523747725E+02  0.29597011784E+02  0.00000000000E+00 0. -1.
</event>
<event>
 8    1  0.1212194E-006  0.9118800E+02  0.7816164E-02  0.1184000E+00
        -11   -1    0    0    0    0  0.00000000000E+00  0.00000000000E+00  0.45593999997E+02  0.45594000000E+02  0.51100000000E-03 0.  1.
         11   -1    0    0    0    0 -0.00000000000E+00 -0.00000000000E+00 -0.45593999997E+02  0.45594000000E+02  0.51100000000E-03 0. -1.
         23    2    1    2    0    0  0.00000000000E+00  0.88817841970E-15  0.00000000000E+00  0.91188000000E+02  0.91188000000E+02 0.  0.
    9900012    2    3    3    0    0  0.13360164202E+02 -0.64277163369E+01  0.33704161238E+02  0.54367081902E+02  0.39999994813E+02 0.  0.
         12    1    3    3    0    0 -0.13360164202E+02  0.64277163369E+01 -0.33704161238E+02  0.36820918098E+02  0.00000000000E+00 0. -1.
         11    1    4    4    0    0 -0.72193640034E+01 -0.12343482059E+01  0.18335411825E+01  0.75501460672E+01  0.51100000000E-03 0. -1.
        -11    1    4    4    0    0 -0.33498902759E+01 -0.94163622933E+01  0.91757191336E+01  0.13567736199E+02  0.51100000000E-03 0.  1.
        -12    1    4    4    0    0  0.23929418482E+02  0.42229941624E+01  0.22694900922E+02  0.33249199636E+02  0.00000000000E+00 0.  1.
</event>
<event>
 8    1  0.1212194E-006  0.9118800E+02  0.7816164E-02  0.1184000E+00
        -11   -1    0    0    0    0  0.00000000000E+00  0.00000000000E+00  0.45593999997E+02  0.45594000000E+02  0.51100000000E-03 0. -1.
         11   -1    0    0    0    0 -0.00000000000E+00 -0.00000000000E+00 -0.45593999997E+02  0.45594000000E+02  0.51100000000E-03 0.  1.
         23    2    1    2    0    0  0.00000000000E+00  0.00000000000E+00  0.00000000000E+00  0.91188000000E+02  0.91188000000E+02 0.  0.
    9900012    2    3    3    0    0  0.13362905644E+02  0.24376073623E+02 -0.24145761911E+02  0.54367108773E+02  0.40000056069E+02 0.  0.
         12    1    3    3    0    0 -0.13362905644E+02 -0.24376073623E+02  0.24145761911E+02  0.36820891227E+02  0.00000000000E+00 0. -1.
         11    1    4    4    0    0 -0.70587251179E+00  0.36601348346E+01 -0.21684712070E+02  0.22002763027E+02  0.51100000000E-03 0. -1.
        -11    1    4    4    0    0  0.54018643222E+01 -0.18047206353E+01 -0.56515525269E+01  0.80235404250E+01  0.51100000000E-03 0.  1.
         12    1    4    4    0    0  0.86669138332E+01  0.22520659424E+02  0.31905026857E+01  0.24340805320E+02  0.00000000000E+00 0. -1.
</event>
<event>
 8    1  0.1212194E-006  0.9118800E+02  0.7816164E-02  0.1184000E+00
        -11   -1    0    0    0    0  0.00000000000E+00  0.00000000000E+00  0.45593999997E+02  0.45594000000E+02  0.51100000000E-03 0.  1.
         11   -1    0    0    0    0 -0.00000000000E+00 -0.00000000000E+00 -0.45593999997E+02  0.45594000000E+02  0.51100000000E-03 0. -1.
         23    2    1    2    0    0  0.00000000000E+00 -0.44408920985E-15  0.55511151231E-15  0.91188000000E+02  0.91188000000E+02 0.  0.
    9900012    2    3    3    0    0 -0.36727610262E+02 -0.25664776177E+01  0.52573805428E+00  0.54367074381E+02  0.39999977666E+02 0.  0.
         12    1    3    3    0    0  0.36727610262E+02  0.25664776177E+01 -0.52573805428E+00  0.36820925619E+02  0.00000000000E+00 0. -1.
         11    1    4    4    0    0 -0.29645341112E+02 -0.99530147656E+01  0.73063743335E+01  0.32113733180E+02  0.51100000000E-03 0. -1.
        -11    1    4    4    0    0 -0.10412990905E+02 -0.24416979059E+01 -0.46350028855E+01  0.11656565543E+02  0.51100000000E-03 0.  1.
         12    1    4    4    0    0  0.33307217548E+01  0.98282350539E+01 -0.21456333937E+01  0.10596775658E+02  0.00000000000E+00 0. -1.
</event>
<event>
 8    1  0.1212194E-006  0.9118800E+02  0.7816164E-02  0.1184000E+00
        -11   -1    0    0    0    0  0.00000000000E+00  0.00000000000E+00  0.45593999997E+02  0.45594000000E+02  0.51100000000E-03 0.  1.
         11   -1    0    0    0    0 -0.00000000000E+00 -0.00000000000E+00 -0.45593999997E+02  0.45594000000E+02  0.51100000000E-03 0. -1.
         23    2    1    2    0    0 -0.35527136788E-14 -0.35527136788E-14 -0.67307270868E-15  0.91188000000E+02  0.91188000000E+02 0.  0.
    9900012    2    3    3    0    0  0.28287588474E+02 -0.23570921235E+02 -0.57079893717E-01  0.54367092248E+02  0.40000018398E+02 0.  0.
         12    1    3    3    0    0 -0.28287588474E+02  0.23570921235E+02  0.57079893717E-01  0.36820907752E+02  0.00000000000E+00 0. -1.
         11    1    4    4    0    0  0.18703419309E+02 -0.62701248707E+01  0.20383685517E+01  0.19831472622E+02  0.51100000000E-03 0. -1.
        -11    1    4    4    0    0  0.43613733500E+01 -0.22623568642E+02 -0.86469667328E+01  0.24609296405E+02  0.51100000000E-03 0.  1.
         12    1    4    4    0    0  0.52227958151E+01  0.53227722770E+01  0.65515182874E+01  0.99263232221E+01  0.00000000000E+00 0. -1.
</event>
<event>
 8    1  0.1212194E-006  0.9118800E+02  0.7816164E-02  0.1184000E+00
        -11   -1    0    0    0    0  0.00000000000E+00  0.00000000000E+00  0.45593999997E+02  0.45594000000E+02  0.51100000000E-03 0.  1.
         11   -1    0    0    0    0 -0.00000000000E+00 -0.00000000000E+00 -0.45593999997E+02  0.45594000000E+02  0.51100000000E-03 0. -1.
         23    2    1    2    0    0  0.66613381478E-15  0.00000000000E+00  0.00000000000E+00  0.91188000000E+02  0.91188000000E+02 0.  0.
    9900012    2    3    3    0    0 -0.19836481365E+01  0.33849247801E+02  0.14355228958E+02  0.54367095136E+02  0.40000024980E+02 0.  0.
         12    1    3    3    0    0  0.19836481365E+01 -0.33849247801E+02 -0.14355228958E+02  0.36820904864E+02  0.00000000000E+00 0. -1.
         11    1    4    4    0    0  0.15393094230E+02  0.24021711971E+02  0.11564051316E+02  0.30785017120E+02  0.51100000000E-03 0. -1.
        -11    1    4    4    0    0 -0.54997613332E+01  0.90619816599E+01  0.45787778247E+01  0.11546951674E+02  0.51100000000E-03 0.  1.
         12    1    4    4    0    0 -0.11876981033E+02  0.76555417000E+00 -0.17876001824E+01  0.12035126342E+02  0.00000000000E+00 0. -1.
</event>
<event>
 8    1  0.1212194E-006  0.9118800E+02  0.7816164E-02  0.1184000E+00
        -11   -1    0    0    0    0  0.00000000000E+00  0.00000000000E+00  0.45593999997E+02  0.45594000000E+02  0.51100000000E-03 0.  1.
         11   -1    0    0    0    0 -0.00000000000E+00 -0.00000000000E+00 -0.45593999997E+02  0.45594000000E+02  0.51100000000E-03 0. -1.
         23    2    1    2    0    0  0.00000000000E+00  0.00000000000E+00  0.26645352591E-14  0.91188000000E+02  0.91188000000E+02 0.  0.
    9900012    2    3    3    0    0  0.33216901396E+02  0.15862327203E+02  0.89260074703E+00  0.54367181178E+02  0.40000221131E+02 0.  0.
        -12    1    3    3    0    0 -0.33216901396E+02 -0.15862327203E+02 -0.89260074703E+00  0.36820818822E+02  0.00000000000E+00 0.  1.
         11    1    4    4    0    0  0.17753770358E+01  0.91502295580E+01 -0.14519175999E+02  0.17253554316E+02  0.51100000000E-03 0. -1.
        -11    1    4    4    0    0  0.14030880195E+02  0.24038912992E+01  0.13051271545E+01  0.14295021846E+02  0.51100000000E-03 0.  1.
         12    1    4    4    0    0  0.17410644165E+02  0.43082063453E+01  0.14106649592E+02  0.22818605016E+02  0.00000000000E+00 0. -1.
</event>
<event>
 8    1  0.1212194E-006  0.9118800E+02  0.7816164E-02  0.1184000E+00
        -11   -1    0    0    0    0  0.00000000000E+00  0.00000000000E+00  0.45593999997E+02  0.45594000000E+02  0.51100000000E-03 0.  1.
         11   -1    0    0    0    0 -0.00000000000E+00 -0.00000000000E+00 -0.45593999997E+02  0.45594000000E+02  0.51100000000E-03 0. -1.
         23    2    1    2    0    0 -0.35527136788E-14  0.17763568394E-14  0.00000000000E+00  0.91188000000E+02  0.91188000000E+02 0.  0.
    9900012    2    3    3    0    0 -0.24852859582E+02  0.93055156022E+01  0.25524913546E+02  0.54367102923E+02  0.40000042734E+02 0.  0.
         12    1    3    3    0    0  0.24852859582E+02 -0.93055156022E+01 -0.25524913546E+02  0.36820897077E+02  0.00000000000E+00 0. -1.
         11    1    4    4    0    0 -0.21917617063E+01 -0.27117521261E+01 -0.70724293275E+00  0.35577537573E+01  0.51100000000E-03 0. -1.
        -11    1    4    4    0    0 -0.24326929097E+02 -0.61748208833E+01  0.13104579657E+02  0.28313563896E+02  0.51100000000E-03 0.  1.
        -12    1    4    4    0    0  0.16658312220E+01  0.18192088612E+02  0.13127576822E+02  0.22495785270E+02  0.00000000000E+00 0.  1.
</event>
<event>
 8    1  0.1212194E-006  0.9118800E+02  0.7816164E-02  0.1184000E+00
        -11   -1    0    0    0    0  0.00000000000E+00  0.00000000000E+00  0.45593999997E+02  0.45594000000E+02  0.51100000000E-03 0. -1.
         11   -1    0    0    0    0 -0.00000000000E+00 -0.00000000000E+00 -0.45593999997E+02  0.45594000000E+02  0.51100000000E-03 0.  1.
         23    2    1    2    0    0  0.00000000000E+00  0.00000000000E+00  0.15543122345E-14  0.91188000000E+02  0.91188000000E+02 0.  0.
    9900012    2    3    3    0    0  0.26694084051E+02 -0.25292765160E+02  0.18658539400E+01  0.54367088771E+02  0.40000010471E+02 0.  0.
         12    1    3    3    0    0 -0.26694084051E+02  0.25292765160E+02 -0.18658539400E+01  0.36820911229E+02  0.00000000000E+00 0. -1.
         11    1    4    4    0    0 -0.97903080541E+00 -0.95137866817E+01  0.87983470429E+01  0.12995443405E+02  0.51100000000E-03 0. -1.
        -11    1    4    4    0    0  0.18048078552E+02 -0.17354994352E+02 -0.14583120331E+02  0.28975789329E+02  0.51100000000E-03 0.  1.
        -12    1    4    4    0    0  0.96250363051E+01  0.15760158730E+01  0.76506272286E+01  0.12395856037E+02  0.00000000000E+00 0.  1.
</event>
<event>
 8    1  0.1212194E-006  0.9118800E+02  0.7816164E-02  0.1184000E+00
        -11   -1    0    0    0    0  0.00000000000E+00  0.00000000000E+00  0.45593999997E+02  0.45594000000E+02  0.51100000000E-03 0. -1.
         11   -1    0    0    0    0 -0.00000000000E+00 -0.00000000000E+00 -0.45593999997E+02  0.45594000000E+02  0.51100000000E-03 0.  1.
         23    2    1    2    0    0  0.00000000000E+00  0.00000000000E+00  0.00000000000E+00  0.91188000000E+02  0.91188000000E+02 0.  0.
    9900012    2    3    3    0    0  0.58364825963E+01  0.11691542296E+02 -0.34424161393E+02  0.54367087763E+02  0.40000008174E+02 0.  0.
         12    1    3    3    0    0 -0.58364825963E+01 -0.11691542296E+02  0.34424161393E+02  0.36820912237E+02  0.00000000000E+00 0. -1.
         11    1    4    4    0    0  0.27611883618E+01 -0.59809902099E+01  0.46561093302E+01  0.80669547796E+01  0.51100000000E-03 0. -1.
        -11    1    4    4    0    0  0.86516059061E+01  0.11583381999E+02 -0.14954165306E+02  0.20800290468E+02  0.51100000000E-03 0.  1.
         12    1    4    4    0    0 -0.55763116716E+01  0.60891505069E+01 -0.24126105417E+02  0.25499842516E+02  0.00000000000E+00 0. -1.
</event>
<event>
 8    1  0.1212194E-006  0.9118800E+02  0.7816164E-02  0.1184000E+00
        -11   -1    0    0    0    0  0.00000000000E+00  0.00000000000E+00  0.45593999997E+02  0.45594000000E+02  0.51100000000E-03 0. -1.
         11   -1    0    0    0    0 -0.00000000000E+00 -0.00000000000E+00 -0.45593999997E+02  0.45594000000E+02  0.51100000000E-03 0.  1.
         23    2    1    2    0    0  0.35527136788E-14 -0.17763568394E-14  0.00000000000E+00  0.91188000000E+02  0.91188000000E+02 0.  0.
    9900012    2    3    3    0    0  0.17217485164E+02 -0.10764392086E+02 -0.30715904490E+02  0.54367072242E+02  0.39999972790E+02 0.  0.
         12    1    3    3    0    0 -0.17217485164E+02  0.10764392086E+02  0.30715904490E+02  0.36820927758E+02  0.00000000000E+00 0. -1.
         11    1    4    4    0    0  0.10434155293E+02 -0.27949595026E+01  0.82093747292E+01  0.13567506367E+02  0.51100000000E-03 0. -1.
        -11    1    4    4    0    0  0.47757834396E+01 -0.31936902083E+01 -0.11127162285E+02  0.12522839350E+02  0.51100000000E-03 0.  1.
         12    1    4    4    0    0  0.20075464306E+01 -0.47757423748E+01 -0.27798116934E+02  0.28276726525E+02  0.00000000000E+00 0. -1.
</event>
<event>
 8    1  0.1212194E-006  0.9118800E+02  0.7816164E-02  0.1184000E+00
        -11   -1    0    0    0    0  0.00000000000E+00  0.00000000000E+00  0.45593999997E+02  0.45594000000E+02  0.51100000000E-03 0. -1.
         11   -1    0    0    0    0 -0.00000000000E+00 -0.00000000000E+00 -0.45593999997E+02  0.45594000000E+02  0.51100000000E-03 0.  1.
         23    2    1    2    0    0  0.00000000000E+00  0.35527136788E-14 -0.35527136788E-14  0.91188000000E+02  0.91188000000E+02 0.  0.
    9900012    2    3    3    0    0  0.17151257627E+02 -0.24565687111E+02  0.21404224278E+02  0.54367089659E+02  0.40000012495E+02 0.  0.
         12    1    3    3    0    0 -0.17151257627E+02  0.24565687111E+02 -0.21404224278E+02  0.36820910341E+02  0.00000000000E+00 0. -1.
         11    1    4    4    0    0  0.63985809654E+00  0.26040100954E+01  0.12197985277E+01  0.29458777419E+01  0.51100000000E-03 0. -1.
        -11    1    4    4    0    0  0.22863933408E+02 -0.26489507337E+02  0.25346435888E+02  0.43207583389E+02  0.51100000000E-03 0.  1.
        -12    1    4    4    0    0 -0.63525338777E+01 -0.68018986881E+00 -0.51620101377E+01  0.82136285274E+01  0.00000000000E+00 0.  1.
</event>
<event>
 8    1  0.1212194E-006  0.9118800E+02  0.7816164E-02  0.1184000E+00
        -11   -1    0    0    0    0  0.00000000000E+00  0.00000000000E+00  0.45593999997E+02  0.45594000000E+02  0.51100000000E-03 0. -1.
         11   -1    0    0    0    0 -0.00000000000E+00 -0.00000000000E+00 -0.45593999997E+02  0.45594000000E+02  0.51100000000E-03 0.  1.
         23    2    1    2    0    0  0.00000000000E+00 -0.35527136788E-14  0.00000000000E+00  0.91188000000E+02  0.91188000000E+02 0.  0.
    9900012    2    3    3    0    0 -0.14913882032E+02 -0.26071014219E+02 -0.21299282718E+02  0.54367067040E+02  0.39999960932E+02 0.  0.
         12    1    3    3    0    0  0.14913882032E+02  0.26071014219E+02  0.21299282718E+02  0.36820932960E+02  0.00000000000E+00 0. -1.
         11    1    4    4    0    0 -0.28082242365E+01  0.47549324755E+01 -0.14386610786E+01  0.57065972496E+01  0.51100000000E-03 0. -1.
        -11    1    4    4    0    0 -0.14843850255E+02 -0.14678201935E+01 -0.59659667284E+01  0.16065090905E+02  0.51100000000E-03 0.  1.
         12    1    4    4    0    0  0.27381924593E+01 -0.29358126501E+02 -0.13894654911E+02  0.32595378886E+02  0.00000000000E+00 0. -1.
</event>
<event>
 8    1  0.1212194E-006  0.9118800E+02  0.7816164E-02  0.1184000E+00
        -11   -1    0    0    0    0  0.00000000000E+00  0.00000000000E+00  0.45593999997E+02  0.45594000000E+02  0.51100000000E-03 0.  1.
         11   -1    0    0    0    0 -0.00000000000E+00 -0.00000000000E+00 -0.45593999997E+02  0.45594000000E+02  0.51100000000E-03 0. -1.
         23    2    1    2    0    0  0.35527136788E-14 -0.71054273576E-14 -0.17763568394E-14  0.91188000000E+02  0.91188000000E+02 0.  0.
    9900012    2    3    3    0    0  0.21342295636E+02 -0.27893473624E+02 -0.11056152915E+02  0.54367109583E+02  0.40000057917E+02 0.  0.
        -12    1    3    3    0    0 -0.21342295636E+02  0.27893473624E+02  0.11056152915E+02  0.36820890417E+02  0.00000000000E+00 0.  1.
         11    1    4    4    0    0  0.47025369556E+01  0.87630743498E+00  0.92542016297E+00  0.48721834200E+01  0.51100000000E-03 0.  1.
        -11    1    4    4    0    0  0.12825879652E+02 -0.25261808429E+02 -0.23535750593E+02  0.36831965874E+02  0.51100000000E-03 0. -1.
         12    1    4    4    0    0  0.38138790282E+01 -0.35079726303E+01  0.11554177515E+02  0.12662960289E+02  0.00000000000E+00 0. -1.
</event>
<event>
 8    1  0.1212194E-006  0.9118800E+02  0.7816164E-02  0.1184000E+00
        -11   -1    0    0    0    0  0.00000000000E+00  0.00000000000E+00  0.45593999997E+02  0.45594000000E+02  0.51100000000E-03 0. -1.
         11   -1    0    0    0    0 -0.00000000000E+00 -0.00000000000E+00 -0.45593999997E+02  0.45594000000E+02  0.51100000000E-03 0.  1.
         23    2    1    2    0    0  0.71054273576E-14 -0.35527136788E-14  0.00000000000E+00  0.91188000000E+02  0.91188000000E+02 0.  0.
    9900012    2    3    3    0    0  0.27672558277E+02  0.10881192115E+02  0.21716558522E+02  0.54367085597E+02  0.40000003235E+02 0.  0.
        -12    1    3    3    0    0 -0.27672558277E+02 -0.10881192115E+02 -0.21716558522E+02  0.36820914403E+02  0.00000000000E+00 0.  1.
         11    1    4    4    0    0  0.81518064514E+01 -0.11913296975E+02  0.83570828572E+01  0.16679910892E+02  0.51100000000E-03 0. -1.
        -11    1    4    4    0    0  0.17353072759E+02  0.88770630708E+01  0.20039090255E+01  0.19594566456E+02  0.51100000000E-03 0.  1.
         12    1    4    4    0    0  0.21676790666E+01  0.13917426019E+02  0.11355566639E+02  0.18092608249E+02  0.00000000000E+00 0. -1.
</event>
<event>
 8    1  0.1212194E-006  0.9118800E+02  0.7816164E-02  0.1184000E+00
        -11   -1    0    0    0    0  0.00000000000E+00  0.00000000000E+00  0.45593999997E+02  0.45594000000E+02  0.51100000000E-03 0.  1.
         11   -1    0    0    0    0 -0.00000000000E+00 -0.00000000000E+00 -0.45593999997E+02  0.45594000000E+02  0.51100000000E-03 0. -1.
         23    2    1    2    0    0  0.00000000000E+00  0.00000000000E+00  0.00000000000E+00  0.91188000000E+02  0.91188000000E+02 0.  0.
    9900012    2    3    3    0    0 -0.31863120051E+02 -0.18317921769E+02 -0.22308028971E+01  0.54367066295E+02  0.39999959233E+02 0.  0.
        -12    1    3    3    0    0  0.31863120051E+02  0.18317921769E+02  0.22308028971E+01  0.36820933705E+02  0.00000000000E+00 0.  1.
         11    1    4    4    0    0 -0.27281021833E+02 -0.27946421450E+01  0.95966706647E+00  0.27440574668E+02  0.51100000000E-03 0. -1.
        -11    1    4    4    0    0  0.44930194512E+01  0.43561459244E+00  0.50756800972E+01  0.67926071999E+01  0.51100000000E-03 0.  1.
         12    1    4    4    0    0 -0.90751176698E+01 -0.15958894216E+02 -0.82661500608E+01  0.20133884428E+02  0.00000000000E+00 0. -1.
</event>
<event>
 8    1  0.1212194E-006  0.9118800E+02  0.7816164E-02  0.1184000E+00
        -11   -1    0    0    0    0  0.00000000000E+00  0.00000000000E+00  0.45593999997E+02  0.45594000000E+02  0.51100000000E-03 0. -1.
         11   -1    0    0    0    0 -0.00000000000E+00 -0.00000000000E+00 -0.45593999997E+02  0.45594000000E+02  0.51100000000E-03 0.  1.
         23    2    1    2    0    0 -0.88817841970E-15  0.00000000000E+00 -0.71054273576E-14  0.91188000000E+02  0.91188000000E+02 0.  0.
    9900012    2    3    3    0    0  0.43979233287E+01  0.43509601619E+01 -0.36297521162E+02  0.54367046367E+02  0.39999913803E+02 0.  0.
         12    1    3    3    0    0 -0.43979233287E+01 -0.43509601619E+01  0.36297521162E+02  0.36820953633E+02  0.00000000000E+00 0. -1.
         11    1    4    4    0    0  0.20768804166E+00  0.62245048039E+01 -0.15302047899E+01  0.64131989940E+01  0.51100000000E-03 0. -1.
        -11    1    4    4    0    0 -0.10129100491E+02 -0.11773945901E+02 -0.14659029108E+02  0.21356769735E+02  0.51100000000E-03 0.  1.
         12    1    4    4    0    0  0.14319335778E+02  0.99004012595E+01 -0.20108287264E+02  0.26597077638E+02  0.00000000000E+00 0. -1.
</event>
<event>
 8    1  0.1212194E-006  0.9118800E+02  0.7816164E-02  0.1184000E+00
        -11   -1    0    0    0    0  0.00000000000E+00  0.00000000000E+00  0.45593999997E+02  0.45594000000E+02  0.51100000000E-03 0.  1.
         11   -1    0    0    0    0 -0.00000000000E+00 -0.00000000000E+00 -0.45593999997E+02  0.45594000000E+02  0.51100000000E-03 0. -1.
         23    2    1    2    0    0 -0.35527136788E-14 -0.35527136788E-14  0.88817841970E-15  0.91188000000E+02  0.91188000000E+02 0.  0.
    9900012    2    3    3    0    0  0.30676227515E+02  0.19393504166E+02 -0.62163237200E+01  0.54367060047E+02  0.39999944989E+02 0.  0.
         12    1    3    3    0    0 -0.30676227515E+02 -0.19393504166E+02  0.62163237200E+01  0.36820939953E+02  0.00000000000E+00 0. -1.
         11    1    4    4    0    0  0.63517066350E+00 -0.38897754481E+01  0.33305370372E+01  0.51600651184E+01  0.51100000000E-03 0. -1.
        -11    1    4    4    0    0  0.17249578021E+02  0.28482864198E+02 -0.17387684368E+01  0.33344337012E+02  0.51100000000E-03 0.  1.
         12    1    4    4    0    0  0.12791478830E+02 -0.51995845832E+01 -0.78080923204E+01  0.15862657917E+02  0.00000000000E+00 0. -1.
</event>
<event>
 8    1  0.1212194E-006  0.9118800E+02  0.7816164E-02  0.1184000E+00
        -11   -1    0    0    0    0  0.00000000000E+00  0.00000000000E+00  0.45593999997E+02  0.45594000000E+02  0.51100000000E-03 0. -1.
         11   -1    0    0    0    0 -0.00000000000E+00 -0.00000000000E+00 -0.45593999997E+02  0.45594000000E+02  0.51100000000E-03 0.  1.
         23    2    1    2    0    0 -0.35527136788E-14  0.00000000000E+00  0.71054273576E-14  0.91188000000E+02  0.91188000000E+02 0.  0.
    9900012    2    3    3    0    0 -0.11875054980E+02 -0.12874460035E+02 -0.32388457648E+02  0.54367070615E+02  0.39999969080E+02 0.  0.
         12    1    3    3    0    0  0.11875054980E+02  0.12874460035E+02  0.32388457648E+02  0.36820929385E+02  0.00000000000E+00 0. -1.
         11    1    4    4    0    0  0.89254179062E+01 -0.50714822978E+01 -0.72944343926E+01  0.12593323265E+02  0.51100000000E-03 0. -1.
        -11    1    4    4    0    0 -0.19521729810E+01 -0.84371476814E+01 -0.20658460381E+02  0.22400188078E+02  0.51100000000E-03 0.  1.
         12    1    4    4    0    0 -0.18848299905E+02  0.63416994404E+00 -0.44355628750E+01  0.19373559272E+02  0.00000000000E+00 0. -1.
</event>
<event>
 8    1  0.1212194E-006  0.9118800E+02  0.7816164E-02  0.1184000E+00
        -11   -1    0    0    0    0  0.00000000000E+00  0.00000000000E+00  0.45593999997E+02  0.45594000000E+02  0.51100000000E-03 0. -1.
         11   -1    0    0    0    0 -0.00000000000E+00 -0.00000000000E+00 -0.45593999997E+02  0.45594000000E+02  0.51100000000E-03 0.  1.
         23    2    1    2    0    0  0.00000000000E+00 -0.17763568394E-14 -0.17763568394E-14  0.91188000000E+02  0.91188000000E+02 0.  0.
    9900012    2    3    3    0    0 -0.33983859649E+02 -0.11201252924E+02 -0.86838372417E+01  0.54367084572E+02  0.40000000899E+02 0.  0.
         12    1    3    3    0    0  0.33983859649E+02  0.11201252924E+02  0.86838372417E+01  0.36820915428E+02  0.00000000000E+00 0. -1.
         11    1    4    4    0    0 -0.33854471893E+01  0.48823524307E+00  0.13714014571E+02  0.14134136770E+02  0.51100000000E-03 0. -1.
        -11    1    4    4    0    0 -0.11777736553E+02 -0.32146051154E+01 -0.12009737336E+02  0.17125494314E+02  0.51100000000E-03 0.  1.
         12    1    4    4    0    0 -0.18820675907E+02 -0.84748830518E+01 -0.10388114476E+02  0.23107453488E+02  0.00000000000E+00 0. -1.
</event>
<event>
 8    1  0.1212194E-006  0.9118800E+02  0.7816164E-02  0.1184000E+00
        -11   -1    0    0    0    0  0.00000000000E+00  0.00000000000E+00  0.45593999997E+02  0.45594000000E+02  0.51100000000E-03 0.  1.
         11   -1    0    0    0    0 -0.00000000000E+00 -0.00000000000E+00 -0.45593999997E+02  0.45594000000E+02  0.51100000000E-03 0. -1.
         23    2    1    2    0    0  0.00000000000E+00  0.00000000000E+00  0.00000000000E+00  0.91188000000E+02  0.91188000000E+02 0.  0.
    9900012    2    3    3    0    0  0.88168425717E+01  0.34609197853E+02  0.89580909462E+01  0.54367072766E+02  0.39999973985E+02 0.  0.
         12    1    3    3    0    0 -0.88168425717E+01 -0.34609197853E+02 -0.89580909462E+01  0.36820927234E+02  0.00000000000E+00 0. -1.
         11    1    4    4    0    0  0.11205984907E+02  0.18965675273E+01  0.95690665593E+01  0.14857257526E+02  0.51100000000E-03 0.  1.
        -11    1    4    4    0    0 -0.34167808122E+01  0.15683180696E+02 -0.11070313228E+02  0.19498420015E+02  0.51100000000E-03 0. -1.
         12    1    4    4    0    0  0.10276384765E+01  0.17029449629E+02  0.10459337614E+02  0.20011395225E+02  0.00000000000E+00 0. -1.
</event>
<event>
 8    1  0.1212194E-006  0.9118800E+02  0.7816164E-02  0.1184000E+00
        -11   -1    0    0    0    0  0.00000000000E+00  0.00000000000E+00  0.45593999997E+02  0.45594000000E+02  0.51100000000E-03 0. -1.
         11   -1    0    0    0    0 -0.00000000000E+00 -0.00000000000E+00 -0.45593999997E+02  0.45594000000E+02  0.51100000000E-03 0.  1.
         23    2    1    2    0    0 -0.71054273576E-14  0.17763568394E-14  0.88817841970E-15  0.91188000000E+02  0.91188000000E+02 0.  0.
    9900012    2    3    3    0    0 -0.33436815456E+02  0.14799441271E+02  0.43284060840E+01  0.54367093045E+02  0.40000020214E+02 0.  0.
        -12    1    3    3    0    0  0.33436815456E+02 -0.14799441271E+02 -0.43284060840E+01  0.36820906955E+02  0.00000000000E+00 0.  1.
         11    1    4    4    0    0 -0.33115517393E+02  0.69258590110E+01 -0.10521799009E+01  0.33848369208E+02  0.51100000000E-03 0. -1.
        -11    1    4    4    0    0 -0.88224145183E+01  0.11091069325E+01  0.31092967323E+01  0.94198111739E+01  0.51100000000E-03 0.  1.
        -12    1    4    4    0    0  0.85011164547E+01  0.67644753275E+01  0.22712892526E+01  0.11098912663E+02  0.00000000000E+00 0.  1.
</event>
<event>
 8    1  0.1212194E-006  0.9118800E+02  0.7816164E-02  0.1184000E+00
        -11   -1    0    0    0    0  0.00000000000E+00  0.00000000000E+00  0.45593999997E+02  0.45594000000E+02  0.51100000000E-03 0.  1.
         11   -1    0    0    0    0 -0.00000000000E+00 -0.00000000000E+00 -0.45593999997E+02  0.45594000000E+02  0.51100000000E-03 0. -1.
         23    2    1    2    0    0  0.00000000000E+00  0.71054273576E-14 -0.88817841970E-15  0.91188000000E+02  0.91188000000E+02 0.  0.
    9900012    2    3    3    0    0  0.52150370884E+01 -0.35816370628E+02 -0.67654028787E+01  0.54367086202E+02  0.40000004616E+02 0.  0.
        -12    1    3    3    0    0 -0.52150370884E+01  0.35816370628E+02  0.67654028787E+01  0.36820913798E+02  0.00000000000E+00 0.  1.
         11    1    4    4    0    0 -0.44607268012E+01  0.29793986691E+01 -0.13105103479E+01  0.55219867492E+01  0.51100000000E-03 0. -1.
        -11    1    4    4    0    0 -0.19277175171E+01 -0.15524189746E+02  0.10027211356E+02  0.18581214437E+02  0.51100000000E-03 0.  1.
         12    1    4    4    0    0  0.11603481407E+02 -0.23271579551E+02 -0.15482103887E+02  0.30263885017E+02  0.00000000000E+00 0. -1.
</event>
<event>
 8    1  0.1212194E-006  0.9118800E+02  0.7816164E-02  0.1184000E+00
        -11   -1    0    0    0    0  0.00000000000E+00  0.00000000000E+00  0.45593999997E+02  0.45594000000E+02  0.51100000000E-03 0.  1.
         11   -1    0    0    0    0 -0.00000000000E+00 -0.00000000000E+00 -0.45593999997E+02  0.45594000000E+02  0.51100000000E-03 0. -1.
         23    2    1    2    0    0  0.00000000000E+00  0.00000000000E+00  0.00000000000E+00  0.91188000000E+02  0.91188000000E+02 0.  0.
    9900012    2    3    3    0    0 -0.83606363122E+00 -0.97534685421E+01 -0.35495779711E+02  0.54367088438E+02  0.40000009711E+02 0.  0.
        -12    1    3    3    0    0  0.83606363122E+00  0.97534685421E+01  0.35495779711E+02  0.36820911562E+02  0.00000000000E+00 0.  1.
         11    1    4    4    0    0  0.11018454518E+01 -0.22087783979E+01 -0.11934117535E+02  0.12186711082E+02  0.51100000000E-03 0. -1.
        -11    1    4    4    0    0 -0.48722408955E+01  0.12465094524E+02 -0.38187896433E+01  0.13917631531E+02  0.51100000000E-03 0.  1.
         12    1    4    4    0    0  0.29343318125E+01 -0.20009784668E+02 -0.19742872533E+02  0.28262745824E+02  0.00000000000E+00 0. -1.
</event>
<event>
 8    1  0.1212194E-006  0.9118800E+02  0.7816164E-02  0.1184000E+00
        -11   -1    0    0    0    0  0.00000000000E+00  0.00000000000E+00  0.45593999997E+02  0.45594000000E+02  0.51100000000E-03 0. -1.
         11   -1    0    0    0    0 -0.00000000000E+00 -0.00000000000E+00 -0.45593999997E+02  0.45594000000E+02  0.51100000000E-03 0.  1.
         23    2    1    2    0    0  0.00000000000E+00  0.71054273576E-14  0.35527136788E-14  0.91188000000E+02  0.91188000000E+02 0.  0.
    9900012    2    3    3    0    0  0.16714483114E+02  0.26839835822E+02  0.18868739550E+02  0.54367081151E+02  0.39999993099E+02 0.  0.
        -12    1    3    3    0    0 -0.16714483114E+02 -0.26839835822E+02 -0.18868739550E+02  0.36820918849E+02  0.00000000000E+00 0.  1.
         11    1    4    4    0    0  0.10756997669E+02  0.71273550885E+00 -0.46997047403E+01  0.11760451338E+02  0.51100000000E-03 0. -1.
        -11    1    4    4    0    0  0.26161592972E+01 -0.22708507797E+01  0.10706850223E+02  0.11253341490E+02  0.51100000000E-03 0.  1.
         12    1    4    4    0    0  0.33413261473E+01  0.28397951093E+02  0.12861594067E+02  0.31353288323E+02  0.00000000000E+00 0. -1.
</event>
<event>
 8    1  0.1212194E-006  0.9118800E+02  0.7816164E-02  0.1184000E+00
        -11   -1    0    0    0    0  0.00000000000E+00  0.00000000000E+00  0.45593999997E+02  0.45594000000E+02  0.51100000000E-03 0.  1.
         11   -1    0    0    0    0 -0.00000000000E+00 -0.00000000000E+00 -0.45593999997E+02  0.45594000000E+02  0.51100000000E-03 0. -1.
         23    2    1    2    0    0  0.71054273576E-14 -0.35527136788E-14  0.00000000000E+00  0.91188000000E+02  0.91188000000E+02 0.  0.
    9900012    2    3    3    0    0  0.27456692122E+02  0.22716178969E+02 -0.92674997332E+01  0.54367064643E+02  0.39999955466E+02 0.  0.
        -12    1    3    3    0    0 -0.27456692122E+02 -0.22716178969E+02  0.92674997332E+01  0.36820935357E+02  0.00000000000E+00 0.  1.
         11    1    4    4    0    0  0.48578436244E+01  0.11824600567E+02 -0.11225277942E+02  0.17012545030E+02  0.51100000000E-03 0. -1.
        -11    1    4    4    0    0 -0.42962161813E+01 -0.40092323676E+00 -0.57450968986E+01  0.71850088068E+01  0.51100000000E-03 0.  1.
        -12    1    4    4    0    0  0.26895064679E+02  0.11292501639E+02  0.77028751076E+01  0.30169510806E+02  0.00000000000E+00 0.  1.
</event>
<event>
 8    1  0.1212194E-006  0.9118800E+02  0.7816164E-02  0.1184000E+00
        -11   -1    0    0    0    0  0.00000000000E+00  0.00000000000E+00  0.45593999997E+02  0.45594000000E+02  0.51100000000E-03 0.  1.
         11   -1    0    0    0    0 -0.00000000000E+00 -0.00000000000E+00 -0.45593999997E+02  0.45594000000E+02  0.51100000000E-03 0. -1.
         23    2    1    2    0    0  0.00000000000E+00  0.00000000000E+00  0.00000000000E+00  0.91188000000E+02  0.91188000000E+02 0.  0.
    9900012    2    3    3    0    0  0.75690822418E+01  0.35792557387E+02 -0.41691660708E+01  0.54367080457E+02  0.39999991517E+02 0.  0.
         12    1    3    3    0    0 -0.75690822418E+01 -0.35792557387E+02  0.41691660708E+01  0.36820919543E+02  0.00000000000E+00 0. -1.
         11    1    4    4    0    0 -0.13120707003E+01 -0.62902642636E+01 -0.51596664056E+01  0.82408198443E+01  0.51100000000E-03 0. -1.
        -11    1    4    4    0    0 -0.46843634905E+01  0.87777198307E+01  0.20079236191E+01  0.10150043559E+02  0.51100000000E-03 0.  1.
        -12    1    4    4    0    0  0.13565516433E+02  0.33305101820E+02 -0.10174232843E+01  0.35976217053E+02  0.00000000000E+00 0.  1.
</event>
<event>
 8    1  0.1212194E-006  0.9118800E+02  0.7816164E-02  0.1184000E+00
        -11   -1    0    0    0    0  0.00000000000E+00  0.00000000000E+00  0.45593999997E+02  0.45594000000E+02  0.51100000000E-03 0.  1.
         11   -1    0    0    0    0 -0.00000000000E+00 -0.00000000000E+00 -0.45593999997E+02  0.45594000000E+02  0.51100000000E-03 0. -1.
         23    2    1    2    0    0  0.00000000000E+00  0.00000000000E+00  0.00000000000E+00  0.91188000000E+02  0.91188000000E+02 0.  0.
    9900012    2    3    3    0    0 -0.18511141493E+02  0.23777767120E+02 -0.21159756911E+02  0.54367083646E+02  0.39999998789E+02 0.  0.
         12    1    3    3    0    0  0.18511141493E+02 -0.23777767120E+02  0.21159756911E+02  0.36820916354E+02  0.00000000000E+00 0. -1.
         11    1    4    4    0    0 -0.54715411193E+01  0.10455780478E+02  0.86038059358E+00  0.11832217148E+02  0.51100000000E-03 0. -1.
        -11    1    4    4    0    0 -0.11872222892E+02  0.14632206368E+02 -0.29416070349E+02  0.34933598936E+02  0.51100000000E-03 0.  1.
         12    1    4    4    0    0 -0.11673774822E+01 -0.13102197258E+01  0.73959328443E+01  0.76012675623E+01  0.00000000000E+00 0. -1.
</event>
<event>
 8    1  0.1212194E-006  0.9118800E+02  0.7816164E-02  0.1184000E+00
        -11   -1    0    0    0    0  0.00000000000E+00  0.00000000000E+00  0.45593999997E+02  0.45594000000E+02  0.51100000000E-03 0.  1.
         11   -1    0    0    0    0 -0.00000000000E+00 -0.00000000000E+00 -0.45593999997E+02  0.45594000000E+02  0.51100000000E-03 0. -1.
         23    2    1    2    0    0 -0.71054273576E-14  0.00000000000E+00 -0.35527136788E-14  0.91188000000E+02  0.91188000000E+02 0.  0.
    9900012    2    3    3    0    0  0.32749398202E+02 -0.23953689510E+01  0.16658916828E+02  0.54367076805E+02  0.39999983192E+02 0.  0.
         12    1    3    3    0    0 -0.32749398202E+02  0.23953689510E+01 -0.16658916828E+02  0.36820923195E+02  0.00000000000E+00 0. -1.
         11    1    4    4    0    0  0.32438694414E+02 -0.45768047900E+00 -0.69477017992E+00  0.32449361666E+02  0.51100000000E-03 0. -1.
        -11    1    4    4    0    0  0.57711208876E+01 -0.22182163008E+01  0.36887751279E+01  0.71995404063E+01  0.51100000000E-03 0.  1.
         12    1    4    4    0    0 -0.54604170988E+01  0.28052782877E+00  0.13664911880E+02  0.14718174732E+02  0.00000000000E+00 0. -1.
</event>
<event>
 8    1  0.1212194E-006  0.9118800E+02  0.7816164E-02  0.1184000E+00
        -11   -1    0    0    0    0  0.00000000000E+00  0.00000000000E+00  0.45593999997E+02  0.45594000000E+02  0.51100000000E-03 0. -1.
         11   -1    0    0    0    0 -0.00000000000E+00 -0.00000000000E+00 -0.45593999997E+02  0.45594000000E+02  0.51100000000E-03 0.  1.
         23    2    1    2    0    0 -0.71054273576E-14 -0.13322676296E-14  0.27755575616E-16  0.91188000000E+02  0.91188000000E+02 0.  0.
    9900012    2    3    3    0    0 -0.36797796667E+02  0.12977019141E+01  0.13413190727E+00  0.54367083917E+02  0.39999999406E+02 0.  0.
         12    1    3    3    0    0  0.36797796667E+02 -0.12977019141E+01 -0.13413190727E+00  0.36820916083E+02  0.00000000000E+00 0. -1.
         11    1    4    4    0    0  0.48790041060E+00  0.14418551267E+02  0.64558744800E+00  0.14441241321E+02  0.51100000000E-03 0. -1.
        -11    1    4    4    0    0 -0.27122131658E+01 -0.79754233919E+00 -0.15162917540E+01  0.32080079464E+01  0.51100000000E-03 0.  1.
         12    1    4    4    0    0 -0.34573483912E+02 -0.12323307014E+02  0.10048362133E+01  0.36717834650E+02  0.00000000000E+00 0. -1.
</event>
<event>
 8    1  0.1212194E-006  0.9118800E+02  0.7816164E-02  0.1184000E+00
        -11   -1    0    0    0    0  0.00000000000E+00  0.00000000000E+00  0.45593999997E+02  0.45594000000E+02  0.51100000000E-03 0. -1.
         11   -1    0    0    0    0 -0.00000000000E+00 -0.00000000000E+00 -0.45593999997E+02  0.45594000000E+02  0.51100000000E-03 0.  1.
         23    2    1    2    0    0  0.00000000000E+00 -0.88817841970E-15 -0.44408920985E-15  0.91188000000E+02  0.91188000000E+02 0.  0.
    9900012    2    3    3    0    0 -0.35936849116E+02 -0.71110625462E+01  0.37084938882E+01  0.54367119214E+02  0.40000079872E+02 0.  0.
        -12    1    3    3    0    0  0.35936849116E+02  0.71110625462E+01 -0.37084938882E+01  0.36820880786E+02  0.00000000000E+00 0.  1.
         11    1    4    4    0    0 -0.95438259741E+01 -0.12826110255E+02  0.33757218224E+01  0.16339804668E+02  0.51100000000E-03 0. -1.
        -11    1    4    4    0    0  0.45569487900E+01  0.52365017325E+01  0.12821748814E+01  0.70590867226E+01  0.51100000000E-03 0.  1.
        -12    1    4    4    0    0 -0.30949971932E+02  0.47854597613E+00 -0.94940281568E+00  0.30968227824E+02  0.00000000000E+00 0.  1.
</event>
<event>
 8    1  0.1212194E-006  0.9118800E+02  0.7816164E-02  0.1184000E+00
        -11   -1    0    0    0    0  0.00000000000E+00  0.00000000000E+00  0.45593999997E+02  0.45594000000E+02  0.51100000000E-03 0. -1.
         11   -1    0    0    0    0 -0.00000000000E+00 -0.00000000000E+00 -0.45593999997E+02  0.45594000000E+02  0.51100000000E-03 0.  1.
         23    2    1    2    0    0  0.00000000000E+00  0.00000000000E+00  0.35527136788E-14  0.91188000000E+02  0.91188000000E+02 0.  0.
    9900012    2    3    3    0    0 -0.20586679159E+02  0.20840391969E+02 -0.22307990144E+02  0.54367085828E+02  0.40000003762E+02 0.  0.
         12    1    3    3    0    0  0.20586679159E+02 -0.20840391969E+02  0.22307990144E+02  0.36820914172E+02  0.00000000000E+00 0. -1.
         11    1    4    4    0    0  0.62138385628E+00  0.36297697723E+01 -0.45390774586E+01  0.58450467006E+01  0.51100000000E-03 0.  1.
        -11    1    4    4    0    0 -0.25093301820E+02  0.98053947648E+01 -0.25527752583E+02  0.37114494674E+02  0.51100000000E-03 0. -1.
         12    1    4    4    0    0  0.38852388050E+01  0.74052274317E+01  0.77588398975E+01  0.11407544453E+02  0.00000000000E+00 0. -1.
</event>
<event>
 8    1  0.1212194E-006  0.9118800E+02  0.7816164E-02  0.1184000E+00
        -11   -1    0    0    0    0  0.00000000000E+00  0.00000000000E+00  0.45593999997E+02  0.45594000000E+02  0.51100000000E-03 0.  1.
         11   -1    0    0    0    0 -0.00000000000E+00 -0.00000000000E+00 -0.45593999997E+02  0.45594000000E+02  0.51100000000E-03 0. -1.
         23    2    1    2    0    0  0.00000000000E+00  0.17763568394E-14  0.00000000000E+00  0.91188000000E+02  0.91188000000E+02 0.  0.
    9900012    2    3    3    0    0 -0.70107300457E+01  0.10901019774E+02  0.34464410445E+02  0.54367107083E+02  0.40000052218E+02 0.  0.
         12    1    3    3    0    0  0.70107300457E+01 -0.10901019774E+02 -0.34464410445E+02  0.36820892917E+02  0.00000000000E+00 0. -1.
         11    1    4    4    0    0 -0.10668663159E+01 -0.29123786833E+01  0.96704142126E+00  0.32488956127E+01  0.51100000000E-03 0. -1.
        -11    1    4    4    0    0  0.14863386099E+02  0.32948195991E+01  0.14796759642E+02  0.21230171424E+02  0.51100000000E-03 0.  1.
         12    1    4    4    0    0 -0.20807249828E+02  0.10518578858E+02  0.18700609381E+02  0.29888040047E+02  0.00000000000E+00 0. -1.
</event>
<event>
 8    1  0.1212194E-006  0.9118800E+02  0.7816164E-02  0.1184000E+00
        -11   -1    0    0    0    0  0.00000000000E+00  0.00000000000E+00  0.45593999997E+02  0.45594000000E+02  0.51100000000E-03 0. -1.
         11   -1    0    0    0    0 -0.00000000000E+00 -0.00000000000E+00 -0.45593999997E+02  0.45594000000E+02  0.51100000000E-03 0.  1.
         23    2    1    2    0    0 -0.66613381478E-15  0.35527136788E-14 -0.35527136788E-14  0.91188000000E+02  0.91188000000E+02 0.  0.
    9900012    2    3    3    0    0 -0.15967219584E+01  0.25196560258E+02  0.26802304844E+02  0.54367085905E+02  0.40000003937E+02 0.  0.
        -12    1    3    3    0    0  0.15967219584E+01 -0.25196560258E+02 -0.26802304844E+02  0.36820914095E+02  0.00000000000E+00 0.  1.
         11    1    4    4    0    0 -0.54364948605E+01 -0.64893379757E+01  0.46413258554E+01  0.96544751120E+01  0.51100000000E-03 0. -1.
        -11    1    4    4    0    0 -0.43912348464E+01  0.37023195571E+01  0.12880092343E+02  0.14102726425E+02  0.51100000000E-03 0.  1.
         12    1    4    4    0    0  0.82310077485E+01  0.27983578676E+02  0.92808866456E+01  0.30609884368E+02  0.00000000000E+00 0. -1.
</event>
<event>
 8    1  0.1212194E-006  0.9118800E+02  0.7816164E-02  0.1184000E+00
        -11   -1    0    0    0    0  0.00000000000E+00  0.00000000000E+00  0.45593999997E+02  0.45594000000E+02  0.51100000000E-03 0.  1.
         11   -1    0    0    0    0 -0.00000000000E+00 -0.00000000000E+00 -0.45593999997E+02  0.45594000000E+02  0.51100000000E-03 0. -1.
         23    2    1    2    0    0  0.35527136788E-14  0.00000000000E+00  0.00000000000E+00  0.91188000000E+02  0.91188000000E+02 0.  0.
    9900012    2    3    3    0    0 -0.28275412362E+02 -0.12622357556E+02  0.19923754080E+02  0.54367097904E+02  0.40000031291E+02 0.  0.
         12    1    3    3    0    0  0.28275412362E+02  0.12622357556E+02 -0.19923754080E+02  0.36820902096E+02  0.00000000000E+00 0. -1.
         11    1    4    4    0    0 -0.41883819716E+01 -0.59074047351E+01 -0.94402730021E+01  0.11897845555E+02  0.51100000000E-03 0. -1.
        -11    1    4    4    0    0 -0.13551402684E+02 -0.11713070919E+02  0.23104148216E+02  0.29234195903E+02  0.51100000000E-03 0.  1.
         12    1    4    4    0    0 -0.10535627707E+02  0.49981180975E+01  0.62598788668E+01  0.13235056446E+02  0.00000000000E+00 0. -1.
</event>
<event>
 8    1  0.1212194E-006  0.9118800E+02  0.7816164E-02  0.1184000E+00
        -11   -1    0    0    0    0  0.00000000000E+00  0.00000000000E+00  0.45593999997E+02  0.45594000000E+02  0.51100000000E-03 0. -1.
         11   -1    0    0    0    0 -0.00000000000E+00 -0.00000000000E+00 -0.45593999997E+02  0.45594000000E+02  0.51100000000E-03 0.  1.
         23    2    1    2    0    0  0.00000000000E+00 -0.35527136788E-14  0.35527136788E-14  0.91188000000E+02  0.91188000000E+02 0.  0.
    9900012    2    3    3    0    0 -0.16315839511E+02 -0.19432987814E+02 -0.26682208999E+02  0.54366974602E+02  0.39999750199E+02 0.  0.
         12    1    3    3    0    0  0.16315839511E+02  0.19432987814E+02  0.26682208999E+02  0.36821025398E+02  0.00000000000E+00 0. -1.
         11    1    4    4    0    0 -0.76199231432E+01 -0.76292402458E+01  0.63812385217E+01  0.12529514786E+02  0.51100000000E-03 0.  1.
        -11    1    4    4    0    0 -0.14009982667E+02 -0.53161222160E+01 -0.12104186414E+02  0.19262712653E+02  0.51100000000E-03 0. -1.
        -12    1    4    4    0    0  0.53140662989E+01 -0.64876253522E+01 -0.20959261107E+02  0.22574747163E+02  0.00000000000E+00 0.  1.
</event>
<event>
 8    1  0.1212194E-006  0.9118800E+02  0.7816164E-02  0.1184000E+00
        -11   -1    0    0    0    0  0.00000000000E+00  0.00000000000E+00  0.45593999997E+02  0.45594000000E+02  0.51100000000E-03 0. -1.
         11   -1    0    0    0    0 -0.00000000000E+00 -0.00000000000E+00 -0.45593999997E+02  0.45594000000E+02  0.51100000000E-03 0.  1.
         23    2    1    2    0    0  0.00000000000E+00  0.00000000000E+00  0.00000000000E+00  0.91188000000E+02  0.91188000000E+02 0.  0.
    9900012    2    3    3    0    0  0.19258865703E+02 -0.20390936778E+02 -0.23855540646E+02  0.54367068041E+02  0.39999963213E+02 0.  0.
         12    1    3    3    0    0 -0.19258865703E+02  0.20390936778E+02  0.23855540646E+02  0.36820931959E+02  0.00000000000E+00 0. -1.
         11    1    4    4    0    0  0.83684785164E+01  0.80922081690E+01 -0.36843282869E+01  0.12210222804E+02  0.51100000000E-03 0. -1.
        -11    1    4    4    0    0  0.10811609159E+02 -0.30910836431E+02 -0.14167458377E+02  0.35680352838E+02  0.51100000000E-03 0.  1.
        -12    1    4    4    0    0  0.78778027045E-01  0.24276914845E+01 -0.60037539821E+01  0.64764923994E+01  0.00000000000E+00 0.  1.
</event>
<event>
 8    1  0.1212194E-006  0.9118800E+02  0.7816164E-02  0.1184000E+00
        -11   -1    0    0    0    0  0.00000000000E+00  0.00000000000E+00  0.45593999997E+02  0.45594000000E+02  0.51100000000E-03 0.  1.
         11   -1    0    0    0    0 -0.00000000000E+00 -0.00000000000E+00 -0.45593999997E+02  0.45594000000E+02  0.51100000000E-03 0. -1.
         23    2    1    2    0    0  0.00000000000E+00 -0.35527136788E-14 -0.17763568394E-14  0.91188000000E+02  0.91188000000E+02 0.  0.
    9900012    2    3    3    0    0  0.24407044863E+02 -0.27233989952E+02 -0.42879115666E+01  0.54367078865E+02  0.39999987888E+02 0.  0.
         12    1    3    3    0    0 -0.24407044863E+02  0.27233989952E+02  0.42879115666E+01  0.36820921135E+02  0.00000000000E+00 0. -1.
         11    1    4    4    0    0 -0.83902021977E+00  0.51134950447E+00  0.81505668780E+01  0.82095781827E+01  0.51100000000E-03 0. -1.
        -11    1    4    4    0    0  0.15228284301E+00 -0.27583532531E+01  0.57263545665E+01  0.63578958481E+01  0.51100000000E-03 0.  1.
        -12    1    4    4    0    0  0.25093782239E+02 -0.24986986203E+02 -0.18164833011E+02  0.39799604834E+02  0.00000000000E+00 0.  1.
</event>
<event>
 8    1  0.1212194E-006  0.9118800E+02  0.7816164E-02  0.1184000E+00
        -11   -1    0    0    0    0  0.00000000000E+00  0.00000000000E+00  0.45593999997E+02  0.45594000000E+02  0.51100000000E-03 0.  1.
         11   -1    0    0    0    0 -0.00000000000E+00 -0.00000000000E+00 -0.45593999997E+02  0.45594000000E+02  0.51100000000E-03 0. -1.
         23    2    1    2    0    0  0.00000000000E+00  0.35527136788E-14  0.71054273576E-14  0.91188000000E+02  0.91188000000E+02 0.  0.
    9900012    2    3    3    0    0 -0.19391933546E+02 -0.16703728841E+02 -0.26471070882E+02  0.54367092386E+02  0.40000018713E+02 0.  0.
        -12    1    3    3    0    0  0.19391933546E+02  0.16703728841E+02  0.26471070882E+02  0.36820907614E+02  0.00000000000E+00 0.  1.
         11    1    4    4    0    0 -0.11643844000E+02 -0.21342166860E+02 -0.25320246744E+02  0.35102451265E+02  0.51100000000E-03 0. -1.
        -11    1    4    4    0    0  0.29894923766E+00  0.45415470694E+00  0.70296122752E+01  0.70506082110E+01  0.51100000000E-03 0.  1.
        -12    1    4    4    0    0 -0.80470387842E+01  0.41842833123E+01 -0.81804364134E+01  0.12214032911E+02  0.00000000000E+00 0.  1.
</event>
<event>
 8    1  0.1212194E-006  0.9118800E+02  0.7816164E-02  0.1184000E+00
        -11   -1    0    0    0    0  0.00000000000E+00  0.00000000000E+00  0.45593999997E+02  0.45594000000E+02  0.51100000000E-03 0.  1.
         11   -1    0    0    0    0 -0.00000000000E+00 -0.00000000000E+00 -0.45593999997E+02  0.45594000000E+02  0.51100000000E-03 0. -1.
         23    2    1    2    0    0  0.00000000000E+00  0.71054273576E-14 -0.35527136788E-14  0.91188000000E+02  0.91188000000E+02 0.  0.
    9900012    2    3    3    0    0 -0.24388119483E+02 -0.20006208897E+02  0.18993484057E+02  0.54367065697E+02  0.39999957869E+02 0.  0.
         12    1    3    3    0    0  0.24388119483E+02  0.20006208897E+02 -0.18993484057E+02  0.36820934303E+02  0.00000000000E+00 0. -1.
         11    1    4    4    0    0  0.24623956993E+01  0.38918787292E+01 -0.25780835751E+01  0.52779378363E+01  0.51100000000E-03 0. -1.
        -11    1    4    4    0    0 -0.80135983973E+01 -0.45602970233E+01  0.20028764880E+02  0.22049160780E+02  0.51100000000E-03 0.  1.
         12    1    4    4    0    0 -0.18836916785E+02 -0.19337790603E+02  0.15428027514E+01  0.27039967080E+02  0.00000000000E+00 0. -1.
</event>
<event>
 8    1  0.1212194E-006  0.9118800E+02  0.7816164E-02  0.1184000E+00
        -11   -1    0    0    0    0  0.00000000000E+00  0.00000000000E+00  0.45593999997E+02  0.45594000000E+02  0.51100000000E-03 0.  1.
         11   -1    0    0    0    0 -0.00000000000E+00 -0.00000000000E+00 -0.45593999997E+02  0.45594000000E+02  0.51100000000E-03 0. -1.
         23    2    1    2    0    0 -0.17763568394E-14  0.00000000000E+00  0.00000000000E+00  0.91188000000E+02  0.91188000000E+02 0.  0.
    9900012    2    3    3    0    0  0.11827176122E+02 -0.31442828357E+02 -0.15074474927E+02  0.54367172410E+02  0.40000201142E+02 0.  0.
        -12    1    3    3    0    0 -0.11827176122E+02  0.31442828357E+02  0.15074474927E+02  0.36820827590E+02  0.00000000000E+00 0.  1.
         11    1    4    4    0    0  0.15985502125E+00 -0.70757407104E+01  0.29885641131E+01  0.76826542255E+01  0.51100000000E-03 0. -1.
        -11    1    4    4    0    0  0.63479672210E+01 -0.17355964029E+02  0.72756211200E+01  0.19861038194E+02  0.51100000000E-03 0.  1.
        -12    1    4    4    0    0  0.53193538794E+01 -0.70111236180E+01 -0.25338660160E+02  0.26823479990E+02  0.00000000000E+00 0.  1.
</event>
<event>
 8    1  0.1212194E-006  0.9118800E+02  0.7816164E-02  0.1184000E+00
        -11   -1    0    0    0    0  0.00000000000E+00  0.00000000000E+00  0.45593999997E+02  0.45594000000E+02  0.51100000000E-03 0. -1.
         11   -1    0    0    0    0 -0.00000000000E+00 -0.00000000000E+00 -0.45593999997E+02  0.45594000000E+02  0.51100000000E-03 0.  1.
         23    2    1    2    0    0  0.88817841970E-15  0.00000000000E+00  0.35527136788E-14  0.91188000000E+02  0.91188000000E+02 0.  0.
    9900012    2    3    3    0    0  0.55638658771E+01 -0.32008417896E+02 -0.17328731493E+02  0.54367077213E+02  0.39999984123E+02 0.  0.
         12    1    3    3    0    0 -0.55638658771E+01  0.32008417896E+02  0.17328731493E+02  0.36820922787E+02  0.00000000000E+00 0. -1.
         11    1    4    4    0    0  0.56675718115E+01  0.16839757520E+01 -0.44473119783E+01  0.73983598632E+01  0.51100000000E-03 0. -1.
        -11    1    4    4    0    0  0.92563707522E+01 -0.28922936096E+02 -0.17980035536E+02  0.35291618127E+02  0.51100000000E-03 0.  1.
        -12    1    4    4    0    0 -0.93600766866E+01 -0.47694575521E+01  0.50986160210E+01  0.11677099222E+02  0.00000000000E+00 0.  1.
</event>
<event>
 8    1  0.1212194E-006  0.9118800E+02  0.7816164E-02  0.1184000E+00
        -11   -1    0    0    0    0  0.00000000000E+00  0.00000000000E+00  0.45593999997E+02  0.45594000000E+02  0.51100000000E-03 0.  1.
         11   -1    0    0    0    0 -0.00000000000E+00 -0.00000000000E+00 -0.45593999997E+02  0.45594000000E+02  0.51100000000E-03 0. -1.
         23    2    1    2    0    0 -0.35527136788E-14  0.00000000000E+00  0.88817841970E-15  0.91188000000E+02  0.91188000000E+02 0.  0.
    9900012    2    3    3    0    0  0.26135641649E+02 -0.25766185706E+02  0.29685012208E+01  0.54367080814E+02  0.39999992332E+02 0.  0.
        -12    1    3    3    0    0 -0.26135641649E+02  0.25766185706E+02 -0.29685012208E+01  0.36820919186E+02  0.00000000000E+00 0.  1.
         11    1    4    4    0    0  0.17645568846E+00 -0.21754184381E+02 -0.59805158070E+01  0.22561964548E+02  0.51100000000E-03 0. -1.
        -11    1    4    4    0    0  0.37293251815E+01  0.36133182818E+01 -0.23841764876E+01  0.57138632378E+01  0.51100000000E-03 0.  1.
         12    1    4    4    0    0  0.22229860779E+02 -0.76253196068E+01  0.11333193515E+02  0.26091253029E+02  0.00000000000E+00 0. -1.
</event>
<event>
 8    1  0.1212194E-006  0.9118800E+02  0.7816164E-02  0.1184000E+00
        -11   -1    0    0    0    0  0.00000000000E+00  0.00000000000E+00  0.45593999997E+02  0.45594000000E+02  0.51100000000E-03 0.  1.
         11   -1    0    0    0    0 -0.00000000000E+00 -0.00000000000E+00 -0.45593999997E+02  0.45594000000E+02  0.51100000000E-03 0. -1.
         23    2    1    2    0    0  0.71054273576E-14  0.88817841970E-15  0.17763568394E-14  0.91188000000E+02  0.91188000000E+02 0.  0.
    9900012    2    3    3    0    0 -0.33486856357E+02  0.39970587699E+01  0.14779507490E+02  0.54367083809E+02  0.39999999160E+02 0.  0.
         12    1    3    3    0    0  0.33486856357E+02 -0.39970587699E+01 -0.14779507490E+02  0.36820916191E+02  0.00000000000E+00 0. -1.
         11    1    4    4    0    0  0.79431047746E+00  0.12101240616E+02 -0.96414358494E+00  0.12165546708E+02  0.51100000000E-03 0. -1.
        -11    1    4    4    0    0 -0.27012425853E+02 -0.83470744141E-01  0.15959786754E+02  0.31375036435E+02  0.51100000000E-03 0.  1.
         12    1    4    4    0    0 -0.72687409813E+01 -0.80207111024E+01 -0.21613567929E+00  0.10826500666E+02  0.00000000000E+00 0. -1.
</event>
<event>
 8    1  0.1212194E-006  0.9118800E+02  0.7816164E-02  0.1184000E+00
        -11   -1    0    0    0    0  0.00000000000E+00  0.00000000000E+00  0.45593999997E+02  0.45594000000E+02  0.51100000000E-03 0.  1.
         11   -1    0    0    0    0 -0.00000000000E+00 -0.00000000000E+00 -0.45593999997E+02  0.45594000000E+02  0.51100000000E-03 0. -1.
         23    2    1    2    0    0  0.00000000000E+00  0.00000000000E+00  0.00000000000E+00  0.91188000000E+02  0.91188000000E+02 0.  0.
    9900012    2    3    3    0    0  0.23155653845E+02 -0.67213662734E+01  0.27828381476E+02  0.54367083592E+02  0.39999998665E+02 0.  0.
         12    1    3    3    0    0 -0.23155653845E+02  0.67213662734E+01 -0.27828381476E+02  0.36820916408E+02  0.00000000000E+00 0. -1.
         11    1    4    4    0    0  0.11590046727E+01 -0.48490212287E+01  0.28490856114E+02  0.28923782274E+02  0.51100000000E-03 0. -1.
        -11    1    4    4    0    0  0.65955977769E+01  0.47410317680E+00  0.55878903422E+01  0.86574362599E+01  0.51100000000E-03 0.  1.
         12    1    4    4    0    0  0.15401051396E+02 -0.23464482215E+01 -0.62503649803E+01  0.16785865058E+02  0.00000000000E+00 0. -1.
</event>
<event>
 8    1  0.1212194E-006  0.9118800E+02  0.7816164E-02  0.1184000E+00
        -11   -1    0    0    0    0  0.00000000000E+00  0.00000000000E+00  0.45593999997E+02  0.45594000000E+02  0.51100000000E-03 0.  1.
         11   -1    0    0    0    0 -0.00000000000E+00 -0.00000000000E+00 -0.45593999997E+02  0.45594000000E+02  0.51100000000E-03 0. -1.
         23    2    1    2    0    0  0.00000000000E+00  0.88817841970E-15  0.00000000000E+00  0.91188000000E+02  0.91188000000E+02 0.  0.
    9900012    2    3    3    0    0  0.33415394979E+02 -0.53161872585E+01 -0.14523331644E+02  0.54367114206E+02  0.40000068456E+02 0.  0.
        -12    1    3    3    0    0 -0.33415394979E+02  0.53161872585E+01  0.14523331644E+02  0.36820885794E+02  0.00000000000E+00 0.  1.
         11    1    4    4    0    0  0.16837208662E+02 -0.34287534605E+01  0.96030001070E+01  0.19684144816E+02  0.51100000000E-03 0. -1.
        -11    1    4    4    0    0 -0.10223017524E+01 -0.59182766012E+01 -0.24885186197E+01  0.65010632963E+01  0.51100000000E-03 0.  1.
         12    1    4    4    0    0  0.17600488069E+02  0.40308428032E+01 -0.21637813132E+02  0.28181906094E+02  0.00000000000E+00 0. -1.
</event>
<event>
 8    1  0.1212194E-006  0.9118800E+02  0.7816164E-02  0.1184000E+00
        -11   -1    0    0    0    0  0.00000000000E+00  0.00000000000E+00  0.45593999997E+02  0.45594000000E+02  0.51100000000E-03 0. -1.
         11   -1    0    0    0    0 -0.00000000000E+00 -0.00000000000E+00 -0.45593999997E+02  0.45594000000E+02  0.51100000000E-03 0.  1.
         23    2    1    2    0    0  0.00000000000E+00 -0.22204460493E-14  0.71054273576E-14  0.91188000000E+02  0.91188000000E+02 0.  0.
    9900012    2    3    3    0    0  0.22956884062E+02  0.31287667310E+01 -0.28617732829E+02  0.54367050266E+02  0.39999922690E+02 0.  0.
         12    1    3    3    0    0 -0.22956884062E+02 -0.31287667310E+01  0.28617732829E+02  0.36820949734E+02  0.00000000000E+00 0. -1.
         11    1    4    4    0    0  0.50845847995E+00 -0.11091408345E+02 -0.16846728429E+02  0.20176474620E+02  0.51100000000E-03 0. -1.
        -11    1    4    4    0    0  0.87665052282E+01  0.23370876428E+01 -0.13194621882E+02  0.16012858565E+02  0.51100000000E-03 0.  1.
         12    1    4    4    0    0  0.13681920354E+02  0.11883087433E+02  0.14236174814E+01  0.18177717080E+02  0.00000000000E+00 0. -1.
</event>
<event>
 8    1  0.1212194E-006  0.9118800E+02  0.7816164E-02  0.1184000E+00
        -11   -1    0    0    0    0  0.00000000000E+00  0.00000000000E+00  0.45593999997E+02  0.45594000000E+02  0.51100000000E-03 0.  1.
         11   -1    0    0    0    0 -0.00000000000E+00 -0.00000000000E+00 -0.45593999997E+02  0.45594000000E+02  0.51100000000E-03 0. -1.
         23    2    1    2    0    0  0.00000000000E+00  0.13322676296E-14 -0.71054273576E-14  0.91188000000E+02  0.91188000000E+02 0.  0.
    9900012    2    3    3    0    0 -0.12167707612E+02 -0.38901469297E+01  0.34533938770E+02  0.54367091827E+02  0.40000017439E+02 0.  0.
         12    1    3    3    0    0  0.12167707612E+02  0.38901469297E+01 -0.34533938770E+02  0.36820908173E+02  0.00000000000E+00 0. -1.
         11    1    4    4    0    0  0.55135302593E+01  0.25084223460E+01  0.37218562330E+01  0.71093890501E+01  0.51100000000E-03 0. -1.
        -11    1    4    4    0    0  0.19669751207E+01 -0.83912532185E+01  0.25338536661E+02  0.26764221679E+02  0.51100000000E-03 0.  1.
         12    1    4    4    0    0 -0.19648212992E+02  0.19926839427E+01  0.54735458764E+01  0.20493481098E+02  0.00000000000E+00 0. -1.
</event>
<event>
 8    1  0.1212194E-006  0.9118800E+02  0.7816164E-02  0.1184000E+00
        -11   -1    0    0    0    0  0.00000000000E+00  0.00000000000E+00  0.45593999997E+02  0.45594000000E+02  0.51100000000E-03 0. -1.
         11   -1    0    0    0    0 -0.00000000000E+00 -0.00000000000E+00 -0.45593999997E+02  0.45594000000E+02  0.51100000000E-03 0.  1.
         23    2    1    2    0    0  0.00000000000E+00  0.00000000000E+00 -0.17763568394E-14  0.91188000000E+02  0.91188000000E+02 0.  0.
    9900012    2    3    3    0    0 -0.21864288647E+02 -0.28404784009E+02  0.84199936522E+01  0.54367147678E+02  0.40000144761E+02 0.  0.
        -12    1    3    3    0    0  0.21864288647E+02  0.28404784009E+02 -0.84199936522E+01  0.36820852322E+02  0.00000000000E+00 0.  1.
         11    1    4    4    0    0 -0.75534899981E+01 -0.16409560976E+02 -0.54125502124E+01  0.18858011630E+02  0.51100000000E-03 0. -1.
        -11    1    4    4    0    0 -0.26632004274E+01  0.48136993973E+01 -0.52020044823E+01  0.75713399936E+01  0.51100000000E-03 0.  1.
        -12    1    4    4    0    0 -0.11647598222E+02 -0.16808922430E+02  0.19034548347E+02  0.27937796054E+02  0.00000000000E+00 0.  1.
</event>
<event>
 8    1  0.1212194E-006  0.9118800E+02  0.7816164E-02  0.1184000E+00
        -11   -1    0    0    0    0  0.00000000000E+00  0.00000000000E+00  0.45593999997E+02  0.45594000000E+02  0.51100000000E-03 0. -1.
         11   -1    0    0    0    0 -0.00000000000E+00 -0.00000000000E+00 -0.45593999997E+02  0.45594000000E+02  0.51100000000E-03 0.  1.
         23    2    1    2    0    0  0.00000000000E+00  0.00000000000E+00 -0.35527136788E-14  0.91188000000E+02  0.91188000000E+02 0.  0.
    9900012    2    3    3    0    0  0.19842703656E+02 -0.20500777680E+01  0.30949064830E+02  0.54367077672E+02  0.39999985169E+02 0.  0.
        -12    1    3    3    0    0 -0.19842703656E+02  0.20500777680E+01 -0.30949064830E+02  0.36820922328E+02  0.00000000000E+00 0.  1.
         11    1    4    4    0    0 -0.33403279921E+01 -0.11016933739E+02  0.42936430399E+01  0.12286821840E+02  0.51100000000E-03 0.  1.
        -11    1    4    4    0    0  0.25247515001E+02  0.21606746615E+01  0.22189251930E+02  0.33681870942E+02  0.51100000000E-03 0. -1.
        -12    1    4    4    0    0 -0.20644833530E+01  0.68061813098E+01  0.44661698602E+01  0.83983848898E+01  0.00000000000E+00 0.  1.
</event>
<event>
 8    1  0.1212194E-006  0.9118800E+02  0.7816164E-02  0.1184000E+00
        -11   -1    0    0    0    0  0.00000000000E+00  0.00000000000E+00  0.45593999997E+02  0.45594000000E+02  0.51100000000E-03 0. -1.
         11   -1    0    0    0    0 -0.00000000000E+00 -0.00000000000E+00 -0.45593999997E+02  0.45594000000E+02  0.51100000000E-03 0.  1.
         23    2    1    2    0    0  0.00000000000E+00  0.00000000000E+00  0.35527136788E-14  0.91188000000E+02  0.91188000000E+02 0.  0.
    9900012    2    3    3    0    0 -0.12598888385E+01 -0.27627723115E+02 -0.24308472779E+02  0.54367078593E+02  0.39999987268E+02 0.  0.
         12    1    3    3    0    0  0.12598888385E+01  0.27627723115E+02  0.24308472779E+02  0.36820921407E+02  0.00000000000E+00 0. -1.
         11    1    4    4    0    0  0.77193837212E+01  0.78056026083E+00 -0.10374606362E+02  0.12954945650E+02  0.51100000000E-03 0. -1.
        -11    1    4    4    0    0 -0.57913260181E+01 -0.31687103225E+02 -0.67742183898E+01  0.32916591605E+02  0.51100000000E-03 0.  1.
        -12    1    4    4    0    0 -0.31879465416E+01  0.32788198489E+01 -0.71596480267E+01  0.84955413376E+01  0.00000000000E+00 0.  1.
</event>
<event>
 8    1  0.1212194E-006  0.9118800E+02  0.7816164E-02  0.1184000E+00
        -11   -1    0    0    0    0  0.00000000000E+00  0.00000000000E+00  0.45593999997E+02  0.45594000000E+02  0.51100000000E-03 0.  1.
         11   -1    0    0    0    0 -0.00000000000E+00 -0.00000000000E+00 -0.45593999997E+02  0.45594000000E+02  0.51100000000E-03 0. -1.
         23    2    1    2    0    0  0.88817841970E-15 -0.71054273576E-14  0.00000000000E+00  0.91188000000E+02  0.91188000000E+02 0.  0.
    9900012    2    3    3    0    0  0.53662063230E+01 -0.35349173019E+02 -0.87988407572E+01  0.54367084720E+02  0.40000001235E+02 0.  0.
        -12    1    3    3    0    0 -0.53662063230E+01  0.35349173019E+02  0.87988407572E+01  0.36820915280E+02  0.00000000000E+00 0.  1.
         11    1    4    4    0    0  0.55500610830E-01 -0.20444247212E+02  0.76767406143E+01  0.21838101362E+02  0.51100000000E-03 0.  1.
        -11    1    4    4    0    0 -0.64872792374E+01 -0.12408405364E+02 -0.14766035739E+02  0.20349180015E+02  0.51100000000E-03 0. -1.
         12    1    4    4    0    0  0.11797984950E+02 -0.24965204428E+01 -0.17095456329E+01  0.12179803343E+02  0.00000000000E+00 0. -1.
</event>
<event>
 8    1  0.1212194E-006  0.9118800E+02  0.7816164E-02  0.1184000E+00
        -11   -1    0    0    0    0  0.00000000000E+00  0.00000000000E+00  0.45593999997E+02  0.45594000000E+02  0.51100000000E-03 0. -1.
         11   -1    0    0    0    0 -0.00000000000E+00 -0.00000000000E+00 -0.45593999997E+02  0.45594000000E+02  0.51100000000E-03 0.  1.
         23    2    1    2    0    0 -0.35527136788E-14  0.17763568394E-14  0.35527136788E-14  0.91188000000E+02  0.91188000000E+02 0.  0.
    9900012    2    3    3    0    0 -0.26783032688E+02  0.15607214203E+02  0.19871119908E+02  0.54367117589E+02  0.40000076168E+02 0.  0.
        -12    1    3    3    0    0  0.26783032688E+02 -0.15607214203E+02 -0.19871119908E+02  0.36820882411E+02  0.00000000000E+00 0.  1.
         11    1    4    4    0    0 -0.86782411321E+01 -0.74578822742E+00  0.22051682962E+02  0.23709592804E+02  0.51100000000E-03 0. -1.
        -11    1    4    4    0    0 -0.17541306999E+02  0.41927572818E+01  0.10401001776E+01  0.18065394363E+02  0.51100000000E-03 0.  1.
        -12    1    4    4    0    0 -0.56348455691E+00  0.12160245148E+02 -0.32206632314E+01  0.12592130422E+02  0.00000000000E+00 0.  1.
</event>
<event>
 8    1  0.1212194E-006  0.9118800E+02  0.7816164E-02  0.1184000E+00
        -11   -1    0    0    0    0  0.00000000000E+00  0.00000000000E+00  0.45593999997E+02  0.45594000000E+02  0.51100000000E-03 0.  1.
         11   -1    0    0    0    0 -0.00000000000E+00 -0.00000000000E+00 -0.45593999997E+02  0.45594000000E+02  0.51100000000E-03 0. -1.
         23    2    1    2    0    0 -0.26645352591E-14  0.00000000000E+00  0.35527136788E-14  0.91188000000E+02  0.91188000000E+02 0.  0.
    9900012    2    3    3    0    0 -0.63592887891E+01  0.19588564946E+02  0.30522573345E+02  0.54367083198E+02  0.39999997766E+02 0.  0.
         12    1    3    3    0    0  0.63592887891E+01 -0.19588564946E+02 -0.30522573345E+02  0.36820916802E+02  0.00000000000E+00 0. -1.
         11    1    4    4    0    0  0.11512401086E+02  0.97069246925E+01  0.43889138147E+01  0.15685098995E+02  0.51100000000E-03 0. -1.
        -11    1    4    4    0    0  0.18919781437E+01  0.70317998370E+01  0.12622432913E+02  0.14572288879E+02  0.51100000000E-03 0.  1.
        -12    1    4    4    0    0 -0.19763668019E+02  0.28498404169E+01  0.13511226617E+02  0.24109695324E+02  0.00000000000E+00 0.  1.
</event>
<event>
 8    1  0.1212194E-006  0.9118800E+02  0.7816164E-02  0.1184000E+00
        -11   -1    0    0    0    0  0.00000000000E+00  0.00000000000E+00  0.45593999997E+02  0.45594000000E+02  0.51100000000E-03 0.  1.
         11   -1    0    0    0    0 -0.00000000000E+00 -0.00000000000E+00 -0.45593999997E+02  0.45594000000E+02  0.51100000000E-03 0. -1.
         23    2    1    2    0    0 -0.35527136788E-14 -0.88817841970E-15 -0.71054273576E-14  0.91188000000E+02  0.91188000000E+02 0.  0.
    9900012    2    3    3    0    0 -0.12251980109E+02 -0.56665011522E+01 -0.34257259112E+02  0.54367081302E+02  0.39999993443E+02 0.  0.
        -12    1    3    3    0    0  0.12251980109E+02  0.56665011522E+01  0.34257259112E+02  0.36820918698E+02  0.00000000000E+00 0.  1.
         11    1    4    4    0    0 -0.82114629154E+01 -0.98323693306E+01 -0.24642873389E+02  0.27773635321E+02  0.51100000000E-03 0. -1.
        -11    1    4    4    0    0  0.27938035563E+01  0.63552464413E+01 -0.15711340558E+02  0.17176749344E+02  0.51100000000E-03 0.  1.
        -12    1    4    4    0    0 -0.68343207497E+01 -0.21893782629E+01  0.60969548340E+01  0.94166966361E+01  0.00000000000E+00 0.  1.
</event>
<event>
 8    1  0.1212194E-006  0.9118800E+02  0.7816164E-02  0.1184000E+00
        -11   -1    0    0    0    0  0.00000000000E+00  0.00000000000E+00  0.45593999997E+02  0.45594000000E+02  0.51100000000E-03 0.  1.
         11   -1    0    0    0    0 -0.00000000000E+00 -0.00000000000E+00 -0.45593999997E+02  0.45594000000E+02  0.51100000000E-03 0. -1.
         23    2    1    2    0    0 -0.88817841970E-15 -0.88817841970E-15  0.00000000000E+00  0.91188000000E+02  0.91188000000E+02 0.  0.
    9900012    2    3    3    0    0  0.39333101239E+00 -0.63828310262E+01  0.36261337208E+02  0.54367084513E+02  0.40000000764E+02 0.  0.
         12    1    3    3    0    0 -0.39333101239E+00  0.63828310262E+01 -0.36261337208E+02  0.36820915487E+02  0.00000000000E+00 0. -1.
         11    1    4    4    0    0  0.12384682006E+01 -0.86436362568E+01 -0.27664920460E-01  0.87319537809E+01  0.51100000000E-03 0. -1.
        -11    1    4    4    0    0 -0.11980943229E+02  0.86797749434E+01  0.20339845540E+02  0.25151358027E+02  0.51100000000E-03 0.  1.
        -12    1    4    4    0    0  0.11135806041E+02 -0.64189697129E+01  0.15949156588E+02  0.20483772705E+02  0.00000000000E+00 0.  1.
</event>
<event>
 8    1  0.1212194E-006  0.9118800E+02  0.7816164E-02  0.1184000E+00
        -11   -1    0    0    0    0  0.00000000000E+00  0.00000000000E+00  0.45593999997E+02  0.45594000000E+02  0.51100000000E-03 0.  1.
         11   -1    0    0    0    0 -0.00000000000E+00 -0.00000000000E+00 -0.45593999997E+02  0.45594000000E+02  0.51100000000E-03 0. -1.
         23    2    1    2    0    0  0.00000000000E+00  0.00000000000E+00  0.71054273576E-14  0.91188000000E+02  0.91188000000E+02 0.  0.
    9900012    2    3    3    0    0  0.53229330219E+01 -0.18575540340E+02 -0.31343172036E+02  0.54367099031E+02  0.40000033861E+02 0.  0.
        -12    1    3    3    0    0 -0.53229330219E+01  0.18575540340E+02  0.31343172036E+02  0.36820900969E+02  0.00000000000E+00 0.  1.
         11    1    4    4    0    0  0.50794119760E+01  0.17104273577E+01 -0.13200385153E+02  0.14246970072E+02  0.51100000000E-03 0. -1.
        -11    1    4    4    0    0  0.13358354152E+02 -0.10791768106E+02 -0.20545279779E+01  0.17295345327E+02  0.51100000000E-03 0.  1.
         12    1    4    4    0    0 -0.13114833106E+02 -0.94941995919E+01 -0.16088258905E+02  0.22824783633E+02  0.00000000000E+00 0. -1.
</event>
<event>
 8    1  0.1212194E-006  0.9118800E+02  0.7816164E-02  0.1184000E+00
        -11   -1    0    0    0    0  0.00000000000E+00  0.00000000000E+00  0.45593999997E+02  0.45594000000E+02  0.51100000000E-03 0.  1.
         11   -1    0    0    0    0 -0.00000000000E+00 -0.00000000000E+00 -0.45593999997E+02  0.45594000000E+02  0.51100000000E-03 0. -1.
         23    2    1    2    0    0 -0.17763568394E-14 -0.71054273576E-14 -0.17763568394E-14  0.91188000000E+02  0.91188000000E+02 0.  0.
    9900012    2    3    3    0    0 -0.10856964459E+02 -0.32718380611E+02 -0.12938837661E+02  0.54367087096E+02  0.40000006652E+02 0.  0.
        -12    1    3    3    0    0  0.10856964459E+02  0.32718380611E+02  0.12938837661E+02  0.36820912904E+02  0.00000000000E+00 0.  1.
         11    1    4    4    0    0 -0.11973393907E+02 -0.26820427124E+02 -0.66243796911E+01  0.30109464946E+02  0.51100000000E-03 0. -1.
        -11    1    4    4    0    0 -0.98316672408E+01 -0.74762301723E+01 -0.30003144040E+01  0.12710530481E+02  0.51100000000E-03 0.  1.
        -12    1    4    4    0    0  0.10948096690E+02  0.15782766854E+01 -0.33141435664E+01  0.11547091668E+02  0.00000000000E+00 0.  1.
</event>
<event>
 8    1  0.1212194E-006  0.9118800E+02  0.7816164E-02  0.1184000E+00
        -11   -1    0    0    0    0  0.00000000000E+00  0.00000000000E+00  0.45593999997E+02  0.45594000000E+02  0.51100000000E-03 0.  1.
         11   -1    0    0    0    0 -0.00000000000E+00 -0.00000000000E+00 -0.45593999997E+02  0.45594000000E+02  0.51100000000E-03 0. -1.
         23    2    1    2    0    0  0.17763568394E-14 -0.71054273576E-14  0.00000000000E+00  0.91188000000E+02  0.91188000000E+02 0.  0.
    9900012    2    3    3    0    0 -0.69878036752E+01  0.16580822963E+02 -0.32125184966E+02  0.54367073893E+02  0.39999976553E+02 0.  0.
        -12    1    3    3    0    0  0.69878036752E+01 -0.16580822963E+02  0.32125184966E+02  0.36820926107E+02  0.00000000000E+00 0.  1.
         11    1    4    4    0    0 -0.83843387824E+00 -0.22817361145E+01 -0.20711410373E+02  0.20853580291E+02  0.51100000000E-03 0. -1.
        -11    1    4    4    0    0  0.24471565279E+00 -0.44317071660E+01 -0.79574484854E+01  0.91115805882E+01  0.51100000000E-03 0.  1.
        -12    1    4    4    0    0 -0.63940854498E+01  0.23294266243E+02 -0.34563261073E+01  0.24401913013E+02  0.00000000000E+00 0.  1.
</event>
<event>
 8    1  0.1212194E-006  0.9118800E+02  0.7816164E-02  0.1184000E+00
        -11   -1    0    0    0    0  0.00000000000E+00  0.00000000000E+00  0.45593999997E+02  0.45594000000E+02  0.51100000000E-03 0.  1.
         11   -1    0    0    0    0 -0.00000000000E+00 -0.00000000000E+00 -0.45593999997E+02  0.45594000000E+02  0.51100000000E-03 0. -1.
         23    2    1    2    0    0  0.35527136788E-14  0.00000000000E+00 -0.35527136788E-14  0.91188000000E+02  0.91188000000E+02 0.  0.
    9900012    2    3    3    0    0 -0.31355938047E+02  0.16367383550E+02 -0.10231967045E+02  0.54367092289E+02  0.40000018491E+02 0.  0.
        -12    1    3    3    0    0  0.31355938047E+02 -0.16367383550E+02  0.10231967045E+02  0.36820907711E+02  0.00000000000E+00 0.  1.
         11    1    4    4    0    0 -0.15314834163E+02  0.18097142362E+02 -0.18628429576E+02  0.30150772724E+02  0.51100000000E-03 0. -1.
        -11    1    4    4    0    0 -0.41852008179E+00 -0.28539235588E+01  0.80481926560E+01  0.85494703945E+01  0.51100000000E-03 0.  1.
        -12    1    4    4    0    0 -0.15622583802E+02  0.11241647463E+01  0.34826987473E+00  0.15666849171E+02  0.00000000000E+00 0.  1.
</event>
<event>
 8    1  0.1212194E-006  0.9118800E+02  0.7816164E-02  0.1184000E+00
        -11   -1    0    0    0    0  0.00000000000E+00  0.00000000000E+00  0.45593999997E+02  0.45594000000E+02  0.51100000000E-03 0.  1.
         11   -1    0    0    0    0 -0.00000000000E+00 -0.00000000000E+00 -0.45593999997E+02  0.45594000000E+02  0.51100000000E-03 0. -1.
         23    2    1    2    0    0  0.88817841970E-15  0.00000000000E+00  0.00000000000E+00  0.91188000000E+02  0.91188000000E+02 0.  0.
    9900012    2    3    3    0    0  0.52336110892E+01  0.27714078995E+02 -0.23671117956E+02  0.54367045574E+02  0.39999911995E+02 0.  0.
        -12    1    3    3    0    0 -0.52336110892E+01 -0.27714078995E+02  0.23671117956E+02  0.36820954426E+02  0.00000000000E+00 0.  1.
         11    1    4    4    0    0 -0.38269090223E+01 -0.61932165219E+01 -0.58014915898E+01  0.93090530388E+01  0.51100000000E-03 0. -1.
        -11    1    4    4    0    0  0.12016149433E+02  0.30340227766E+02 -0.21579775073E+02  0.39122933946E+02  0.51100000000E-03 0.  1.
         12    1    4    4    0    0 -0.29556293219E+01  0.35670677507E+01  0.37101487068E+01  0.59350585889E+01  0.00000000000E+00 0. -1.
</event>
<event>
 8    1  0.1212194E-006  0.9118800E+02  0.7816164E-02  0.1184000E+00
        -11   -1    0    0    0    0  0.00000000000E+00  0.00000000000E+00  0.45593999997E+02  0.45594000000E+02  0.51100000000E-03 0. -1.
         11   -1    0    0    0    0 -0.00000000000E+00 -0.00000000000E+00 -0.45593999997E+02  0.45594000000E+02  0.51100000000E-03 0.  1.
         23    2    1    2    0    0  0.00000000000E+00  0.35527136788E-14  0.00000000000E+00  0.91188000000E+02  0.91188000000E+02 0.  0.
    9900012    2    3    3    0    0 -0.71100989855E+01  0.30479147945E+02 -0.19397098947E+02  0.54367089982E+02  0.40000013231E+02 0.  0.
         12    1    3    3    0    0  0.71100989855E+01 -0.30479147945E+02  0.19397098947E+02  0.36820910018E+02  0.00000000000E+00 0. -1.
         11    1    4    4    0    0  0.85392301001E+00 -0.38345236693E+01 -0.13083354977E+02  0.13660414854E+02  0.51100000000E-03 0. -1.
        -11    1    4    4    0    0 -0.70893520727E+01  0.36344621873E+02 -0.35971991004E+01  0.37203901590E+02  0.51100000000E-03 0.  1.
        -12    1    4    4    0    0 -0.87466992274E+00 -0.20309502586E+01 -0.27165448698E+01  0.35027735377E+01  0.00000000000E+00 0.  1.
</event>
<event>
 8    1  0.1212194E-006  0.9118800E+02  0.7816164E-02  0.1184000E+00
        -11   -1    0    0    0    0  0.00000000000E+00  0.00000000000E+00  0.45593999997E+02  0.45594000000E+02  0.51100000000E-03 0.  1.
         11   -1    0    0    0    0 -0.00000000000E+00 -0.00000000000E+00 -0.45593999997E+02  0.45594000000E+02  0.51100000000E-03 0. -1.
         23    2    1    2    0    0  0.00000000000E+00  0.00000000000E+00 -0.35527136788E-14  0.91188000000E+02  0.91188000000E+02 0.  0.
    9900012    2    3    3    0    0  0.16878653374E+02 -0.21182439001E+02  0.24943835395E+02  0.54367087654E+02  0.40000007925E+02 0.  0.
         12    1    3    3    0    0 -0.16878653374E+02  0.21182439001E+02 -0.24943835395E+02  0.36820912346E+02  0.00000000000E+00 0. -1.
         11    1    4    4    0    0  0.55552822617E+01  0.27179874227E+01 -0.33470013295E+01  0.70321429734E+01  0.51100000000E-03 0. -1.
        -11    1    4    4    0    0  0.10033809282E+01 -0.95396980040E+01 -0.40993868924E+01  0.10431566730E+02  0.51100000000E-03 0.  1.
        -12    1    4    4    0    0  0.10319990184E+02 -0.14360728420E+02  0.32390223617E+02  0.36903377950E+02  0.00000000000E+00 0.  1.
</event>
<event>
 8    1  0.1212194E-006  0.9118800E+02  0.7816164E-02  0.1184000E+00
        -11   -1    0    0    0    0  0.00000000000E+00  0.00000000000E+00  0.45593999997E+02  0.45594000000E+02  0.51100000000E-03 0. -1.
         11   -1    0    0    0    0 -0.00000000000E+00 -0.00000000000E+00 -0.45593999997E+02  0.45594000000E+02  0.51100000000E-03 0.  1.
         23    2    1    2    0    0  0.00000000000E+00  0.00000000000E+00  0.00000000000E+00  0.91188000000E+02  0.91188000000E+02 0.  0.
    9900012    2    3    3    0    0 -0.15548034934E+02  0.29075642195E+02 -0.16390453089E+02  0.54367064219E+02  0.39999954499E+02 0.  0.
         12    1    3    3    0    0  0.15548034934E+02 -0.29075642195E+02  0.16390453089E+02  0.36820935781E+02  0.00000000000E+00 0. -1.
         11    1    4    4    0    0 -0.12210994044E+02 -0.32861484072E+01 -0.90558869656E+01  0.15553656673E+02  0.51100000000E-03 0.  1.
        -11    1    4    4    0    0  0.57597538661E+01  0.76021080262E+01  0.36870041611E+01  0.10225498080E+02  0.51100000000E-03 0. -1.
        -12    1    4    4    0    0 -0.90967947558E+01  0.24759682576E+02 -0.11021570284E+02  0.28587909466E+02  0.00000000000E+00 0.  1.
</event>
<event>
 8    1  0.1212194E-006  0.9118800E+02  0.7816164E-02  0.1184000E+00
        -11   -1    0    0    0    0  0.00000000000E+00  0.00000000000E+00  0.45593999997E+02  0.45594000000E+02  0.51100000000E-03 0.  1.
         11   -1    0    0    0    0 -0.00000000000E+00 -0.00000000000E+00 -0.45593999997E+02  0.45594000000E+02  0.51100000000E-03 0. -1.
         23    2    1    2    0    0  0.00000000000E+00  0.17763568394E-14  0.00000000000E+00  0.91188000000E+02  0.91188000000E+02 0.  0.
    9900012    2    3    3    0    0  0.28073699641E+02 -0.11484300535E+02  0.20874936361E+02  0.54367017688E+02  0.39999848423E+02 0.  0.
         12    1    3    3    0    0 -0.28073699641E+02  0.11484300535E+02 -0.20874936361E+02  0.36820982312E+02  0.00000000000E+00 0. -1.
         11    1    4    4    0    0  0.28012569657E+00 -0.85217632523E+01 -0.12599887250E+01  0.86189611428E+01  0.51100000000E-03 0. -1.
        -11    1    4    4    0    0  0.24420289441E+02 -0.48800365015E+01  0.28776610682E+02  0.38055993158E+02  0.51100000000E-03 0.  1.
        -12    1    4    4    0    0  0.33732845039E+01  0.19174992190E+01 -0.66416855960E+01  0.76920633874E+01  0.00000000000E+00 0.  1.
</event>
<event>
 8    1  0.1212194E-006  0.9118800E+02  0.7816164E-02  0.1184000E+00
        -11   -1    0    0    0    0  0.00000000000E+00  0.00000000000E+00  0.45593999997E+02  0.45594000000E+02  0.51100000000E-03 0. -1.
         11   -1    0    0    0    0 -0.00000000000E+00 -0.00000000000E+00 -0.45593999997E+02  0.45594000000E+02  0.51100000000E-03 0.  1.
         23    2    1    2    0    0  0.00000000000E+00  0.00000000000E+00  0.35527136788E-14  0.91188000000E+02  0.91188000000E+02 0.  0.
    9900012    2    3    3    0    0  0.13625645049E+02 -0.26063259828E+02  0.22154586032E+02  0.54367117364E+02  0.40000075654E+02 0.  0.
        -12    1    3    3    0    0 -0.13625645049E+02  0.26063259828E+02 -0.22154586032E+02  0.36820882636E+02  0.00000000000E+00 0.  1.
         11    1    4    4    0    0  0.93457588748E+01 -0.28441038312E+02  0.62348477001E+00  0.29943690533E+02  0.51100000000E-03 0. -1.
        -11    1    4    4    0    0  0.11386429502E+01  0.44568658583E+01  0.19709421711E+02  0.20239107330E+02  0.51100000000E-03 0.  1.
         12    1    4    4    0    0  0.31412432239E+01 -0.20790873736E+01  0.18216795508E+01  0.41843195008E+01  0.00000000000E+00 0. -1.
</event>
<event>
 8    1  0.1212194E-006  0.9118800E+02  0.7816164E-02  0.1184000E+00
        -11   -1    0    0    0    0  0.00000000000E+00  0.00000000000E+00  0.45593999997E+02  0.45594000000E+02  0.51100000000E-03 0.  1.
         11   -1    0    0    0    0 -0.00000000000E+00 -0.00000000000E+00 -0.45593999997E+02  0.45594000000E+02  0.51100000000E-03 0. -1.
         23    2    1    2    0    0  0.00000000000E+00  0.00000000000E+00  0.35527136788E-14  0.91188000000E+02  0.91188000000E+02 0.  0.
    9900012    2    3    3    0    0  0.31326867477E+02 -0.91064923060E+01  0.17072844382E+02  0.54367043422E+02  0.39999907090E+02 0.  0.
         12    1    3    3    0    0 -0.31326867477E+02  0.91064923060E+01 -0.17072844382E+02  0.36820956578E+02  0.00000000000E+00 0. -1.
         11    1    4    4    0    0  0.34975727764E+01 -0.13541511545E+02  0.32899427382E+01  0.14367646771E+02  0.51100000000E-03 0. -1.
        -11    1    4    4    0    0  0.25003244972E+02 -0.44644573656E+01  0.16484222854E+02  0.30279089188E+02  0.51100000000E-03 0.  1.
         12    1    4    4    0    0  0.28260497283E+01  0.88994766045E+01 -0.27013212107E+01  0.97203074635E+01  0.00000000000E+00 0. -1.
</event>
<event>
 8    1  0.1212194E-006  0.9118800E+02  0.7816164E-02  0.1184000E+00
        -11   -1    0    0    0    0  0.00000000000E+00  0.00000000000E+00  0.45593999997E+02  0.45594000000E+02  0.51100000000E-03 0.  1.
         11   -1    0    0    0    0 -0.00000000000E+00 -0.00000000000E+00 -0.45593999997E+02  0.45594000000E+02  0.51100000000E-03 0. -1.
         23    2    1    2    0    0  0.35527136788E-14  0.71054273576E-14  0.00000000000E+00  0.91188000000E+02  0.91188000000E+02 0.  0.
    9900012    2    3    3    0    0  0.17723842353E+02  0.31811792978E+02  0.54454425066E+01  0.54367114563E+02  0.40000069270E+02 0.  0.
         12    1    3    3    0    0 -0.17723842353E+02 -0.31811792978E+02 -0.54454425066E+01  0.36820885437E+02  0.00000000000E+00 0. -1.
         11    1    4    4    0    0  0.98564251950E+01  0.90226446631E+01 -0.15849694506E+02  0.20730896038E+02  0.51100000000E-03 0. -1.
        -11    1    4    4    0    0  0.37276068816E+01  0.26575659286E+01  0.86924970888E+00  0.46597537538E+01  0.51100000000E-03 0.  1.
        -12    1    4    4    0    0  0.41398102768E+01  0.20131582387E+02  0.20425887304E+02  0.28976464772E+02  0.00000000000E+00 0.  1.
</event>
<event>
 8    1  0.1212194E-006  0.9118800E+02  0.7816164E-02  0.1184000E+00
        -11   -1    0    0    0    0  0.00000000000E+00  0.00000000000E+00  0.45593999997E+02  0.45594000000E+02  0.51100000000E-03 0.  1.
         11   -1    0    0    0    0 -0.00000000000E+00 -0.00000000000E+00 -0.45593999997E+02  0.45594000000E+02  0.51100000000E-03 0. -1.
         23    2    1    2    0    0  0.00000000000E+00  0.00000000000E+00  0.00000000000E+00  0.91188000000E+02  0.91188000000E+02 0.  0.
    9900012    2    3    3    0    0  0.43054521859E+01 -0.31399791681E+02  0.18742873445E+02  0.54367093695E+02  0.40000021697E+02 0.  0.
         12    1    3    3    0    0 -0.43054521859E+01  0.31399791681E+02 -0.18742873445E+02  0.36820906305E+02  0.00000000000E+00 0. -1.
         11    1    4    4    0    0  0.55735138458E-01  0.32233654852E+01  0.10901141554E+02  0.11367852871E+02  0.51100000000E-03 0. -1.
        -11    1    4    4    0    0 -0.27583864811E+01 -0.35019820649E+02  0.77806841733E+01  0.35979655095E+02  0.51100000000E-03 0.  1.
         12    1    4    4    0    0  0.70081035286E+01  0.39666348336E+00  0.61047717462E-01  0.70195857293E+01  0.00000000000E+00 0. -1.
</event>
<event>
 8    1  0.1212194E-006  0.9118800E+02  0.7816164E-02  0.1184000E+00
        -11   -1    0    0    0    0  0.00000000000E+00  0.00000000000E+00  0.45593999997E+02  0.45594000000E+02  0.51100000000E-03 0.  1.
         11   -1    0    0    0    0 -0.00000000000E+00 -0.00000000000E+00 -0.45593999997E+02  0.45594000000E+02  0.51100000000E-03 0. -1.
         23    2    1    2    0    0  0.35527136788E-14  0.35527136788E-14  0.00000000000E+00  0.91188000000E+02  0.91188000000E+02 0.  0.
    9900012    2    3    3    0    0 -0.25611510780E+02  0.16441079913E+02  0.20724896654E+02  0.54367082923E+02  0.39999997139E+02 0.  0.
        -12    1    3    3    0    0  0.25611510780E+02 -0.16441079913E+02 -0.20724896654E+02  0.36820917077E+02  0.00000000000E+00 0.  1.
         11    1    4    4    0    0 -0.65842925035E+01 -0.58725324736E+01  0.33034611226E+01  0.94208492757E+01  0.51100000000E-03 0. -1.
        -11    1    4    4    0    0  0.40570706014E+01  0.62052999640E-02 -0.45115420803E+01  0.60674436605E+01  0.51100000000E-03 0.  1.
         12    1    4    4    0    0 -0.23084288877E+02  0.22307407087E+02  0.21932977611E+02  0.38878789986E+02  0.00000000000E+00 0. -1.
</event>
<event>
 8    1  0.1212194E-006  0.9118800E+02  0.7816164E-02  0.1184000E+00
        -11   -1    0    0    0    0  0.00000000000E+00  0.00000000000E+00  0.45593999997E+02  0.45594000000E+02  0.51100000000E-03 0. -1.
         11   -1    0    0    0    0 -0.00000000000E+00 -0.00000000000E+00 -0.45593999997E+02  0.45594000000E+02  0.51100000000E-03 0.  1.
         23    2    1    2    0    0  0.00000000000E+00  0.00000000000E+00 -0.35527136788E-14  0.91188000000E+02  0.91188000000E+02 0.  0.
    9900012    2    3    3    0    0 -0.19423210001E+02 -0.32096553799E+01  0.31116181346E+02  0.54367085890E+02  0.40000003902E+02 0.  0.
        -12    1    3    3    0    0  0.19423210001E+02  0.32096553799E+01 -0.31116181346E+02  0.36820914110E+02  0.00000000000E+00 0.  1.
         11    1    4    4    0    0  0.54653024778E+00 -0.11619685676E+02  0.16675631358E+01  0.11751449170E+02  0.51100000000E-03 0. -1.
        -11    1    4    4    0    0 -0.70120194674E+01  0.56593342186E+01 -0.13290716870E+01  0.91083979173E+01  0.51100000000E-03 0.  1.
         12    1    4    4    0    0 -0.12957720781E+02  0.27506960777E+01  0.30777689897E+02  0.33507238802E+02  0.00000000000E+00 0. -1.
</event>
<event>
 8    1  0.1212194E-006  0.9118800E+02  0.7816164E-02  0.1184000E+00
        -11   -1    0    0    0    0  0.00000000000E+00  0.00000000000E+00  0.45593999997E+02  0.45594000000E+02  0.51100000000E-03 0.  1.
         11   -1    0    0    0    0 -0.00000000000E+00 -0.00000000000E+00 -0.45593999997E+02  0.45594000000E+02  0.51100000000E-03 0. -1.
         23    2    1    2    0    0  0.13322676296E-14  0.17763568394E-14  0.00000000000E+00  0.91188000000E+02  0.91188000000E+02 0.  0.
    9900012    2    3    3    0    0  0.32938636451E+01 -0.10705795736E+02 -0.35075851952E+02  0.54367095744E+02  0.40000026368E+02 0.  0.
        -12    1    3    3    0    0 -0.32938636451E+01  0.10705795736E+02  0.35075851952E+02  0.36820904256E+02  0.00000000000E+00 0.  1.
         11    1    4    4    0    0 -0.10648115078E+02 -0.27226040797E+01 -0.10223783344E+01  0.11038124180E+02  0.51100000000E-03 0. -1.
        -11    1    4    4    0    0  0.15614467214E+02  0.23723610530E+01 -0.16219333331E+02  0.22638605462E+02  0.51100000000E-03 0.  1.
         12    1    4    4    0    0 -0.16724884906E+01 -0.10355552709E+02 -0.17834140287E+02  0.20690366102E+02  0.00000000000E+00 0. -1.
</event>
<event>
 8    1  0.1212194E-006  0.9118800E+02  0.7816164E-02  0.1184000E+00
        -11   -1    0    0    0    0  0.00000000000E+00  0.00000000000E+00  0.45593999997E+02  0.45594000000E+02  0.51100000000E-03 0. -1.
         11   -1    0    0    0    0 -0.00000000000E+00 -0.00000000000E+00 -0.45593999997E+02  0.45594000000E+02  0.51100000000E-03 0.  1.
         23    2    1    2    0    0  0.00000000000E+00  0.00000000000E+00  0.00000000000E+00  0.91188000000E+02  0.91188000000E+02 0.  0.
    9900012    2    3    3    0    0 -0.16760384410E+02 -0.28497526317E+02 -0.16209902264E+02  0.54367076286E+02  0.39999982008E+02 0.  0.
         12    1    3    3    0    0  0.16760384410E+02  0.28497526317E+02  0.16209902264E+02  0.36820923714E+02  0.00000000000E+00 0. -1.
         11    1    4    4    0    0  0.65601175969E+01 -0.87781009600E+01  0.11070003084E+01  0.11014338350E+02  0.51100000000E-03 0. -1.
        -11    1    4    4    0    0  0.36808725305E+01 -0.56385253151E+01  0.23153193354E+01  0.71205683903E+01  0.51100000000E-03 0.  1.
        -12    1    4    4    0    0 -0.27001374537E+02 -0.14080900042E+02 -0.19632221908E+02  0.36232169545E+02  0.00000000000E+00 0.  1.
</event>
<event>
 8    1  0.1212194E-006  0.9118800E+02  0.7816164E-02  0.1184000E+00
        -11   -1    0    0    0    0  0.00000000000E+00  0.00000000000E+00  0.45593999997E+02  0.45594000000E+02  0.51100000000E-03 0.  1.
         11   -1    0    0    0    0 -0.00000000000E+00 -0.00000000000E+00 -0.45593999997E+02  0.45594000000E+02  0.51100000000E-03 0. -1.
         23    2    1    2    0    0  0.00000000000E+00  0.00000000000E+00  0.00000000000E+00  0.91188000000E+02  0.91188000000E+02 0.  0.
    9900012    2    3    3    0    0 -0.11776743966E+02  0.84778934581E+01 -0.33840996286E+02  0.54367090104E+02  0.40000013510E+02 0.  0.
        -12    1    3    3    0    0  0.11776743966E+02 -0.84778934581E+01  0.33840996286E+02  0.36820909896E+02  0.00000000000E+00 0.  1.
         11    1    4    4    0    0  0.32035012184E+01  0.14031179383E+02 -0.21376347840E+02  0.25769840166E+02  0.51100000000E-03 0. -1.
        -11    1    4    4    0    0 -0.10306138349E+02  0.49539342197E+01  0.27057550326E+00  0.11438145098E+02  0.51100000000E-03 0.  1.
         12    1    4    4    0    0 -0.46741068349E+01 -0.10507220144E+02 -0.12735223949E+02  0.17159104840E+02  0.00000000000E+00 0. -1.
</event>
<event>
 8    1  0.1212194E-006  0.9118800E+02  0.7816164E-02  0.1184000E+00
        -11   -1    0    0    0    0  0.00000000000E+00  0.00000000000E+00  0.45593999997E+02  0.45594000000E+02  0.51100000000E-03 0. -1.
         11   -1    0    0    0    0 -0.00000000000E+00 -0.00000000000E+00 -0.45593999997E+02  0.45594000000E+02  0.51100000000E-03 0.  1.
         23    2    1    2    0    0  0.17763568394E-14  0.88817841970E-15  0.00000000000E+00  0.91188000000E+02  0.91188000000E+02 0.  0.
    9900012    2    3    3    0    0 -0.15745700668E+02 -0.71321151458E+01 -0.32511236066E+02  0.54367155000E+02  0.40000161453E+02 0.  0.
         12    1    3    3    0    0  0.15745700668E+02  0.71321151458E+01  0.32511236066E+02  0.36820845000E+02  0.00000000000E+00 0. -1.
         11    1    4    4    0    0  0.66683721938E+01  0.56677668696E+01 -0.78952430187E+01  0.11786671777E+02  0.51100000000E-03 0. -1.
        -11    1    4    4    0    0  0.22831573039E+01 -0.61941409220E+01  0.65398657160E+00  0.66338441143E+01  0.51100000000E-03 0.  1.
        -12    1    4    4    0    0 -0.24697230166E+02 -0.66057410934E+01 -0.25269979619E+02  0.35946639108E+02  0.00000000000E+00 0.  1.
</event>
<event>
 8    1  0.1212194E-006  0.9118800E+02  0.7816164E-02  0.1184000E+00
        -11   -1    0    0    0    0  0.00000000000E+00  0.00000000000E+00  0.45593999997E+02  0.45594000000E+02  0.51100000000E-03 0.  1.
         11   -1    0    0    0    0 -0.00000000000E+00 -0.00000000000E+00 -0.45593999997E+02  0.45594000000E+02  0.51100000000E-03 0. -1.
         23    2    1    2    0    0  0.00000000000E+00 -0.44408920985E-15  0.00000000000E+00  0.91188000000E+02  0.91188000000E+02 0.  0.
    9900012    2    3    3    0    0 -0.31865376190E+02 -0.23951924143E+01 -0.18293186864E+02  0.54367084312E+02  0.40000000307E+02 0.  0.
        -12    1    3    3    0    0  0.31865376190E+02  0.23951924143E+01  0.18293186864E+02  0.36820915688E+02  0.00000000000E+00 0.  1.
         11    1    4    4    0    0 -0.21820085884E+02 -0.82633948528E+00 -0.37141036940E+01  0.22149346524E+02  0.51100000000E-03 0. -1.
        -11    1    4    4    0    0  0.29534660139E+01 -0.11294179454E+02 -0.99432551205E+01  0.15334594018E+02  0.51100000000E-03 0.  1.
         12    1    4    4    0    0 -0.12998756320E+02  0.97253265248E+01 -0.46358280498E+01  0.16883143771E+02  0.00000000000E+00 0. -1.
</event>
<event>
 8    1  0.1212194E-006  0.9118800E+02  0.7816164E-02  0.1184000E+00
        -11   -1    0    0    0    0  0.00000000000E+00  0.00000000000E+00  0.45593999997E+02  0.45594000000E+02  0.51100000000E-03 0. -1.
         11   -1    0    0    0    0 -0.00000000000E+00 -0.00000000000E+00 -0.45593999997E+02  0.45594000000E+02  0.51100000000E-03 0.  1.
         23    2    1    2    0    0  0.13322676296E-14 -0.35527136788E-14  0.00000000000E+00  0.91188000000E+02  0.91188000000E+02 0.  0.
    9900012    2    3    3    0    0  0.23010349653E+01 -0.26952650662E+02 -0.24980791708E+02  0.54367080756E+02  0.39999992200E+02 0.  0.
         12    1    3    3    0    0 -0.23010349653E+01  0.26952650662E+02  0.24980791708E+02  0.36820919244E+02  0.00000000000E+00 0. -1.
         11    1    4    4    0    0  0.67992466269E+01  0.44395975121E+01 -0.26382406375E+01  0.85381552273E+01  0.51100000000E-03 0. -1.
        -11    1    4    4    0    0  0.48780523956E+01 -0.30128902761E+02 -0.16273112070E+02  0.34588442484E+02  0.51100000000E-03 0.  1.
        -12    1    4    4    0    0 -0.93762640572E+01 -0.12633454128E+01 -0.60694390000E+01  0.11240483045E+02  0.00000000000E+00 0.  1.
</event>
<event>
 8    1  0.1212194E-006  0.9118800E+02  0.7816164E-02  0.1184000E+00
        -11   -1    0    0    0    0  0.00000000000E+00  0.00000000000E+00  0.45593999997E+02  0.45594000000E+02  0.51100000000E-03 0. -1.
         11   -1    0    0    0    0 -0.00000000000E+00 -0.00000000000E+00 -0.45593999997E+02  0.45594000000E+02  0.51100000000E-03 0.  1.
         23    2    1    2    0    0  0.00000000000E+00  0.00000000000E+00  0.17763568394E-14  0.91188000000E+02  0.91188000000E+02 0.  0.
    9900012    2    3    3    0    0 -0.19517003034E+02  0.30212649933E+02  0.78778739970E+01  0.54367102101E+02  0.40000040859E+02 0.  0.
        -12    1    3    3    0    0  0.19517003034E+02 -0.30212649933E+02 -0.78778739970E+01  0.36820897899E+02  0.00000000000E+00 0.  1.
         11    1    4    4    0    0 -0.20417529530E+01  0.41776923803E+01  0.12902297377E+02  0.13714632573E+02  0.51100000000E-03 0. -1.
        -11    1    4    4    0    0 -0.24979129433E+01  0.24514458973E+02  0.41699657912E+00  0.24644921470E+02  0.51100000000E-03 0.  1.
        -12    1    4    4    0    0 -0.14977337138E+02  0.15204985793E+01 -0.54414199591E+01  0.16007548058E+02  0.00000000000E+00 0.  1.
</event>
<event>
 8    1  0.1212194E-006  0.9118800E+02  0.7816164E-02  0.1184000E+00
        -11   -1    0    0    0    0  0.00000000000E+00  0.00000000000E+00  0.45593999997E+02  0.45594000000E+02  0.51100000000E-03 0.  1.
         11   -1    0    0    0    0 -0.00000000000E+00 -0.00000000000E+00 -0.45593999997E+02  0.45594000000E+02  0.51100000000E-03 0. -1.
         23    2    1    2    0    0 -0.35527136788E-14  0.00000000000E+00  0.00000000000E+00  0.91188000000E+02  0.91188000000E+02 0.  0.
    9900012    2    3    3    0    0  0.18232016814E+02  0.19472309709E+02 -0.25381161747E+02  0.54367073149E+02  0.39999974858E+02 0.  0.
        -12    1    3    3    0    0 -0.18232016814E+02 -0.19472309709E+02  0.25381161747E+02  0.36820926851E+02  0.00000000000E+00 0.  1.
         11    1    4    4    0    0 -0.79327703565E+00 -0.69192591658E+01 -0.83547559841E+01  0.10876919770E+02  0.51100000000E-03 0. -1.
        -11    1    4    4    0    0 -0.41904509545E+01  0.30873299123E+00 -0.50627505887E+01  0.65792582444E+01  0.51100000000E-03 0.  1.
         12    1    4    4    0    0  0.23215744804E+02  0.26082835884E+02 -0.11963655174E+02  0.36910895135E+02  0.00000000000E+00 0. -1.
</event>
<event>
 8    1  0.1212194E-006  0.9118800E+02  0.7816164E-02  0.1184000E+00
        -11   -1    0    0    0    0  0.00000000000E+00  0.00000000000E+00  0.45593999997E+02  0.45594000000E+02  0.51100000000E-03 0.  1.
         11   -1    0    0    0    0 -0.00000000000E+00 -0.00000000000E+00 -0.45593999997E+02  0.45594000000E+02  0.51100000000E-03 0. -1.
         23    2    1    2    0    0 -0.22204460493E-15  0.00000000000E+00  0.00000000000E+00  0.91188000000E+02  0.91188000000E+02 0.  0.
    9900012    2    3    3    0    0 -0.16824959501E+01 -0.86884309296E+01  0.35741587074E+02  0.54367072918E+02  0.39999974331E+02 0.  0.
         12    1    3    3    0    0  0.16824959501E+01  0.86884309296E+01 -0.35741587074E+02  0.36820927082E+02  0.00000000000E+00 0. -1.
         11    1    4    4    0    0  0.89365949510E+01 -0.22397365990E+01  0.11082265720E+02  0.14411653726E+02  0.51100000000E-03 0. -1.
        -11    1    4    4    0    0 -0.95402918036E+00 -0.13488533839E+02  0.24515412646E+02  0.27997431565E+02  0.51100000000E-03 0.  1.
         12    1    4    4    0    0 -0.96650617207E+01  0.70398395083E+01  0.14390870738E+00  0.11957987627E+02  0.00000000000E+00 0. -1.
</event>
<event>
 8    1  0.1212194E-006  0.9118800E+02  0.7816164E-02  0.1184000E+00
        -11   -1    0    0    0    0  0.00000000000E+00  0.00000000000E+00  0.45593999997E+02  0.45594000000E+02  0.51100000000E-03 0. -1.
         11   -1    0    0    0    0 -0.00000000000E+00 -0.00000000000E+00 -0.45593999997E+02  0.45594000000E+02  0.51100000000E-03 0.  1.
         23    2    1    2    0    0  0.17763568394E-14  0.00000000000E+00  0.00000000000E+00  0.91188000000E+02  0.91188000000E+02 0.  0.
    9900012    2    3    3    0    0 -0.10137835426E+02 -0.27383834870E+02 -0.22430552395E+02  0.54367084747E+02  0.40000001299E+02 0.  0.
         12    1    3    3    0    0  0.10137835426E+02  0.27383834870E+02  0.22430552395E+02  0.36820915253E+02  0.00000000000E+00 0. -1.
         11    1    4    4    0    0  0.11870525637E+02 -0.22739705551E+01 -0.19308160610E+01  0.12239623030E+02  0.51100000000E-03 0. -1.
        -11    1    4    4    0    0 -0.18571360505E+02 -0.12655445441E+02 -0.18385013226E+02  0.29035572009E+02  0.51100000000E-03 0.  1.
        -12    1    4    4    0    0 -0.34370005582E+01 -0.12454418873E+02 -0.21147231077E+01  0.13091889708E+02  0.00000000000E+00 0.  1.
</event>
<event>
 8    1  0.1212194E-006  0.9118800E+02  0.7816164E-02  0.1184000E+00
        -11   -1    0    0    0    0  0.00000000000E+00  0.00000000000E+00  0.45593999997E+02  0.45594000000E+02  0.51100000000E-03 0. -1.
         11   -1    0    0    0    0 -0.00000000000E+00 -0.00000000000E+00 -0.45593999997E+02  0.45594000000E+02  0.51100000000E-03 0.  1.
         23    2    1    2    0    0  0.00000000000E+00  0.00000000000E+00  0.71054273576E-14  0.91188000000E+02  0.91188000000E+02 0.  0.
    9900012    2    3    3    0    0 -0.29180577311E+00  0.66888651351E+01  0.36207130424E+02  0.54367049972E+02  0.39999922022E+02 0.  0.
        -12    1    3    3    0    0  0.29180577311E+00 -0.66888651351E+01 -0.36207130424E+02  0.36820950028E+02  0.00000000000E+00 0.  1.
         11    1    4    4    0    0 -0.71170691072E+00 -0.99765651609E+01  0.30359979462E+02  0.31965086146E+02  0.51100000000E-03 0. -1.
        -11    1    4    4    0    0  0.29236760616E+01  0.27319909455E+01  0.71416843645E+01  0.81862880515E+01  0.51100000000E-03 0.  1.
        -12    1    4    4    0    0 -0.25037749240E+01  0.13933439350E+02 -0.12945334024E+01  0.14215675775E+02  0.00000000000E+00 0.  1.
</event>
<event>
 8    1  0.1212194E-006  0.9118800E+02  0.7816164E-02  0.1184000E+00
        -11   -1    0    0    0    0  0.00000000000E+00  0.00000000000E+00  0.45593999997E+02  0.45594000000E+02  0.51100000000E-03 0.  1.
         11   -1    0    0    0    0 -0.00000000000E+00 -0.00000000000E+00 -0.45593999997E+02  0.45594000000E+02  0.51100000000E-03 0. -1.
         23    2    1    2    0    0 -0.35527136788E-14  0.00000000000E+00  0.00000000000E+00  0.91188000000E+02  0.91188000000E+02 0.  0.
    9900012    2    3    3    0    0  0.27844799829E+02  0.44271541609E+01  0.23682210248E+02  0.54367086734E+02  0.40000005828E+02 0.  0.
         12    1    3    3    0    0 -0.27844799829E+02 -0.44271541609E+01 -0.23682210248E+02  0.36820913266E+02  0.00000000000E+00 0. -1.
         11    1    4    4    0    0 -0.36550826283E+01  0.11912966290E+02  0.11950923690E+02  0.17265658753E+02  0.51100000000E-03 0. -1.
        -11    1    4    4    0    0  0.12428134377E+01  0.57327401652E+00  0.48537811220E+01  0.50430565910E+01  0.51100000000E-03 0.  1.
         12    1    4    4    0    0  0.30257069020E+02 -0.80590861458E+01  0.68775054355E+01  0.32058371390E+02  0.00000000000E+00 0. -1.
</event>
<event>
 8    1  0.1212194E-006  0.9118800E+02  0.7816164E-02  0.1184000E+00
        -11   -1    0    0    0    0  0.00000000000E+00  0.00000000000E+00  0.45593999997E+02  0.45594000000E+02  0.51100000000E-03 0. -1.
         11   -1    0    0    0    0 -0.00000000000E+00 -0.00000000000E+00 -0.45593999997E+02  0.45594000000E+02  0.51100000000E-03 0.  1.
         23    2    1    2    0    0 -0.17763568394E-14  0.00000000000E+00 -0.35527136788E-14  0.91188000000E+02  0.91188000000E+02 0.  0.
    9900012    2    3    3    0    0 -0.58594039115E+01 -0.21538478256E+02  0.29283796502E+02  0.54367090216E+02  0.40000013765E+02 0.  0.
        -12    1    3    3    0    0  0.58594039115E+01  0.21538478256E+02 -0.29283796502E+02  0.36820909784E+02  0.00000000000E+00 0.  1.
         11    1    4    4    0    0 -0.11938946402E+02 -0.13260626891E+02  0.24810477652E+02  0.30560472319E+02  0.51100000000E-03 0. -1.
        -11    1    4    4    0    0  0.13160546488E+02 -0.85218624380E+01  0.50729726654E+00  0.15686920477E+02  0.51100000000E-03 0.  1.
         12    1    4    4    0    0 -0.70810039969E+01  0.24401107265E+00  0.39660215826E+01  0.81196974205E+01  0.00000000000E+00 0. -1.
</event>
<event>
 8    1  0.1212194E-006  0.9118800E+02  0.7816164E-02  0.1184000E+00
        -11   -1    0    0    0    0  0.00000000000E+00  0.00000000000E+00  0.45593999997E+02  0.45594000000E+02  0.51100000000E-03 0.  1.
         11   -1    0    0    0    0 -0.00000000000E+00 -0.00000000000E+00 -0.45593999997E+02  0.45594000000E+02  0.51100000000E-03 0. -1.
         23    2    1    2    0    0  0.00000000000E+00 -0.35527136788E-14 -0.66613381478E-15  0.91188000000E+02  0.91188000000E+02 0.  0.
    9900012    2    3    3    0    0 -0.35275769285E+02 -0.10539765884E+02  0.55665643873E+00  0.54367130511E+02  0.40000105626E+02 0.  0.
         12    1    3    3    0    0  0.35275769285E+02  0.10539765884E+02 -0.55665643873E+00  0.36820869489E+02  0.00000000000E+00 0. -1.
         11    1    4    4    0    0 -0.57803635636E+01  0.52214279163E+00 -0.87691800589E+01  0.10515881094E+02  0.51100000000E-03 0. -1.
        -11    1    4    4    0    0 -0.13104743460E+02  0.41819512340E+01  0.15408934033E+02  0.20655707821E+02  0.51100000000E-03 0.  1.
        -12    1    4    4    0    0 -0.16390662261E+02 -0.15243859910E+02 -0.60830975356E+01  0.23195541596E+02  0.00000000000E+00 0.  1.
</event>
<event>
 8    1  0.1212194E-006  0.9118800E+02  0.7816164E-02  0.1184000E+00
        -11   -1    0    0    0    0  0.00000000000E+00  0.00000000000E+00  0.45593999997E+02  0.45594000000E+02  0.51100000000E-03 0.  1.
         11   -1    0    0    0    0 -0.00000000000E+00 -0.00000000000E+00 -0.45593999997E+02  0.45594000000E+02  0.51100000000E-03 0. -1.
         23    2    1    2    0    0  0.00000000000E+00  0.00000000000E+00  0.88817841970E-15  0.91188000000E+02  0.91188000000E+02 0.  0.
    9900012    2    3    3    0    0  0.30088952474E+02  0.20860298550E+02  0.39106270155E+01  0.54366944607E+02  0.39999681819E+02 0.  0.
         12    1    3    3    0    0 -0.30088952474E+02 -0.20860298550E+02 -0.39106270155E+01  0.36821055393E+02  0.00000000000E+00 0. -1.
         11    1    4    4    0    0 -0.70849469250E+00  0.15547754434E+02 -0.86113408905E+01  0.17787350136E+02  0.51100000000E-03 0. -1.
        -11    1    4    4    0    0  0.83229171874E+01  0.10674185167E+01  0.10752717264E+02  0.13639327755E+02  0.51100000000E-03 0.  1.
         12    1    4    4    0    0  0.22474529980E+02  0.42451255996E+01  0.17692506422E+01  0.22940266716E+02  0.00000000000E+00 0. -1.
</event>
<event>
 8    1  0.1212194E-006  0.9118800E+02  0.7816164E-02  0.1184000E+00
        -11   -1    0    0    0    0  0.00000000000E+00  0.00000000000E+00  0.45593999997E+02  0.45594000000E+02  0.51100000000E-03 0. -1.
         11   -1    0    0    0    0 -0.00000000000E+00 -0.00000000000E+00 -0.45593999997E+02  0.45594000000E+02  0.51100000000E-03 0.  1.
         23    2    1    2    0    0  0.00000000000E+00  0.00000000000E+00  0.00000000000E+00  0.91188000000E+02  0.91188000000E+02 0.  0.
    9900012    2    3    3    0    0 -0.18086164170E+02 -0.31582398472E+02  0.55875365494E+01  0.54367112010E+02  0.40000063450E+02 0.  0.
        -12    1    3    3    0    0  0.18086164170E+02  0.31582398472E+02 -0.55875365494E+01  0.36820887990E+02  0.00000000000E+00 0.  1.
         11    1    4    4    0    0  0.72221325900E+01 -0.10591164366E+02  0.27254821824E+01  0.13105732149E+02  0.51100000000E-03 0. -1.
        -11    1    4    4    0    0 -0.27147616847E+02 -0.24825544192E+02  0.15860015427E+01  0.36821408801E+02  0.51100000000E-03 0.  1.
        -12    1    4    4    0    0  0.18393200875E+01  0.38343100849E+01  0.12760528243E+01  0.44399710609E+01  0.00000000000E+00 0.  1.
</event>
<event>
 8    1  0.1212194E-006  0.9118800E+02  0.7816164E-02  0.1184000E+00
        -11   -1    0    0    0    0  0.00000000000E+00  0.00000000000E+00  0.45593999997E+02  0.45594000000E+02  0.51100000000E-03 0.  1.
         11   -1    0    0    0    0 -0.00000000000E+00 -0.00000000000E+00 -0.45593999997E+02  0.45594000000E+02  0.51100000000E-03 0. -1.
         23    2    1    2    0    0  0.00000000000E+00  0.88817841970E-15  0.99920072216E-15  0.91188000000E+02  0.91188000000E+02 0.  0.
    9900012    2    3    3    0    0  0.36286338392E+02 -0.62168268860E+01 -0.65822536974E+00  0.54367074549E+02  0.39999978048E+02 0.  0.
        -12    1    3    3    0    0 -0.36286338392E+02  0.62168268860E+01  0.65822536974E+00  0.36820925451E+02  0.00000000000E+00 0.  1.
         11    1    4    4    0    0  0.41976977760E+00 -0.71529436915E+01 -0.37055002511E+01  0.80666934051E+01  0.51100000000E-03 0. -1.
        -11    1    4    4    0    0  0.16982308116E+02 -0.90769395618E+01  0.12469893476E+02  0.22940964764E+02  0.51100000000E-03 0.  1.
         12    1    4    4    0    0  0.18884260499E+02  0.10013056367E+02 -0.94226185944E+01  0.23359416379E+02  0.00000000000E+00 0. -1.
</event>
<event>
 8    1  0.1212194E-006  0.9118800E+02  0.7816164E-02  0.1184000E+00
        -11   -1    0    0    0    0  0.00000000000E+00  0.00000000000E+00  0.45593999997E+02  0.45594000000E+02  0.51100000000E-03 0.  1.
         11   -1    0    0    0    0 -0.00000000000E+00 -0.00000000000E+00 -0.45593999997E+02  0.45594000000E+02  0.51100000000E-03 0. -1.
         23    2    1    2    0    0  0.35527136788E-14  0.00000000000E+00  0.00000000000E+00  0.91188000000E+02  0.91188000000E+02 0.  0.
    9900012    2    3    3    0    0 -0.21867700420E+02 -0.83388714581E+01  0.28426151224E+02  0.54367093272E+02  0.40000020732E+02 0.  0.
         12    1    3    3    0    0  0.21867700420E+02  0.83388714581E+01 -0.28426151224E+02  0.36820906728E+02  0.00000000000E+00 0. -1.
         11    1    4    4    0    0  0.51174250098E+01  0.24481195698E+01 -0.24271100860E+01  0.61702667519E+01  0.51100000000E-03 0. -1.
        -11    1    4    4    0    0 -0.12401181460E+02 -0.15337787281E+02  0.24982435468E+02  0.31830160264E+02  0.51100000000E-03 0.  1.
        -12    1    4    4    0    0 -0.14583943970E+02  0.45507962529E+01  0.58708258427E+01  0.16366666256E+02  0.00000000000E+00 0.  1.
</event>
<event>
 8    1  0.1212194E-006  0.9118800E+02  0.7816164E-02  0.1184000E+00
        -11   -1    0    0    0    0  0.00000000000E+00  0.00000000000E+00  0.45593999997E+02  0.45594000000E+02  0.51100000000E-03 0. -1.
         11   -1    0    0    0    0 -0.00000000000E+00 -0.00000000000E+00 -0.45593999997E+02  0.45594000000E+02  0.51100000000E-03 0.  1.
         23    2    1    2    0    0 -0.17763568394E-14 -0.26645352591E-14  0.71054273576E-14  0.91188000000E+02  0.91188000000E+02 0.  0.
    9900012    2    3    3    0    0  0.98843818720E+01  0.52571166867E+01 -0.35077647691E+02  0.54367086807E+02  0.40000005993E+02 0.  0.
         12    1    3    3    0    0 -0.98843818720E+01 -0.52571166867E+01  0.35077647691E+02  0.36820913193E+02  0.00000000000E+00 0. -1.
         11    1    4    4    0    0  0.12329660520E+01 -0.89706729701E+01 -0.13574061375E+02  0.16317117432E+02  0.51100000000E-03 0. -1.
        -11    1    4    4    0    0  0.14775013965E+01 -0.74531312974E+01 -0.97645719664E+01  0.12372511566E+02  0.51100000000E-03 0.  1.
         12    1    4    4    0    0  0.71739144236E+01  0.21680920954E+02 -0.11739014350E+02  0.25677457808E+02  0.00000000000E+00 0. -1.
</event>
<event>
 8    1  0.1212194E-006  0.9118800E+02  0.7816164E-02  0.1184000E+00
        -11   -1    0    0    0    0  0.00000000000E+00  0.00000000000E+00  0.45593999997E+02  0.45594000000E+02  0.51100000000E-03 0.  1.
         11   -1    0    0    0    0 -0.00000000000E+00 -0.00000000000E+00 -0.45593999997E+02  0.45594000000E+02  0.51100000000E-03 0. -1.
         23    2    1    2    0    0 -0.35527136788E-14  0.17763568394E-14  0.00000000000E+00  0.91188000000E+02  0.91188000000E+02 0.  0.
    9900012    2    3    3    0    0 -0.99730915709E+01 -0.12574776423E+02 -0.33138968759E+02  0.54367098218E+02  0.40000032009E+02 0.  0.
        -12    1    3    3    0    0  0.99730915709E+01  0.12574776423E+02  0.33138968759E+02  0.36820901782E+02  0.00000000000E+00 0.  1.
         11    1    4    4    0    0 -0.86176543657E+01 -0.64337956572E+01 -0.11591439630E+02  0.15811994380E+02  0.51100000000E-03 0. -1.
        -11    1    4    4    0    0  0.10919442006E+02  0.76086052748E+01 -0.11345390541E+02  0.17488366840E+02  0.51100000000E-03 0.  1.
        -12    1    4    4    0    0 -0.12274879212E+02 -0.13749586041E+02 -0.10202138589E+02  0.21066736998E+02  0.00000000000E+00 0.  1.
</event>
<event>
 8    1  0.1212194E-006  0.9118800E+02  0.7816164E-02  0.1184000E+00
        -11   -1    0    0    0    0  0.00000000000E+00  0.00000000000E+00  0.45593999997E+02  0.45594000000E+02  0.51100000000E-03 0. -1.
         11   -1    0    0    0    0 -0.00000000000E+00 -0.00000000000E+00 -0.45593999997E+02  0.45594000000E+02  0.51100000000E-03 0.  1.
         23    2    1    2    0    0  0.44408920985E-15  0.00000000000E+00 -0.17763568394E-14  0.91188000000E+02  0.91188000000E+02 0.  0.
    9900012    2    3    3    0    0  0.28696235435E+01  0.33778106554E+02 -0.14373051223E+02  0.54367084434E+02  0.40000000585E+02 0.  0.
         12    1    3    3    0    0 -0.28696235435E+01 -0.33778106554E+02  0.14373051223E+02  0.36820915566E+02  0.00000000000E+00 0. -1.
         11    1    4    4    0    0 -0.11709161283E+01 -0.16448595749E+01  0.16801879257E+01  0.26267164536E+01  0.51100000000E-03 0. -1.
        -11    1    4    4    0    0  0.10697170431E+02  0.29573482801E+02  0.21217069024E+01  0.31520183703E+02  0.51100000000E-03 0.  1.
        -12    1    4    4    0    0 -0.66566307593E+01  0.58494833275E+01 -0.18174946051E+02  0.20220184278E+02  0.00000000000E+00 0.  1.
</event>
<event>
 8    1  0.1212194E-006  0.9118800E+02  0.7816164E-02  0.1184000E+00
        -11   -1    0    0    0    0  0.00000000000E+00  0.00000000000E+00  0.45593999997E+02  0.45594000000E+02  0.51100000000E-03 0. -1.
         11   -1    0    0    0    0 -0.00000000000E+00 -0.00000000000E+00 -0.45593999997E+02  0.45594000000E+02  0.51100000000E-03 0.  1.
         23    2    1    2    0    0  0.00000000000E+00  0.17763568394E-14  0.00000000000E+00  0.91188000000E+02  0.91188000000E+02 0.  0.
    9900012    2    3    3    0    0  0.30664316915E+02 -0.60097961001E+01 -0.19477213198E+02  0.54367084544E+02  0.40000000835E+02 0.  0.
         12    1    3    3    0    0 -0.30664316915E+02  0.60097961001E+01  0.19477213198E+02  0.36820915456E+02  0.00000000000E+00 0. -1.
         11    1    4    4    0    0  0.48394471989E+01  0.66935209560E+01  0.93093868209E+00  0.83120466235E+01  0.51100000000E-03 0. -1.
        -11    1    4    4    0    0  0.22879893446E+02 -0.81950654095E+01  0.65736164883E+00  0.24312152224E+02  0.51100000000E-03 0.  1.
         12    1    4    4    0    0  0.29449762700E+01 -0.45082516466E+01 -0.21065513529E+02  0.21742885696E+02  0.00000000000E+00 0. -1.
</event>
<event>
 8    1  0.1212194E-006  0.9118800E+02  0.7816164E-02  0.1184000E+00
        -11   -1    0    0    0    0  0.00000000000E+00  0.00000000000E+00  0.45593999997E+02  0.45594000000E+02  0.51100000000E-03 0.  1.
         11   -1    0    0    0    0 -0.00000000000E+00 -0.00000000000E+00 -0.45593999997E+02  0.45594000000E+02  0.51100000000E-03 0. -1.
         23    2    1    2    0    0  0.71054273576E-14  0.00000000000E+00 -0.17763568394E-14  0.91188000000E+02  0.91188000000E+02 0.  0.
    9900012    2    3    3    0    0 -0.33123596888E+02 -0.87678618078E+01  0.13480787329E+02  0.54367086126E+02  0.40000004442E+02 0.  0.
         12    1    3    3    0    0  0.33123596888E+02  0.87678618078E+01 -0.13480787329E+02  0.36820913874E+02  0.00000000000E+00 0. -1.
         11    1    4    4    0    0 -0.97541374152E+01  0.85656439861E+01 -0.18679777034E+01  0.13114983590E+02  0.51100000000E-03 0. -1.
        -11    1    4    4    0    0 -0.14072665440E+02  0.40199616834E+01  0.31877565955E+01  0.14978711457E+02  0.51100000000E-03 0.  1.
        -12    1    4    4    0    0 -0.92967940328E+01 -0.21353467477E+02  0.12161008437E+02  0.26273391079E+02  0.00000000000E+00 0.  1.
</event>
<event>
 8    1  0.1212194E-006  0.9118800E+02  0.7816164E-02  0.1184000E+00
        -11   -1    0    0    0    0  0.00000000000E+00  0.00000000000E+00  0.45593999997E+02  0.45594000000E+02  0.51100000000E-03 0. -1.
         11   -1    0    0    0    0 -0.00000000000E+00 -0.00000000000E+00 -0.45593999997E+02  0.45594000000E+02  0.51100000000E-03 0.  1.
         23    2    1    2    0    0  0.00000000000E+00 -0.35527136788E-14  0.00000000000E+00  0.91188000000E+02  0.91188000000E+02 0.  0.
    9900012    2    3    3    0    0 -0.19343512446E+02 -0.30253119298E+02  0.81457194262E+01  0.54367143872E+02  0.40000136085E+02 0.  0.
        -12    1    3    3    0    0  0.19343512446E+02  0.30253119298E+02 -0.81457194262E+01  0.36820856128E+02  0.00000000000E+00 0.  1.
         11    1    4    4    0    0  0.43869511045E+01 -0.46732207575E+01  0.10807714167E+02  0.12565469272E+02  0.51100000000E-03 0. -1.
        -11    1    4    4    0    0  0.25771254902E+01 -0.91405642217E+01 -0.49242969261E+01  0.10697672203E+02  0.51100000000E-03 0.  1.
         12    1    4    4    0    0 -0.26307589040E+02 -0.16439334319E+02  0.22623021852E+01  0.31104002398E+02  0.00000000000E+00 0. -1.
</event>
<event>
 8    1  0.1212194E-006  0.9118800E+02  0.7816164E-02  0.1184000E+00
        -11   -1    0    0    0    0  0.00000000000E+00  0.00000000000E+00  0.45593999997E+02  0.45594000000E+02  0.51100000000E-03 0. -1.
         11   -1    0    0    0    0 -0.00000000000E+00 -0.00000000000E+00 -0.45593999997E+02  0.45594000000E+02  0.51100000000E-03 0.  1.
         23    2    1    2    0    0 -0.71054273576E-14  0.71054273576E-14 -0.17763568394E-14  0.91188000000E+02  0.91188000000E+02 0.  0.
    9900012    2    3    3    0    0  0.27624709034E+02 -0.21092863199E+02  0.12155087220E+02  0.54367087837E+02  0.40000008343E+02 0.  0.
        -12    1    3    3    0    0 -0.27624709034E+02  0.21092863199E+02 -0.12155087220E+02  0.36820912163E+02  0.00000000000E+00 0.  1.
         11    1    4    4    0    0  0.41013310370E+01  0.56554288795E+01  0.25638712200E+01  0.74416549221E+01  0.51100000000E-03 0. -1.
        -11    1    4    4    0    0  0.99490592179E+01  0.25992646201E+01 -0.50196697375E+01  0.11442772410E+02  0.51100000000E-03 0.  1.
        -12    1    4    4    0    0  0.13574318779E+02 -0.29347556699E+02  0.14610885737E+02  0.35482660505E+02  0.00000000000E+00 0.  1.
</event>
<event>
 8    1  0.1212194E-006  0.9118800E+02  0.7816164E-02  0.1184000E+00
        -11   -1    0    0    0    0  0.00000000000E+00  0.00000000000E+00  0.45593999997E+02  0.45594000000E+02  0.51100000000E-03 0.  1.
         11   -1    0    0    0    0 -0.00000000000E+00 -0.00000000000E+00 -0.45593999997E+02  0.45594000000E+02  0.51100000000E-03 0. -1.
         23    2    1    2    0    0  0.35527136788E-14 -0.88817841970E-15 -0.35527136788E-14  0.91188000000E+02  0.91188000000E+02 0.  0.
    9900012    2    3    3    0    0 -0.31380333354E+02  0.65186093641E+01  0.18126277193E+02  0.54367088627E+02  0.40000010143E+02 0.  0.
        -12    1    3    3    0    0  0.31380333354E+02 -0.65186093641E+01 -0.18126277193E+02  0.36820911373E+02  0.00000000000E+00 0.  1.
         11    1    4    4    0    0 -0.15136369950E+02  0.29144269280E+01 -0.93953000068E+01  0.18052014903E+02  0.51100000000E-03 0. -1.
        -11    1    4    4    0    0  0.10440087071E+01  0.58458196767E+01  0.97833242454E+01  0.11444518139E+02  0.51100000000E-03 0.  1.
         12    1    4    4    0    0 -0.17287972112E+02 -0.22416372406E+01  0.17738252955E+02  0.24870555585E+02  0.00000000000E+00 0. -1.
</event>
<event>
 8    1  0.1212194E-006  0.9118800E+02  0.7816164E-02  0.1184000E+00
        -11   -1    0    0    0    0  0.00000000000E+00  0.00000000000E+00  0.45593999997E+02  0.45594000000E+02  0.51100000000E-03 0.  1.
         11   -1    0    0    0    0 -0.00000000000E+00 -0.00000000000E+00 -0.45593999997E+02  0.45594000000E+02  0.51100000000E-03 0. -1.
         23    2    1    2    0    0 -0.88817841970E-15 -0.10547118734E-14  0.00000000000E+00  0.91188000000E+02  0.91188000000E+02 0.  0.
    9900012    2    3    3    0    0 -0.54804063673E+01  0.32954895966E+00  0.36409269184E+02  0.54367104587E+02  0.40000046528E+02 0.  0.
         12    1    3    3    0    0  0.54804063673E+01 -0.32954895966E+00 -0.36409269184E+02  0.36820895413E+02  0.00000000000E+00 0. -1.
         11    1    4    4    0    0  0.26006952160E+01  0.83458952840E+01 -0.29393370823E+00  0.87466554171E+01  0.51100000000E-03 0. -1.
        -11    1    4    4    0    0  0.68868342527E+01 -0.35778998811E+01  0.27217503251E+01  0.82242190315E+01  0.51100000000E-03 0.  1.
        -12    1    4    4    0    0 -0.14967935836E+02 -0.44384464433E+01  0.33981452567E+02  0.37396230139E+02  0.00000000000E+00 0.  1.
</event>
<event>
 8    1  0.1212194E-006  0.9118800E+02  0.7816164E-02  0.1184000E+00
        -11   -1    0    0    0    0  0.00000000000E+00  0.00000000000E+00  0.45593999997E+02  0.45594000000E+02  0.51100000000E-03 0. -1.
         11   -1    0    0    0    0 -0.00000000000E+00 -0.00000000000E+00 -0.45593999997E+02  0.45594000000E+02  0.51100000000E-03 0.  1.
         23    2    1    2    0    0  0.44408920985E-15  0.00000000000E+00  0.00000000000E+00  0.91188000000E+02  0.91188000000E+02 0.  0.
    9900012    2    3    3    0    0  0.21565798782E+01 -0.24978503462E+02  0.26966716062E+02  0.54367078676E+02  0.39999987458E+02 0.  0.
        -12    1    3    3    0    0 -0.21565798782E+01  0.24978503462E+02 -0.26966716062E+02  0.36820921324E+02  0.00000000000E+00 0.  1.
         11    1    4    4    0    0  0.34748773928E+01 -0.30094679292E+01  0.19897251719E+02  0.20421368621E+02  0.51100000000E-03 0. -1.
        -11    1    4    4    0    0  0.22346139733E+01 -0.84701415163E+01  0.15380509472E+02  0.17700194033E+02  0.51100000000E-03 0.  1.
        -12    1    4    4    0    0 -0.35529114879E+01 -0.13498894016E+02 -0.83110451291E+01  0.16245516022E+02  0.00000000000E+00 0.  1.
</event>
<event>
 8    1  0.1212194E-006  0.9118800E+02  0.7816164E-02  0.1184000E+00
        -11   -1    0    0    0    0  0.00000000000E+00  0.00000000000E+00  0.45593999997E+02  0.45594000000E+02  0.51100000000E-03 0. -1.
         11   -1    0    0    0    0 -0.00000000000E+00 -0.00000000000E+00 -0.45593999997E+02  0.45594000000E+02  0.51100000000E-03 0.  1.
         23    2    1    2    0    0  0.00000000000E+00  0.00000000000E+00  0.35527136788E-14  0.91188000000E+02  0.91188000000E+02 0.  0.
    9900012    2    3    3    0    0  0.18870457074E+02  0.26182853101E+02  0.17724091685E+02  0.54367090550E+02  0.40000014527E+02 0.  0.
        -12    1    3    3    0    0 -0.18870457074E+02 -0.26182853101E+02 -0.17724091685E+02  0.36820909450E+02  0.00000000000E+00 0.  1.
         11    1    4    4    0    0  0.31483574522E+01  0.12143559002E+01  0.20608107048E+02  0.20882549923E+02  0.51100000000E-03 0. -1.
        -11    1    4    4    0    0  0.76301203212E+01  0.21755371344E+02 -0.66557325943E+01  0.23996118333E+02  0.51100000000E-03 0.  1.
        -12    1    4    4    0    0  0.80919793002E+01  0.32131258572E+01  0.37717172308E+01  0.94884222944E+01  0.00000000000E+00 0.  1.
</event>
<event>
 8    1  0.1212194E-006  0.9118800E+02  0.7816164E-02  0.1184000E+00
        -11   -1    0    0    0    0  0.00000000000E+00  0.00000000000E+00  0.45593999997E+02  0.45594000000E+02  0.51100000000E-03 0. -1.
         11   -1    0    0    0    0 -0.00000000000E+00 -0.00000000000E+00 -0.45593999997E+02  0.45594000000E+02  0.51100000000E-03 0.  1.
         23    2    1    2    0    0  0.00000000000E+00  0.00000000000E+00 -0.35527136788E-14  0.91188000000E+02  0.91188000000E+02 0.  0.
    9900012    2    3    3    0    0 -0.24343012370E+02  0.21645992696E+02  0.17165321377E+02  0.54367088700E+02  0.40000010308E+02 0.  0.
        -12    1    3    3    0    0  0.24343012370E+02 -0.21645992696E+02 -0.17165321377E+02  0.36820911300E+02  0.00000000000E+00 0.  1.
         11    1    4    4    0    0  0.32236175708E+01  0.15110672632E+02  0.17066812857E+02  0.23021734057E+02  0.51100000000E-03 0. -1.
        -11    1    4    4    0    0 -0.84397923347E+01  0.52253870545E+01 -0.55321571195E+01  0.11363957373E+02  0.51100000000E-03 0.  1.
        -12    1    4    4    0    0 -0.19126837606E+02  0.13099330094E+01  0.56306656390E+01  0.19981397269E+02  0.00000000000E+00 0.  1.
</event>
<event>
 8    1  0.1212194E-006  0.9118800E+02  0.7816164E-02  0.1184000E+00
        -11   -1    0    0    0    0  0.00000000000E+00  0.00000000000E+00  0.45593999997E+02  0.45594000000E+02  0.51100000000E-03 0. -1.
         11   -1    0    0    0    0 -0.00000000000E+00 -0.00000000000E+00 -0.45593999997E+02  0.45594000000E+02  0.51100000000E-03 0.  1.
         23    2    1    2    0    0  0.88817841970E-15  0.35527136788E-14  0.35527136788E-14  0.91188000000E+02  0.91188000000E+02 0.  0.
    9900012    2    3    3    0    0  0.17070924177E+01 -0.20871458446E+02  0.30286101594E+02  0.54367083499E+02  0.39999998453E+02 0.  0.
        -12    1    3    3    0    0 -0.17070924177E+01  0.20871458446E+02 -0.30286101594E+02  0.36820916501E+02  0.00000000000E+00 0.  1.
         11    1    4    4    0    0  0.30058305972E+01 -0.16502063231E+02  0.20780106432E+02  0.26705166767E+02  0.51100000000E-03 0. -1.
        -11    1    4    4    0    0  0.76146432769E+01  0.16067692212E+01 -0.52709707341E+01  0.93993421209E+01  0.51100000000E-03 0.  1.
        -12    1    4    4    0    0 -0.89133814564E+01 -0.59761644367E+01  0.14776965896E+02  0.18262574612E+02  0.00000000000E+00 0.  1.
</event>
<event>
 8    1  0.1212194E-006  0.9118800E+02  0.7816164E-02  0.1184000E+00
        -11   -1    0    0    0    0  0.00000000000E+00  0.00000000000E+00  0.45593999997E+02  0.45594000000E+02  0.51100000000E-03 0.  1.
         11   -1    0    0    0    0 -0.00000000000E+00 -0.00000000000E+00 -0.45593999997E+02  0.45594000000E+02  0.51100000000E-03 0. -1.
         23    2    1    2    0    0  0.00000000000E+00  0.00000000000E+00  0.00000000000E+00  0.91188000000E+02  0.91188000000E+02 0.  0.
    9900012    2    3    3    0    0 -0.23561220384E+02 -0.27592429450E+02  0.62694100914E+01  0.54367098710E+02  0.40000033129E+02 0.  0.
         12    1    3    3    0    0  0.23561220384E+02  0.27592429450E+02 -0.62694100914E+01  0.36820901290E+02  0.00000000000E+00 0. -1.
         11    1    4    4    0    0 -0.82645639820E+01 -0.14331701941E+02 -0.21879388496E+00  0.16545348874E+02  0.51100000000E-03 0. -1.
        -11    1    4    4    0    0 -0.20900518072E+02  0.20075460275E+01  0.35961920333E+01  0.21302452772E+02  0.51100000000E-03 0.  1.
         12    1    4    4    0    0  0.56038616702E+01 -0.15268273537E+02  0.28920119430E+01  0.16519297064E+02  0.00000000000E+00 0. -1.
</event>
<event>
 8    1  0.1212194E-006  0.9118800E+02  0.7816164E-02  0.1184000E+00
        -11   -1    0    0    0    0  0.00000000000E+00  0.00000000000E+00  0.45593999997E+02  0.45594000000E+02  0.51100000000E-03 0. -1.
         11   -1    0    0    0    0 -0.00000000000E+00 -0.00000000000E+00 -0.45593999997E+02  0.45594000000E+02  0.51100000000E-03 0.  1.
         23    2    1    2    0    0 -0.17763568394E-14  0.00000000000E+00 -0.88817841970E-15  0.91188000000E+02  0.91188000000E+02 0.  0.
    9900012    2    3    3    0    0  0.13331015762E+02 -0.34087670245E+02  0.40118234378E+01  0.54367082422E+02  0.39999995997E+02 0.  0.
        -12    1    3    3    0    0 -0.13331015762E+02  0.34087670245E+02 -0.40118234378E+01  0.36820917578E+02  0.00000000000E+00 0.  1.
         11    1    4    4    0    0  0.18034721891E+01 -0.16807038909E+02  0.39021643782E+01  0.17348082197E+02  0.51100000000E-03 0. -1.
        -11    1    4    4    0    0 -0.58878772615E+01 -0.92184579391E+01 -0.10438779458E+02  0.15120025868E+02  0.51100000000E-03 0.  1.
         12    1    4    4    0    0  0.17415420834E+02 -0.80621733971E+01  0.10548438517E+02  0.21898974357E+02  0.00000000000E+00 0. -1.
</event>
<event>
 8    1  0.1212194E-006  0.9118800E+02  0.7816164E-02  0.1184000E+00
        -11   -1    0    0    0    0  0.00000000000E+00  0.00000000000E+00  0.45593999997E+02  0.45594000000E+02  0.51100000000E-03 0. -1.
         11   -1    0    0    0    0 -0.00000000000E+00 -0.00000000000E+00 -0.45593999997E+02  0.45594000000E+02  0.51100000000E-03 0.  1.
         23    2    1    2    0    0 -0.88817841970E-15 -0.35527136788E-14  0.35527136788E-14  0.91188000000E+02  0.91188000000E+02 0.  0.
    9900012    2    3    3    0    0  0.53166262647E+01 -0.28522896146E+02  0.22670628784E+02  0.54367088430E+02  0.40000009693E+02 0.  0.
        -12    1    3    3    0    0 -0.53166262647E+01  0.28522896146E+02 -0.22670628784E+02  0.36820911570E+02  0.00000000000E+00 0.  1.
         11    1    4    4    0    0  0.23332113484E+01 -0.92007658532E+01  0.11544678184E+02  0.14945820892E+02  0.51100000000E-03 0. -1.
        -11    1    4    4    0    0  0.74069117741E+01  0.43860651570E+01  0.12599074573E+02  0.15258983909E+02  0.51100000000E-03 0.  1.
        -12    1    4    4    0    0 -0.44234968577E+01 -0.23708195449E+02 -0.14731239729E+01  0.24162283629E+02  0.00000000000E+00 0.  1.
</event>
<event>
 8    1  0.1212194E-006  0.9118800E+02  0.7816164E-02  0.1184000E+00
        -11   -1    0    0    0    0  0.00000000000E+00  0.00000000000E+00  0.45593999997E+02  0.45594000000E+02  0.51100000000E-03 0. -1.
         11   -1    0    0    0    0 -0.00000000000E+00 -0.00000000000E+00 -0.45593999997E+02  0.45594000000E+02  0.51100000000E-03 0.  1.
         23    2    1    2    0    0 -0.17763568394E-14  0.00000000000E+00  0.00000000000E+00  0.91188000000E+02  0.91188000000E+02 0.  0.
    9900012    2    3    3    0    0 -0.46789664107E+01  0.26379683875E+02 -0.25258694238E+02  0.54367053752E+02  0.39999930638E+02 0.  0.
         12    1    3    3    0    0  0.46789664107E+01 -0.26379683875E+02  0.25258694238E+02  0.36820946248E+02  0.00000000000E+00 0. -1.
         11    1    4    4    0    0  0.10157510113E+02  0.10512077885E+02 -0.19182990138E+01  0.14743088703E+02  0.51100000000E-03 0. -1.
        -11    1    4    4    0    0  0.44452440439E+01  0.49811921205E+01 -0.14157373266E+02  0.15652593638E+02  0.51100000000E-03 0.  1.
        -12    1    4    4    0    0 -0.19281720568E+02  0.10886413870E+02 -0.91830219581E+01  0.23971371410E+02  0.00000000000E+00 0.  1.
</event>
<event>
 8    1  0.1212194E-006  0.9118800E+02  0.7816164E-02  0.1184000E+00
        -11   -1    0    0    0    0  0.00000000000E+00  0.00000000000E+00  0.45593999997E+02  0.45594000000E+02  0.51100000000E-03 0.  1.
         11   -1    0    0    0    0 -0.00000000000E+00 -0.00000000000E+00 -0.45593999997E+02  0.45594000000E+02  0.51100000000E-03 0. -1.
         23    2    1    2    0    0  0.35527136788E-14  0.17763568394E-14  0.00000000000E+00  0.91188000000E+02  0.91188000000E+02 0.  0.
    9900012    2    3    3    0    0 -0.25124976418E+02 -0.15724357352E+02 -0.21846284617E+02  0.54367081955E+02  0.39999994932E+02 0.  0.
         12    1    3    3    0    0  0.25124976418E+02  0.15724357352E+02  0.21846284617E+02  0.36820918045E+02  0.00000000000E+00 0. -1.
         11    1    4    4    0    0 -0.16958585607E+01  0.91401705364E+01 -0.64866381753E+01  0.11335569186E+02  0.51100000000E-03 0. -1.
        -11    1    4    4    0    0 -0.72360478053E+01  0.28097473808E+01 -0.75723007145E+00  0.77992605949E+01  0.51100000000E-03 0.  1.
        -12    1    4    4    0    0 -0.16193070052E+02 -0.27674275269E+02 -0.14602416370E+02  0.35232252174E+02  0.00000000000E+00 0.  1.
</event>
<event>
 8    1  0.1212194E-006  0.9118800E+02  0.7816164E-02  0.1184000E+00
        -11   -1    0    0    0    0  0.00000000000E+00  0.00000000000E+00  0.45593999997E+02  0.45594000000E+02  0.51100000000E-03 0. -1.
         11   -1    0    0    0    0 -0.00000000000E+00 -0.00000000000E+00 -0.45593999997E+02  0.45594000000E+02  0.51100000000E-03 0.  1.
         23    2    1    2    0    0  0.35527136788E-14 -0.71054273576E-14  0.00000000000E+00  0.91188000000E+02  0.91188000000E+02 0.  0.
    9900012    2    3    3    0    0 -0.15003980808E+02  0.32007993061E+02 -0.10302783694E+02  0.54367103600E+02  0.40000044276E+02 0.  0.
         12    1    3    3    0    0  0.15003980808E+02 -0.32007993061E+02  0.10302783694E+02  0.36820896400E+02  0.00000000000E+00 0. -1.
         11    1    4    4    0    0 -0.94718010550E+01  0.17737656597E+01  0.10378991290E+02  0.14162793520E+02  0.51100000000E-03 0.  1.
        -11    1    4    4    0    0  0.54885813533E+01  0.88380562336E+01 -0.65725508602E+01  0.12305859918E+02  0.51100000000E-03 0. -1.
        -12    1    4    4    0    0 -0.11020761107E+02  0.21396171168E+02 -0.14109224124E+02  0.27898450161E+02  0.00000000000E+00 0.  1.
</event>
<event>
 8    1  0.1212194E-006  0.9118800E+02  0.7816164E-02  0.1184000E+00
        -11   -1    0    0    0    0  0.00000000000E+00  0.00000000000E+00  0.45593999997E+02  0.45594000000E+02  0.51100000000E-03 0. -1.
         11   -1    0    0    0    0 -0.00000000000E+00 -0.00000000000E+00 -0.45593999997E+02  0.45594000000E+02  0.51100000000E-03 0.  1.
         23    2    1    2    0    0  0.00000000000E+00 -0.66613381478E-15  0.00000000000E+00  0.91188000000E+02  0.91188000000E+02 0.  0.
    9900012    2    3    3    0    0  0.10565584411E+02  0.10277972359E+01  0.35257515848E+02  0.54367077077E+02  0.39999983812E+02 0.  0.
        -12    1    3    3    0    0 -0.10565584411E+02 -0.10277972359E+01 -0.35257515848E+02  0.36820922923E+02  0.00000000000E+00 0.  1.
         11    1    4    4    0    0  0.14001419529E+02  0.42464104342E+01  0.98568857745E+01  0.17641710456E+02  0.51100000000E-03 0. -1.
        -11    1    4    4    0    0 -0.12650123267E+02 -0.17341210398E+01  0.24138236022E+02  0.27307274360E+02  0.51100000000E-03 0.  1.
        -12    1    4    4    0    0  0.92142881500E+01 -0.14844921585E+01  0.12623940515E+01  0.94180922602E+01  0.00000000000E+00 0.  1.
</event>
<event>
 8    1  0.1212194E-006  0.9118800E+02  0.7816164E-02  0.1184000E+00
        -11   -1    0    0    0    0  0.00000000000E+00  0.00000000000E+00  0.45593999997E+02  0.45594000000E+02  0.51100000000E-03 0.  1.
         11   -1    0    0    0    0 -0.00000000000E+00 -0.00000000000E+00 -0.45593999997E+02  0.45594000000E+02  0.51100000000E-03 0. -1.
         23    2    1    2    0    0  0.35527136788E-14  0.00000000000E+00  0.35527136788E-14  0.91188000000E+02  0.91188000000E+02 0.  0.
    9900012    2    3    3    0    0  0.25912134544E+02 -0.15195711197E+02  0.21293947675E+02  0.54367074388E+02  0.39999977682E+02 0.  0.
         12    1    3    3    0    0 -0.25912134544E+02  0.15195711197E+02 -0.21293947675E+02  0.36820925612E+02  0.00000000000E+00 0. -1.
         11    1    4    4    0    0  0.47950141785E+00 -0.57859908336E+01  0.11491017611E+02  0.12874435814E+02  0.51100000000E-03 0. -1.
        -11    1    4    4    0    0  0.28990713785E+02 -0.15330437129E+02  0.10769792137E+02  0.34517708662E+02  0.51100000000E-03 0.  1.
         12    1    4    4    0    0 -0.35580806597E+01  0.59207167656E+01 -0.96686207358E+00  0.69749299114E+01  0.00000000000E+00 0. -1.
</event>
<event>
 8    1  0.1212194E-006  0.9118800E+02  0.7816164E-02  0.1184000E+00
        -11   -1    0    0    0    0  0.00000000000E+00  0.00000000000E+00  0.45593999997E+02  0.45594000000E+02  0.51100000000E-03 0.  1.
         11   -1    0    0    0    0 -0.00000000000E+00 -0.00000000000E+00 -0.45593999997E+02  0.45594000000E+02  0.51100000000E-03 0. -1.
         23    2    1    2    0    0 -0.83266726847E-15 -0.35527136788E-14  0.00000000000E+00  0.91188000000E+02  0.91188000000E+02 0.  0.
    9900012    2    3    3    0    0  0.12747390583E+00  0.15164756862E+02 -0.33553050712E+02  0.54366901261E+02  0.39999583003E+02 0.  0.
        -12    1    3    3    0    0 -0.12747390583E+00 -0.15164756862E+02  0.33553050712E+02  0.36821098739E+02  0.00000000000E+00 0.  1.
         11    1    4    4    0    0  0.76050525632E+01  0.16571618140E+02 -0.86114848246E+01  0.20164647862E+02  0.51100000000E-03 0. -1.
        -11    1    4    4    0    0  0.48213132118E+01 -0.10078728536E+01  0.14064217861E+01  0.51223911678E+01  0.51100000000E-03 0.  1.
         12    1    4    4    0    0 -0.12298891869E+02 -0.39898842446E+00 -0.26347987673E+02  0.29079862231E+02  0.00000000000E+00 0. -1.
</event>
<event>
 8    1  0.1212194E-006  0.9118800E+02  0.7816164E-02  0.1184000E+00
        -11   -1    0    0    0    0  0.00000000000E+00  0.00000000000E+00  0.45593999997E+02  0.45594000000E+02  0.51100000000E-03 0.  1.
         11   -1    0    0    0    0 -0.00000000000E+00 -0.00000000000E+00 -0.45593999997E+02  0.45594000000E+02  0.51100000000E-03 0. -1.
         23    2    1    2    0    0  0.71054273576E-14  0.00000000000E+00 -0.53290705182E-14  0.91188000000E+02  0.91188000000E+02 0.  0.
    9900012    2    3    3    0    0 -0.32089631428E+02 -0.15503003396E+02 -0.92570124645E+01  0.54367084215E+02  0.40000000085E+02 0.  0.
        -12    1    3    3    0    0  0.32089631428E+02  0.15503003396E+02  0.92570124645E+01  0.36820915785E+02  0.00000000000E+00 0.  1.
         11    1    4    4    0    0 -0.84609986759E+01 -0.24015131258E+01  0.13122235303E+02  0.15797114404E+02  0.51100000000E-03 0.  1.
        -11    1    4    4    0    0  0.17103742413E+01  0.16310053529E+00  0.66316702666E+00  0.18416765721E+01  0.51100000000E-03 0. -1.
         12    1    4    4    0    0 -0.25339006993E+02 -0.13264590806E+02 -0.23042414794E+02  0.36728293238E+02  0.00000000000E+00 0. -1.
</event>
<event>
 8    1  0.1212194E-006  0.9118800E+02  0.7816164E-02  0.1184000E+00
        -11   -1    0    0    0    0  0.00000000000E+00  0.00000000000E+00  0.45593999997E+02  0.45594000000E+02  0.51100000000E-03 0. -1.
         11   -1    0    0    0    0 -0.00000000000E+00 -0.00000000000E+00 -0.45593999997E+02  0.45594000000E+02  0.51100000000E-03 0.  1.
         23    2    1    2    0    0  0.31086244690E-14  0.00000000000E+00  0.35527136788E-14  0.91188000000E+02  0.91188000000E+02 0.  0.
    9900012    2    3    3    0    0  0.18070170989E+01 -0.18559052076E+02  0.31750215237E+02  0.54367083494E+02  0.39999998442E+02 0.  0.
        -12    1    3    3    0    0 -0.18070170989E+01  0.18559052076E+02 -0.31750215237E+02  0.36820916506E+02  0.00000000000E+00 0.  1.
         11    1    4    4    0    0 -0.11850294560E+02 -0.11697197833E+02  0.23177793000E+02  0.28538815794E+02  0.51100000000E-03 0. -1.
        -11    1    4    4    0    0  0.16289469082E+02 -0.97182776627E+00  0.10109633562E+02  0.19196248154E+02  0.51100000000E-03 0.  1.
         12    1    4    4    0    0 -0.26321574229E+01 -0.58900264773E+01 -0.15372113262E+01  0.66320195463E+01  0.00000000000E+00 0. -1.
</event>
<event>
 8    1  0.1212194E-006  0.9118800E+02  0.7816164E-02  0.1184000E+00
        -11   -1    0    0    0    0  0.00000000000E+00  0.00000000000E+00  0.45593999997E+02  0.45594000000E+02  0.51100000000E-03 0.  1.
         11   -1    0    0    0    0 -0.00000000000E+00 -0.00000000000E+00 -0.45593999997E+02  0.45594000000E+02  0.51100000000E-03 0. -1.
         23    2    1    2    0    0  0.00000000000E+00  0.00000000000E+00  0.99920072216E-15  0.91188000000E+02  0.91188000000E+02 0.  0.
    9900012    2    3    3    0    0  0.91184809582E+01  0.35670868826E+02  0.47118292239E+00  0.54367087584E+02  0.40000007765E+02 0.  0.
         12    1    3    3    0    0 -0.91184809582E+01 -0.35670868826E+02 -0.47118292239E+00  0.36820912416E+02  0.00000000000E+00 0. -1.
         11    1    4    4    0    0 -0.32484003431E+01  0.93838642370E+01 -0.69476700856E+01  0.12119370144E+02  0.51100000000E-03 0. -1.
        -11    1    4    4    0    0  0.18023657857E+02  0.15857325716E+02 -0.55817669539E+01  0.24646767415E+02  0.51100000000E-03 0.  1.
        -12    1    4    4    0    0 -0.56567765556E+01  0.10429678873E+02  0.13000619962E+02  0.17600950025E+02  0.00000000000E+00 0.  1.
</event>
<event>
 8    1  0.1212194E-006  0.9118800E+02  0.7816164E-02  0.1184000E+00
        -11   -1    0    0    0    0  0.00000000000E+00  0.00000000000E+00  0.45593999997E+02  0.45594000000E+02  0.51100000000E-03 0.  1.
         11   -1    0    0    0    0 -0.00000000000E+00 -0.00000000000E+00 -0.45593999997E+02  0.45594000000E+02  0.51100000000E-03 0. -1.
         23    2    1    2    0    0 -0.88817841970E-15 -0.17763568394E-14  0.71054273576E-14  0.91188000000E+02  0.91188000000E+02 0.  0.
    9900012    2    3    3    0    0  0.69765364149E+01 -0.13486298687E+02 -0.33544412237E+02  0.54367083323E+02  0.39999998051E+02 0.  0.
        -12    1    3    3    0    0 -0.69765364149E+01  0.13486298687E+02  0.33544412237E+02  0.36820916677E+02  0.00000000000E+00 0.  1.
         11    1    4    4    0    0 -0.49303934273E+01 -0.75970804969E+00  0.36175990005E+01  0.61622202540E+01  0.51100000000E-03 0. -1.
        -11    1    4    4    0    0  0.72009226474E+01 -0.13148110226E+02 -0.51571924918E+01  0.15853161329E+02  0.51100000000E-03 0.  1.
         12    1    4    4    0    0  0.47060071949E+01  0.42151958829E+00 -0.32004818746E+02  0.32351701739E+02  0.00000000000E+00 0. -1.
</event>
<event>
 8    1  0.1212194E-006  0.9118800E+02  0.7816164E-02  0.1184000E+00
        -11   -1    0    0    0    0  0.00000000000E+00  0.00000000000E+00  0.45593999997E+02  0.45594000000E+02  0.51100000000E-03 0.  1.
         11   -1    0    0    0    0 -0.00000000000E+00 -0.00000000000E+00 -0.45593999997E+02  0.45594000000E+02  0.51100000000E-03 0. -1.
         23    2    1    2    0    0 -0.17763568394E-14  0.00000000000E+00  0.00000000000E+00  0.91188000000E+02  0.91188000000E+02 0.  0.
    9900012    2    3    3    0    0  0.95086238588E+01 -0.31148887446E+02  0.17178826646E+02  0.54367092872E+02  0.40000019820E+02 0.  0.
         12    1    3    3    0    0 -0.95086238588E+01  0.31148887446E+02 -0.17178826646E+02  0.36820907128E+02  0.00000000000E+00 0. -1.
         11    1    4    4    0    0 -0.12444054077E+02 -0.77472268575E+01 -0.11995024517E+00  0.14659072078E+02  0.51100000000E-03 0. -1.
        -11    1    4    4    0    0  0.16178470250E+02 -0.57680565309E+01  0.78245768906E+01  0.18874251761E+02  0.51100000000E-03 0.  1.
        -12    1    4    4    0    0  0.57742076861E+01 -0.17633604057E+02  0.94742000006E+01  0.20833769033E+02  0.00000000000E+00 0.  1.
</event>
<event>
 8    1  0.1212194E-006  0.9118800E+02  0.7816164E-02  0.1184000E+00
        -11   -1    0    0    0    0  0.00000000000E+00  0.00000000000E+00  0.45593999997E+02  0.45594000000E+02  0.51100000000E-03 0.  1.
         11   -1    0    0    0    0 -0.00000000000E+00 -0.00000000000E+00 -0.45593999997E+02  0.45594000000E+02  0.51100000000E-03 0. -1.
         23    2    1    2    0    0  0.00000000000E+00  0.00000000000E+00 -0.88817841970E-15  0.91188000000E+02  0.91188000000E+02 0.  0.
    9900012    2    3    3    0    0 -0.36393930238E+02  0.32544554679E+01 -0.45467426943E+01  0.54367047980E+02  0.39999917479E+02 0.  0.
        -12    1    3    3    0    0  0.36393930238E+02 -0.32544554679E+01  0.45467426943E+01  0.36820952020E+02  0.00000000000E+00 0.  1.
         11    1    4    4    0    0 -0.22448417214E+02 -0.27570190439E+01  0.57834325582E+01  0.23344821307E+02  0.51100000000E-03 0. -1.
        -11    1    4    4    0    0 -0.18061005585E+02  0.11585728947E+02 -0.10904772310E+02  0.24069547095E+02  0.51100000000E-03 0.  1.
        -12    1    4    4    0    0  0.41154925613E+01 -0.55742544350E+01  0.57459705779E+00  0.69526795774E+01  0.00000000000E+00 0.  1.
</event>
<event>
 8    1  0.1212194E-006  0.9118800E+02  0.7816164E-02  0.1184000E+00
        -11   -1    0    0    0    0  0.00000000000E+00  0.00000000000E+00  0.45593999997E+02  0.45594000000E+02  0.51100000000E-03 0. -1.
         11   -1    0    0    0    0 -0.00000000000E+00 -0.00000000000E+00 -0.45593999997E+02  0.45594000000E+02  0.51100000000E-03 0.  1.
         23    2    1    2    0    0  0.00000000000E+00  0.00000000000E+00  0.00000000000E+00  0.91188000000E+02  0.91188000000E+02 0.  0.
    9900012    2    3    3    0    0  0.19619050516E+02 -0.19941089253E+02 -0.23942108973E+02  0.54367098792E+02  0.40000033315E+02 0.  0.
         12    1    3    3    0    0 -0.19619050516E+02  0.19941089253E+02  0.23942108973E+02  0.36820901208E+02  0.00000000000E+00 0. -1.
         11    1    4    4    0    0 -0.17880563453E+01  0.50424252117E+01  0.42608252999E+00  0.53670051326E+01  0.51100000000E-03 0. -1.
        -11    1    4    4    0    0  0.24473620400E+02 -0.91602684458E+01 -0.17674883806E+02  0.31547902170E+02  0.51100000000E-03 0.  1.
        -12    1    4    4    0    0 -0.30665135394E+01 -0.15823246019E+02 -0.66933076974E+01  0.17452191490E+02  0.00000000000E+00 0.  1.
</event>
<event>
 8    1  0.1212194E-006  0.9118800E+02  0.7816164E-02  0.1184000E+00
        -11   -1    0    0    0    0  0.00000000000E+00  0.00000000000E+00  0.45593999997E+02  0.45594000000E+02  0.51100000000E-03 0. -1.
         11   -1    0    0    0    0 -0.00000000000E+00 -0.00000000000E+00 -0.45593999997E+02  0.45594000000E+02  0.51100000000E-03 0.  1.
         23    2    1    2    0    0  0.00000000000E+00  0.00000000000E+00  0.00000000000E+00  0.91188000000E+02  0.91188000000E+02 0.  0.
    9900012    2    3    3    0    0 -0.12873051835E+02 -0.30238185314E+01 -0.34364550781E+02  0.54367064482E+02  0.39999955100E+02 0.  0.
         12    1    3    3    0    0  0.12873051835E+02  0.30238185314E+01  0.34364550781E+02  0.36820935518E+02  0.00000000000E+00 0. -1.
         11    1    4    4    0    0  0.74409618294E+01  0.41321508323E+01 -0.39350651280E+01  0.93769569301E+01  0.51100000000E-03 0. -1.
        -11    1    4    4    0    0 -0.42269316579E+01  0.54949385423E+01 -0.21628460980E+02  0.22712367236E+02  0.51100000000E-03 0.  1.
         12    1    4    4    0    0 -0.16087082006E+02 -0.12650907906E+02 -0.88010246726E+01  0.22277740316E+02  0.00000000000E+00 0. -1.
</event>
<event>
 8    1  0.1212194E-006  0.9118800E+02  0.7816164E-02  0.1184000E+00
        -11   -1    0    0    0    0  0.00000000000E+00  0.00000000000E+00  0.45593999997E+02  0.45594000000E+02  0.51100000000E-03 0. -1.
         11   -1    0    0    0    0 -0.00000000000E+00 -0.00000000000E+00 -0.45593999997E+02  0.45594000000E+02  0.51100000000E-03 0.  1.
         23    2    1    2    0    0  0.17763568394E-14  0.00000000000E+00  0.00000000000E+00  0.91188000000E+02  0.91188000000E+02 0.  0.
    9900012    2    3    3    0    0  0.13584276744E+02  0.24709910644E+02  0.23678404916E+02  0.54367094008E+02  0.40000022411E+02 0.  0.
         12    1    3    3    0    0 -0.13584276744E+02 -0.24709910644E+02 -0.23678404916E+02  0.36820905992E+02  0.00000000000E+00 0. -1.
         11    1    4    4    0    0 -0.33824025317E+01  0.11314688246E+02  0.12858620081E+02  0.17458720676E+02  0.51100000000E-03 0. -1.
        -11    1    4    4    0    0  0.24964879116E+01  0.15218425365E+02  0.15226991897E+02  0.21672429605E+02  0.51100000000E-03 0.  1.
        -12    1    4    4    0    0  0.14470191364E+02 -0.18232029666E+01 -0.44072070629E+01  0.15235943728E+02  0.00000000000E+00 0.  1.
</event>
<event>
 8    1  0.1212194E-006  0.9118800E+02  0.7816164E-02  0.1184000E+00
        -11   -1    0    0    0    0  0.00000000000E+00  0.00000000000E+00  0.45593999997E+02  0.45594000000E+02  0.51100000000E-03 0. -1.
         11   -1    0    0    0    0 -0.00000000000E+00 -0.00000000000E+00 -0.45593999997E+02  0.45594000000E+02  0.51100000000E-03 0.  1.
         23    2    1    2    0    0  0.35527136788E-14  0.17763568394E-14  0.00000000000E+00  0.91188000000E+02  0.91188000000E+02 0.  0.
    9900012    2    3    3    0    0  0.28004201913E+02 -0.89153849025E+01  0.22182445652E+02  0.54367077851E+02  0.39999985578E+02 0.  0.
        -12    1    3    3    0    0 -0.28004201913E+02  0.89153849025E+01 -0.22182445652E+02  0.36820922149E+02  0.00000000000E+00 0.  1.
         11    1    4    4    0    0  0.44747992874E+01 -0.10469807926E+02 -0.63960353732E+01  0.13059478375E+02  0.51100000000E-03 0. -1.
        -11    1    4    4    0    0  0.69739286247E+01  0.89562605329E+01  0.80484263592E+01  0.13915008096E+02  0.51100000000E-03 0.  1.
         12    1    4    4    0    0  0.16555474001E+02 -0.74018375094E+01  0.20530054666E+02  0.27392591380E+02  0.00000000000E+00 0. -1.
</event>
<event>
 8    1  0.1212194E-006  0.9118800E+02  0.7816164E-02  0.1184000E+00
        -11   -1    0    0    0    0  0.00000000000E+00  0.00000000000E+00  0.45593999997E+02  0.45594000000E+02  0.51100000000E-03 0.  1.
         11   -1    0    0    0    0 -0.00000000000E+00 -0.00000000000E+00 -0.45593999997E+02  0.45594000000E+02  0.51100000000E-03 0. -1.
         23    2    1    2    0    0  0.88817841970E-15  0.35527136788E-14 -0.14210854715E-13  0.91188000000E+02  0.91188000000E+02 0.  0.
    9900012    2    3    3    0    0 -0.48852312142E+01 -0.11591236438E+02  0.34605650637E+02  0.54367172983E+02  0.40000202449E+02 0.  0.
         12    1    3    3    0    0  0.48852312142E+01  0.11591236438E+02 -0.34605650637E+02  0.36820827017E+02  0.00000000000E+00 0. -1.
         11    1    4    4    0    0 -0.20997682892E+01  0.10599848011E+02  0.28102765427E+00  0.10809476469E+02  0.51100000000E-03 0. -1.
        -11    1    4    4    0    0  0.17024693520E+01 -0.28750865925E-01 -0.72200397783E+00  0.18494643852E+01  0.51100000000E-03 0.  1.
        -12    1    4    4    0    0 -0.44879322770E+01 -0.22162333583E+02  0.35046626961E+02  0.41708232129E+02  0.00000000000E+00 0.  1.
</event>
<event>
 8    1  0.1212194E-006  0.9118800E+02  0.7816164E-02  0.1184000E+00
        -11   -1    0    0    0    0  0.00000000000E+00  0.00000000000E+00  0.45593999997E+02  0.45594000000E+02  0.51100000000E-03 0. -1.
         11   -1    0    0    0    0 -0.00000000000E+00 -0.00000000000E+00 -0.45593999997E+02  0.45594000000E+02  0.51100000000E-03 0.  1.
         23    2    1    2    0    0  0.00000000000E+00  0.00000000000E+00 -0.17763568394E-14  0.91188000000E+02  0.91188000000E+02 0.  0.
    9900012    2    3    3    0    0  0.11505163287E+02 -0.32885881268E+02 -0.11913418673E+02  0.54367088639E+02  0.40000010169E+02 0.  0.
        -12    1    3    3    0    0 -0.11505163287E+02  0.32885881268E+02  0.11913418673E+02  0.36820911361E+02  0.00000000000E+00 0.  1.
         11    1    4    4    0    0  0.65679651341E+01 -0.25731955322E+02 -0.10933627253E+00  0.26557176909E+02  0.51100000000E-03 0. -1.
        -11    1    4    4    0    0 -0.16399547164E+01 -0.95165486269E+01 -0.16690230268E+02  0.19282581152E+02  0.51100000000E-03 0.  1.
        -12    1    4    4    0    0  0.65771528689E+01  0.23626226810E+01  0.48861478676E+01  0.85273305775E+01  0.00000000000E+00 0.  1.
</event>
<event>
 8    1  0.1212194E-006  0.9118800E+02  0.7816164E-02  0.1184000E+00
        -11   -1    0    0    0    0  0.00000000000E+00  0.00000000000E+00  0.45593999997E+02  0.45594000000E+02  0.51100000000E-03 0. -1.
         11   -1    0    0    0    0 -0.00000000000E+00 -0.00000000000E+00 -0.45593999997E+02  0.45594000000E+02  0.51100000000E-03 0.  1.
         23    2    1    2    0    0  0.00000000000E+00  0.00000000000E+00  0.00000000000E+00  0.91188000000E+02  0.91188000000E+02 0.  0.
    9900012    2    3    3    0    0 -0.18380840925E+02  0.31564598645E+02  0.46476206086E+01  0.54367087762E+02  0.40000008170E+02 0.  0.
         12    1    3    3    0    0  0.18380840925E+02 -0.31564598645E+02 -0.46476206086E+01  0.36820912238E+02  0.00000000000E+00 0. -1.
         11    1    4    4    0    0 -0.88326148218E+01  0.48476097525E+01  0.73528158568E+01  0.12473103310E+02  0.51100000000E-03 0. -1.
        -11    1    4    4    0    0 -0.91162426107E+01 -0.33177067859E+01  0.49570943792E+01  0.10894303218E+02  0.51100000000E-03 0.  1.
        -12    1    4    4    0    0 -0.43198349227E+00  0.30034695679E+02 -0.76622896274E+01  0.30999681234E+02  0.00000000000E+00 0.  1.
</event>
<event>
 8    1  0.1212194E-006  0.9118800E+02  0.7816164E-02  0.1184000E+00
        -11   -1    0    0    0    0  0.00000000000E+00  0.00000000000E+00  0.45593999997E+02  0.45594000000E+02  0.51100000000E-03 0. -1.
         11   -1    0    0    0    0 -0.00000000000E+00 -0.00000000000E+00 -0.45593999997E+02  0.45594000000E+02  0.51100000000E-03 0.  1.
         23    2    1    2    0    0  0.35527136788E-14  0.00000000000E+00 -0.35527136788E-14  0.91188000000E+02  0.91188000000E+02 0.  0.
    9900012    2    3    3    0    0  0.20340048511E+02 -0.14710012467E+02 -0.26938395138E+02  0.54367093265E+02  0.40000020716E+02 0.  0.
         12    1    3    3    0    0 -0.20340048511E+02  0.14710012467E+02  0.26938395138E+02  0.36820906735E+02  0.00000000000E+00 0. -1.
         11    1    4    4    0    0 -0.55956866767E+01  0.48590144133E+01 -0.49190786935E+01  0.88948898760E+01  0.51100000000E-03 0. -1.
        -11    1    4    4    0    0  0.16355586559E+02 -0.21406734542E+01 -0.19317217513E+02  0.25401625681E+02  0.51100000000E-03 0.  1.
         12    1    4    4    0    0  0.95801486281E+01 -0.17428353426E+02 -0.27020989314E+01  0.20070577707E+02  0.00000000000E+00 0. -1.
</event>
<event>
 8    1  0.1212194E-006  0.9118800E+02  0.7816164E-02  0.1184000E+00
        -11   -1    0    0    0    0  0.00000000000E+00  0.00000000000E+00  0.45593999997E+02  0.45594000000E+02  0.51100000000E-03 0.  1.
         11   -1    0    0    0    0 -0.00000000000E+00 -0.00000000000E+00 -0.45593999997E+02  0.45594000000E+02  0.51100000000E-03 0. -1.
         23    2    1    2    0    0  0.22204460493E-14  0.88817841970E-15  0.71054273576E-14  0.91188000000E+02  0.91188000000E+02 0.  0.
    9900012    2    3    3    0    0 -0.38388044875E+01 -0.48030937556E+01 -0.36303901023E+02  0.54367090736E+02  0.40000014950E+02 0.  0.
        -12    1    3    3    0    0  0.38388044875E+01  0.48030937556E+01  0.36303901023E+02  0.36820909264E+02  0.00000000000E+00 0.  1.
         11    1    4    4    0    0  0.22425040827E+01 -0.20299936274E+01 -0.24098379885E-01  0.30249429220E+01  0.51100000000E-03 0. -1.
        -11    1    4    4    0    0  0.10934998515E+02 -0.33214830454E+01 -0.18071167570E+00  0.11429746240E+02  0.51100000000E-03 0.  1.
         12    1    4    4    0    0 -0.17016307085E+02  0.54838291718E+00 -0.36099090968E+02  0.39912401573E+02  0.00000000000E+00 0. -1.
</event>
<event>
 8    1  0.1212194E-006  0.9118800E+02  0.7816164E-02  0.1184000E+00
        -11   -1    0    0    0    0  0.00000000000E+00  0.00000000000E+00  0.45593999997E+02  0.45594000000E+02  0.51100000000E-03 0.  1.
         11   -1    0    0    0    0 -0.00000000000E+00 -0.00000000000E+00 -0.45593999997E+02  0.45594000000E+02  0.51100000000E-03 0. -1.
         23    2    1    2    0    0 -0.71054273576E-14  0.00000000000E+00  0.17763568394E-14  0.91188000000E+02  0.91188000000E+02 0.  0.
    9900012    2    3    3    0    0  0.33531723190E+02  0.99079072268E+01  0.11542683146E+02  0.54367127931E+02  0.40000099744E+02 0.  0.
         12    1    3    3    0    0 -0.33531723190E+02 -0.99079072268E+01 -0.11542683146E+02  0.36820872069E+02  0.00000000000E+00 0. -1.
         11    1    4    4    0    0 -0.25965422131E+01  0.13490189715E+01  0.11202720176E+02  0.11578550136E+02  0.51100000000E-03 0.  1.
        -11    1    4    4    0    0 -0.15144970031E+01 -0.23616626203E+01 -0.21202132191E+01  0.35165971990E+01  0.51100000000E-03 0. -1.
         12    1    4    4    0    0  0.37642762407E+02  0.10920550876E+02  0.24601761888E+01  0.39271980596E+02  0.00000000000E+00 0. -1.
</event>
<event>
 8    1  0.1212194E-006  0.9118800E+02  0.7816164E-02  0.1184000E+00
        -11   -1    0    0    0    0  0.00000000000E+00  0.00000000000E+00  0.45593999997E+02  0.45594000000E+02  0.51100000000E-03 0. -1.
         11   -1    0    0    0    0 -0.00000000000E+00 -0.00000000000E+00 -0.45593999997E+02  0.45594000000E+02  0.51100000000E-03 0.  1.
         23    2    1    2    0    0 -0.35527136788E-14  0.00000000000E+00  0.00000000000E+00  0.91188000000E+02  0.91188000000E+02 0.  0.
    9900012    2    3    3    0    0 -0.28350417886E+02 -0.52147074550E+01 -0.22909390496E+02  0.54367088265E+02  0.40000009317E+02 0.  0.
         12    1    3    3    0    0  0.28350417886E+02  0.52147074550E+01  0.22909390496E+02  0.36820911735E+02  0.00000000000E+00 0. -1.
         11    1    4    4    0    0 -0.74713370134E+01  0.46914160757E-01  0.25605479853E+01  0.78980683684E+01  0.51100000000E-03 0. -1.
        -11    1    4    4    0    0 -0.22482830819E+02  0.50045964344E+01 -0.50836872114E+01  0.23587444605E+02  0.51100000000E-03 0.  1.
        -12    1    4    4    0    0  0.16037499463E+01 -0.10266218050E+02 -0.20386251270E+02  0.22881575291E+02  0.00000000000E+00 0.  1.
</event>
<event>
 8    1  0.1212194E-006  0.9118800E+02  0.7816164E-02  0.1184000E+00
        -11   -1    0    0    0    0  0.00000000000E+00  0.00000000000E+00  0.45593999997E+02  0.45594000000E+02  0.51100000000E-03 0.  1.
         11   -1    0    0    0    0 -0.00000000000E+00 -0.00000000000E+00 -0.45593999997E+02  0.45594000000E+02  0.51100000000E-03 0. -1.
         23    2    1    2    0    0 -0.88817841970E-15  0.00000000000E+00  0.00000000000E+00  0.91188000000E+02  0.91188000000E+02 0.  0.
    9900012    2    3    3    0    0 -0.53508968737E+01 -0.22883393115E+01 -0.36358093043E+02  0.54367088497E+02  0.40000009847E+02 0.  0.
        -12    1    3    3    0    0  0.53508968737E+01  0.22883393115E+01  0.36358093043E+02  0.36820911503E+02  0.00000000000E+00 0.  1.
         11    1    4    4    0    0 -0.20821755924E+02  0.25218064523E+01 -0.15593140684E+02  0.26135245631E+02  0.51100000000E-03 0. -1.
        -11    1    4    4    0    0 -0.47595317521E+00 -0.18277282729E+01 -0.60190070219E+01  0.63083728374E+01  0.51100000000E-03 0.  1.
        -12    1    4    4    0    0  0.15946812225E+02 -0.29824174909E+01 -0.14745945337E+02  0.21923470029E+02  0.00000000000E+00 0.  1.
</event>
<event>
 8    1  0.1212194E-006  0.9118800E+02  0.7816164E-02  0.1184000E+00
        -11   -1    0    0    0    0  0.00000000000E+00  0.00000000000E+00  0.45593999997E+02  0.45594000000E+02  0.51100000000E-03 0.  1.
         11   -1    0    0    0    0 -0.00000000000E+00 -0.00000000000E+00 -0.45593999997E+02  0.45594000000E+02  0.51100000000E-03 0. -1.
         23    2    1    2    0    0 -0.13322676296E-14  0.00000000000E+00  0.00000000000E+00  0.91188000000E+02  0.91188000000E+02 0.  0.
    9900012    2    3    3    0    0 -0.39944564192E+01 -0.35403145659E+02  0.92973707119E+01  0.54367088730E+02  0.40000010377E+02 0.  0.
         12    1    3    3    0    0  0.39944564192E+01  0.35403145659E+02 -0.92973707119E+01  0.36820911270E+02  0.00000000000E+00 0. -1.
         11    1    4    4    0    0 -0.12797777302E+02 -0.72516450215E+01  0.14527714566E+02  0.20674233968E+02  0.51100000000E-03 0. -1.
        -11    1    4    4    0    0  0.11075981506E+02 -0.22422264233E+02 -0.88697546583E+01  0.26535030575E+02  0.51100000000E-03 0.  1.
        -12    1    4    4    0    0 -0.22726606234E+01 -0.57292364041E+01  0.36394108044E+01  0.71578241866E+01  0.00000000000E+00 0.  1.
</event>
<event>
 8    1  0.1212194E-006  0.9118800E+02  0.7816164E-02  0.1184000E+00
        -11   -1    0    0    0    0  0.00000000000E+00  0.00000000000E+00  0.45593999997E+02  0.45594000000E+02  0.51100000000E-03 0.  1.
         11   -1    0    0    0    0 -0.00000000000E+00 -0.00000000000E+00 -0.45593999997E+02  0.45594000000E+02  0.51100000000E-03 0. -1.
         23    2    1    2    0    0  0.00000000000E+00  0.00000000000E+00  0.00000000000E+00  0.91188000000E+02  0.91188000000E+02 0.  0.
    9900012    2    3    3    0    0 -0.11158570105E+02 -0.12748064324E+02 -0.32691776062E+02  0.54367094894E+02  0.40000024429E+02 0.  0.
        -12    1    3    3    0    0  0.11158570105E+02  0.12748064324E+02  0.32691776062E+02  0.36820905106E+02  0.00000000000E+00 0.  1.
         11    1    4    4    0    0 -0.46627320734E+01  0.78415943223E+00 -0.25389000039E+02  0.25825516445E+02  0.51100000000E-03 0. -1.
        -11    1    4    4    0    0 -0.13797354818E+02 -0.13259729606E+02 -0.14700579789E+01  0.19192407350E+02  0.51100000000E-03 0.  1.
        -12    1    4    4    0    0  0.73015167863E+01 -0.27249415039E+00 -0.58327180438E+01  0.93491710981E+01  0.00000000000E+00 0.  1.
</event>
<event>
 8    1  0.1212194E-006  0.9118800E+02  0.7816164E-02  0.1184000E+00
        -11   -1    0    0    0    0  0.00000000000E+00  0.00000000000E+00  0.45593999997E+02  0.45594000000E+02  0.51100000000E-03 0. -1.
         11   -1    0    0    0    0 -0.00000000000E+00 -0.00000000000E+00 -0.45593999997E+02  0.45594000000E+02  0.51100000000E-03 0.  1.
         23    2    1    2    0    0  0.00000000000E+00  0.00000000000E+00 -0.71054273576E-14  0.91188000000E+02  0.91188000000E+02 0.  0.
    9900012    2    3    3    0    0  0.13626913294E+02 -0.78499268658E+01  0.33293578654E+02  0.54367129596E+02  0.40000103540E+02 0.  0.
        -12    1    3    3    0    0 -0.13626913294E+02  0.78499268658E+01 -0.33293578654E+02  0.36820870404E+02  0.00000000000E+00 0.  1.
         11    1    4    4    0    0 -0.18187835031E+01 -0.89002038287E+01  0.15256437329E+02  0.17756139272E+02  0.51100000000E-03 0. -1.
        -11    1    4    4    0    0  0.12882158114E+02 -0.42456974665E+01 -0.37262255293E+01  0.14066296656E+02  0.51100000000E-03 0.  1.
        -12    1    4    4    0    0  0.25635386835E+01  0.52959744295E+01  0.21763366855E+02  0.22544693668E+02  0.00000000000E+00 0.  1.
</event>
<event>
 8    1  0.1212194E-006  0.9118800E+02  0.7816164E-02  0.1184000E+00
        -11   -1    0    0    0    0  0.00000000000E+00  0.00000000000E+00  0.45593999997E+02  0.45594000000E+02  0.51100000000E-03 0. -1.
         11   -1    0    0    0    0 -0.00000000000E+00 -0.00000000000E+00 -0.45593999997E+02  0.45594000000E+02  0.51100000000E-03 0.  1.
         23    2    1    2    0    0  0.00000000000E+00  0.35527136788E-14 -0.71054273576E-14  0.91188000000E+02  0.91188000000E+02 0.  0.
    9900012    2    3    3    0    0  0.54554212698E+01  0.17085807400E+02 -0.32157332319E+02  0.54367075818E+02  0.39999980943E+02 0.  0.
         12    1    3    3    0    0 -0.54554212698E+01 -0.17085807400E+02  0.32157332319E+02  0.36820924182E+02  0.00000000000E+00 0. -1.
         11    1    4    4    0    0 -0.49749793904E+01  0.18864584681E+01 -0.19077270036E+02  0.19805337104E+02  0.51100000000E-03 0. -1.
        -11    1    4    4    0    0  0.61261999201E+01 -0.37675979622E+00 -0.16879877139E+02  0.17961139326E+02  0.51100000000E-03 0.  1.
        -12    1    4    4    0    0  0.43042007400E+01  0.15576108728E+02  0.37998148569E+01  0.16600599389E+02  0.00000000000E+00 0.  1.
</event>
<event>
 8    1  0.1212194E-006  0.9118800E+02  0.7816164E-02  0.1184000E+00
        -11   -1    0    0    0    0  0.00000000000E+00  0.00000000000E+00  0.45593999997E+02  0.45594000000E+02  0.51100000000E-03 0.  1.
         11   -1    0    0    0    0 -0.00000000000E+00 -0.00000000000E+00 -0.45593999997E+02  0.45594000000E+02  0.51100000000E-03 0. -1.
         23    2    1    2    0    0  0.00000000000E+00  0.00000000000E+00  0.35527136788E-14  0.91188000000E+02  0.91188000000E+02 0.  0.
    9900012    2    3    3    0    0 -0.28482965675E+02 -0.20473152797E+01 -0.23244549338E+02  0.54367083289E+02  0.39999997974E+02 0.  0.
        -12    1    3    3    0    0  0.28482965675E+02  0.20473152797E+01  0.23244549338E+02  0.36820916711E+02  0.00000000000E+00 0.  1.
         11    1    4    4    0    0 -0.20569895924E+02  0.23265433273E+01 -0.17028025912E+02  0.26804609471E+02  0.51100000000E-03 0. -1.
        -11    1    4    4    0    0 -0.12758217038E+02  0.66759239213E+01 -0.10502640053E+01  0.14437559245E+02  0.51100000000E-03 0.  1.
        -12    1    4    4    0    0  0.48451472869E+01 -0.11049782528E+02 -0.51662594205E+01  0.13124914573E+02  0.00000000000E+00 0.  1.
</event>
<event>
 8    1  0.1212194E-006  0.9118800E+02  0.7816164E-02  0.1184000E+00
        -11   -1    0    0    0    0  0.00000000000E+00  0.00000000000E+00  0.45593999997E+02  0.45594000000E+02  0.51100000000E-03 0.  1.
         11   -1    0    0    0    0 -0.00000000000E+00 -0.00000000000E+00 -0.45593999997E+02  0.45594000000E+02  0.51100000000E-03 0. -1.
         23    2    1    2    0    0 -0.35527136788E-14  0.00000000000E+00 -0.88817841970E-15  0.91188000000E+02  0.91188000000E+02 0.  0.
    9900012    2    3    3    0    0 -0.22700176860E+02 -0.28958006532E+02  0.13839804536E+01  0.54367087821E+02  0.40000008305E+02 0.  0.
         12    1    3    3    0    0  0.22700176860E+02  0.28958006532E+02 -0.13839804536E+01  0.36820912179E+02  0.00000000000E+00 0. -1.
         11    1    4    4    0    0 -0.67523504073E+00  0.60481099431E+01  0.43531990445E+01  0.74823738496E+01  0.51100000000E-03 0. -1.
        -11    1    4    4    0    0 -0.83884271875E+01 -0.56335727389E+01  0.77918423906E+01  0.12759924004E+02  0.51100000000E-03 0.  1.
         12    1    4    4    0    0 -0.13636514632E+02 -0.29372543737E+02 -0.10761060981E+02  0.34124789967E+02  0.00000000000E+00 0. -1.
</event>
<event>
 8    1  0.1212194E-006  0.9118800E+02  0.7816164E-02  0.1184000E+00
        -11   -1    0    0    0    0  0.00000000000E+00  0.00000000000E+00  0.45593999997E+02  0.45594000000E+02  0.51100000000E-03 0. -1.
         11   -1    0    0    0    0 -0.00000000000E+00 -0.00000000000E+00 -0.45593999997E+02  0.45594000000E+02  0.51100000000E-03 0.  1.
         23    2    1    2    0    0  0.00000000000E+00  0.35527136788E-14 -0.35527136788E-14  0.91188000000E+02  0.91188000000E+02 0.  0.
    9900012    2    3    3    0    0  0.23940130888E+01  0.31736488080E+02 -0.18516032611E+02  0.54367089664E+02  0.40000012508E+02 0.  0.
         12    1    3    3    0    0 -0.23940130888E+01 -0.31736488080E+02  0.18516032611E+02  0.36820910336E+02  0.00000000000E+00 0. -1.
         11    1    4    4    0    0 -0.30322852273E+01 -0.13304117703E+01  0.44293277986E+01  0.55302526332E+01  0.51100000000E-03 0. -1.
        -11    1    4    4    0    0  0.32301928941E+01  0.17671101150E+01  0.54111962587E+01  0.65450645148E+01  0.51100000000E-03 0.  1.
        -12    1    4    4    0    0  0.21961054220E+01  0.31299789735E+02 -0.28356556669E+02  0.42291772516E+02  0.00000000000E+00 0.  1.
</event>
<event>
 8    1  0.1212194E-006  0.9118800E+02  0.7816164E-02  0.1184000E+00
        -11   -1    0    0    0    0  0.00000000000E+00  0.00000000000E+00  0.45593999997E+02  0.45594000000E+02  0.51100000000E-03 0.  1.
         11   -1    0    0    0    0 -0.00000000000E+00 -0.00000000000E+00 -0.45593999997E+02  0.45594000000E+02  0.51100000000E-03 0. -1.
         23    2    1    2    0    0 -0.88817841970E-15  0.00000000000E+00  0.00000000000E+00  0.91188000000E+02  0.91188000000E+02 0.  0.
    9900012    2    3    3    0    0  0.58476092520E+01 -0.27588098616E+02  0.23674491962E+02  0.54367091689E+02  0.40000017122E+02 0.  0.
         12    1    3    3    0    0 -0.58476092520E+01  0.27588098616E+02 -0.23674491962E+02  0.36820908311E+02  0.00000000000E+00 0. -1.
         11    1    4    4    0    0  0.20691281448E+01  0.24937307612E+01 -0.17508368839E+01  0.36831256352E+01  0.51100000000E-03 0. -1.
        -11    1    4    4    0    0 -0.79630580644E+01 -0.10787498628E+01  0.16165936244E+02  0.18053018859E+02  0.51100000000E-03 0.  1.
        -12    1    4    4    0    0  0.11741539172E+02 -0.29003079515E+02  0.92593926013E+01  0.32630947194E+02  0.00000000000E+00 0.  1.
</event>
<event>
 8    1  0.1212194E-006  0.9118800E+02  0.7816164E-02  0.1184000E+00
        -11   -1    0    0    0    0  0.00000000000E+00  0.00000000000E+00  0.45593999997E+02  0.45594000000E+02  0.51100000000E-03 0.  1.
         11   -1    0    0    0    0 -0.00000000000E+00 -0.00000000000E+00 -0.45593999997E+02  0.45594000000E+02  0.51100000000E-03 0. -1.
         23    2    1    2    0    0  0.17763568394E-14  0.00000000000E+00  0.00000000000E+00  0.91188000000E+02  0.91188000000E+02 0.  0.
    9900012    2    3    3    0    0 -0.11770588148E+02 -0.33006689809E+02 -0.11304489950E+02  0.54367084606E+02  0.40000000975E+02 0.  0.
         12    1    3    3    0    0  0.11770588148E+02  0.33006689809E+02  0.11304489950E+02  0.36820915394E+02  0.00000000000E+00 0. -1.
         11    1    4    4    0    0  0.49126670915E+01 -0.41454683907E+01 -0.17684113181E+02  0.18816138429E+02  0.51100000000E-03 0. -1.
        -11    1    4    4    0    0 -0.56258607538E+01 -0.66467916642E+01 -0.27167011142E+01  0.91219851926E+01  0.51100000000E-03 0.  1.
         12    1    4    4    0    0 -0.11057394485E+02 -0.22214429754E+02  0.90963243453E+01  0.26428960984E+02  0.00000000000E+00 0. -1.
</event>
<event>
 8    1  0.1212194E-006  0.9118800E+02  0.7816164E-02  0.1184000E+00
        -11   -1    0    0    0    0  0.00000000000E+00  0.00000000000E+00  0.45593999997E+02  0.45594000000E+02  0.51100000000E-03 0. -1.
         11   -1    0    0    0    0 -0.00000000000E+00 -0.00000000000E+00 -0.45593999997E+02  0.45594000000E+02  0.51100000000E-03 0.  1.
         23    2    1    2    0    0  0.17763568394E-14 -0.44408920985E-15  0.71054273576E-14  0.91188000000E+02  0.91188000000E+02 0.  0.
    9900012    2    3    3    0    0  0.15637765622E+02  0.18486194526E+01  0.33283962637E+02  0.54367091859E+02  0.40000017510E+02 0.  0.
        -12    1    3    3    0    0 -0.15637765622E+02 -0.18486194526E+01 -0.33283962637E+02  0.36820908141E+02  0.00000000000E+00 0.  1.
         11    1    4    4    0    0  0.12564731691E+02 -0.54843325618E+01 -0.15852993346E+01  0.13800853610E+02  0.51100000000E-03 0. -1.
        -11    1    4    4    0    0 -0.13621468602E+01  0.49588511469E+01 -0.19180435198E+00  0.51461090094E+01  0.51100000000E-03 0.  1.
         12    1    4    4    0    0  0.44351807912E+01  0.23741008675E+01  0.35061066324E+02  0.35420129239E+02  0.00000000000E+00 0. -1.
</event>
<event>
 8    1  0.1212194E-006  0.9118800E+02  0.7816164E-02  0.1184000E+00
        -11   -1    0    0    0    0  0.00000000000E+00  0.00000000000E+00  0.45593999997E+02  0.45594000000E+02  0.51100000000E-03 0.  1.
         11   -1    0    0    0    0 -0.00000000000E+00 -0.00000000000E+00 -0.45593999997E+02  0.45594000000E+02  0.51100000000E-03 0. -1.
         23    2    1    2    0    0  0.00000000000E+00 -0.71054273576E-14  0.88817841970E-15  0.91188000000E+02  0.91188000000E+02 0.  0.
    9900012    2    3    3    0    0 -0.13322720056E+02  0.33432113566E+02 -0.77832218907E+01  0.54367087054E+02  0.40000006558E+02 0.  0.
        -12    1    3    3    0    0  0.13322720056E+02 -0.33432113566E+02  0.77832218907E+01  0.36820912946E+02  0.00000000000E+00 0.  1.
         11    1    4    4    0    0  0.42378214469E+01 -0.48483701321E+00 -0.48594061640E+01  0.64659126249E+01  0.51100000000E-03 0. -1.
        -11    1    4    4    0    0  0.34412619105E+01  0.13238943354E+02  0.87085162943E+01  0.16215738065E+02  0.51100000000E-03 0.  1.
         12    1    4    4    0    0 -0.21001803413E+02  0.20678007224E+02 -0.11632332021E+02  0.31685436365E+02  0.00000000000E+00 0. -1.
</event>
<event>
 8    1  0.1212194E-006  0.9118800E+02  0.7816164E-02  0.1184000E+00
        -11   -1    0    0    0    0  0.00000000000E+00  0.00000000000E+00  0.45593999997E+02  0.45594000000E+02  0.51100000000E-03 0. -1.
         11   -1    0    0    0    0 -0.00000000000E+00 -0.00000000000E+00 -0.45593999997E+02  0.45594000000E+02  0.51100000000E-03 0.  1.
         23    2    1    2    0    0  0.00000000000E+00  0.00000000000E+00  0.17763568394E-14  0.91188000000E+02  0.91188000000E+02 0.  0.
    9900012    2    3    3    0    0 -0.10970515610E+02 -0.33917045495E+02 -0.92228783298E+01  0.54367086478E+02  0.40000005245E+02 0.  0.
         12    1    3    3    0    0  0.10970515610E+02  0.33917045495E+02  0.92228783298E+01  0.36820913522E+02  0.00000000000E+00 0. -1.
         11    1    4    4    0    0  0.35788293292E+01  0.76389235097E+01 -0.23550099070E+01  0.87582671618E+01  0.51100000000E-03 0. -1.
        -11    1    4    4    0    0 -0.62412299517E+01 -0.15252656308E+02  0.20769944279E+01  0.16610550319E+02  0.51100000000E-03 0.  1.
         12    1    4    4    0    0 -0.83081149877E+01 -0.26303312697E+02 -0.89448628508E+01  0.28998268998E+02  0.00000000000E+00 0. -1.
</event>
<event>
 8    1  0.1212194E-006  0.9118800E+02  0.7816164E-02  0.1184000E+00
        -11   -1    0    0    0    0  0.00000000000E+00  0.00000000000E+00  0.45593999997E+02  0.45594000000E+02  0.51100000000E-03 0. -1.
         11   -1    0    0    0    0 -0.00000000000E+00 -0.00000000000E+00 -0.45593999997E+02  0.45594000000E+02  0.51100000000E-03 0.  1.
         23    2    1    2    0    0 -0.35527136788E-14 -0.35527136788E-14  0.00000000000E+00  0.91188000000E+02  0.91188000000E+02 0.  0.
    9900012    2    3    3    0    0 -0.19763095434E+02 -0.79093114925E+01 -0.30044194353E+02  0.54366935869E+02  0.39999661899E+02 0.  0.
         12    1    3    3    0    0  0.19763095434E+02  0.79093114925E+01  0.30044194353E+02  0.36821064131E+02  0.00000000000E+00 0. -1.
         11    1    4    4    0    0 -0.17283709730E+02 -0.97933896929E+00 -0.21923762440E+02  0.27934514254E+02  0.51100000000E-03 0.  1.
        -11    1    4    4    0    0  0.99172973019E+00  0.65533276155E+01  0.41952952210E+01  0.78441145419E+01  0.51100000000E-03 0. -1.
        -12    1    4    4    0    0 -0.34711154345E+01 -0.13483300139E+02 -0.12315727134E+02  0.18588307073E+02  0.00000000000E+00 0.  1.
</event>
<event>
 8    1  0.1212194E-006  0.9118800E+02  0.7816164E-02  0.1184000E+00
        -11   -1    0    0    0    0  0.00000000000E+00  0.00000000000E+00  0.45593999997E+02  0.45594000000E+02  0.51100000000E-03 0. -1.
         11   -1    0    0    0    0 -0.00000000000E+00 -0.00000000000E+00 -0.45593999997E+02  0.45594000000E+02  0.51100000000E-03 0.  1.
         23    2    1    2    0    0  0.00000000000E+00  0.00000000000E+00  0.00000000000E+00  0.91188000000E+02  0.91188000000E+02 0.  0.
    9900012    2    3    3    0    0 -0.11497601345E+02  0.34023825281E+02  0.81221351377E+01  0.54367019532E+02  0.39999852627E+02 0.  0.
        -12    1    3    3    0    0  0.11497601345E+02 -0.34023825281E+02 -0.81221351377E+01  0.36820980468E+02  0.00000000000E+00 0.  1.
         11    1    4    4    0    0 -0.13153375635E+02  0.84391578823E+01 -0.31890774170E+01  0.15949949573E+02  0.51100000000E-03 0. -1.
        -11    1    4    4    0    0 -0.82773968784E+01 -0.19334260228E+00  0.61491394358E+01  0.10313321313E+02  0.51100000000E-03 0.  1.
        -12    1    4    4    0    0  0.99331711682E+01  0.25778010001E+02  0.51620731190E+01  0.28103748646E+02  0.00000000000E+00 0.  1.
</event>
<event>
 8    1  0.1212194E-006  0.9118800E+02  0.7816164E-02  0.1184000E+00
        -11   -1    0    0    0    0  0.00000000000E+00  0.00000000000E+00  0.45593999997E+02  0.45594000000E+02  0.51100000000E-03 0.  1.
         11   -1    0    0    0    0 -0.00000000000E+00 -0.00000000000E+00 -0.45593999997E+02  0.45594000000E+02  0.51100000000E-03 0. -1.
         23    2    1    2    0    0  0.00000000000E+00  0.00000000000E+00 -0.35527136788E-14  0.91188000000E+02  0.91188000000E+02 0.  0.
    9900012    2    3    3    0    0  0.25711023174E+02 -0.17078029802E+02 -0.20076460494E+02  0.54367080938E+02  0.39999992614E+02 0.  0.
        -12    1    3    3    0    0 -0.25711023174E+02  0.17078029802E+02  0.20076460494E+02  0.36820919062E+02  0.00000000000E+00 0.  1.
         11    1    4    4    0    0  0.10615491096E+02 -0.10835152307E+01  0.81134690266E+00  0.10701445722E+02  0.51100000000E-03 0. -1.
        -11    1    4    4    0    0  0.27593265094E+01  0.25799579611E+01  0.70032061298E+01  0.79570699522E+01  0.51100000000E-03 0.  1.
         12    1    4    4    0    0  0.12336205569E+02 -0.18574472533E+02 -0.27891013526E+02  0.35708565264E+02  0.00000000000E+00 0. -1.
</event>
<event>
 8    1  0.1212194E-006  0.9118800E+02  0.7816164E-02  0.1184000E+00
        -11   -1    0    0    0    0  0.00000000000E+00  0.00000000000E+00  0.45593999997E+02  0.45594000000E+02  0.51100000000E-03 0. -1.
         11   -1    0    0    0    0 -0.00000000000E+00 -0.00000000000E+00 -0.45593999997E+02  0.45594000000E+02  0.51100000000E-03 0.  1.
         23    2    1    2    0    0  0.00000000000E+00  0.00000000000E+00  0.00000000000E+00  0.91188000000E+02  0.91188000000E+02 0.  0.
    9900012    2    3    3    0    0  0.15919699479E+02  0.32942755232E+02  0.41372921587E+01  0.54367093707E+02  0.40000021725E+02 0.  0.
        -12    1    3    3    0    0 -0.15919699479E+02 -0.32942755232E+02 -0.41372921587E+01  0.36820906293E+02  0.00000000000E+00 0.  1.
         11    1    4    4    0    0  0.91540223263E-01  0.26780998046E+01  0.34939168674E+01  0.44031867452E+01  0.51100000000E-03 0. -1.
        -11    1    4    4    0    0  0.10759486108E+02  0.14237024856E+02  0.18316844465E+02  0.25572763039E+02  0.51100000000E-03 0.  1.
        -12    1    4    4    0    0  0.50686731487E+01  0.16027630572E+02 -0.17673469174E+02  0.24391143923E+02  0.00000000000E+00 0.  1.
</event>
<event>
 8    1  0.1212194E-006  0.9118800E+02  0.7816164E-02  0.1184000E+00
        -11   -1    0    0    0    0  0.00000000000E+00  0.00000000000E+00  0.45593999997E+02  0.45594000000E+02  0.51100000000E-03 0. -1.
         11   -1    0    0    0    0 -0.00000000000E+00 -0.00000000000E+00 -0.45593999997E+02  0.45594000000E+02  0.51100000000E-03 0.  1.
         23    2    1    2    0    0  0.00000000000E+00  0.17763568394E-14  0.35527136788E-14  0.91188000000E+02  0.91188000000E+02 0.  0.
    9900012    2    3    3    0    0 -0.24560755151E+02 -0.14495313985E+02  0.23290227248E+02  0.54367088735E+02  0.40000010389E+02 0.  0.
        -12    1    3    3    0    0  0.24560755151E+02  0.14495313985E+02 -0.23290227248E+02  0.36820911265E+02  0.00000000000E+00 0.  1.
         11    1    4    4    0    0 -0.19933936637E+02  0.51399097973E+01 -0.31692652148E+01  0.20828459972E+02  0.51100000000E-03 0. -1.
        -11    1    4    4    0    0 -0.45330879167E+01 -0.18149693061E+02  0.22225011481E+02  0.29050152837E+02  0.51100000000E-03 0.  1.
         12    1    4    4    0    0 -0.93730597559E-01 -0.14855307211E+01  0.42344809816E+01  0.44884759253E+01  0.00000000000E+00 0. -1.
</event>
<event>
 8    1  0.1212194E-006  0.9118800E+02  0.7816164E-02  0.1184000E+00
        -11   -1    0    0    0    0  0.00000000000E+00  0.00000000000E+00  0.45593999997E+02  0.45594000000E+02  0.51100000000E-03 0. -1.
         11   -1    0    0    0    0 -0.00000000000E+00 -0.00000000000E+00 -0.45593999997E+02  0.45594000000E+02  0.51100000000E-03 0.  1.
         23    2    1    2    0    0  0.00000000000E+00 -0.88817841970E-15  0.00000000000E+00  0.91188000000E+02  0.91188000000E+02 0.  0.
    9900012    2    3    3    0    0 -0.10799295173E+02  0.47072227238E+01  0.34885498601E+02  0.54367072056E+02  0.39999972366E+02 0.  0.
        -12    1    3    3    0    0  0.10799295173E+02 -0.47072227238E+01 -0.34885498601E+02  0.36820927944E+02  0.00000000000E+00 0.  1.
         11    1    4    4    0    0 -0.48923936446E+01 -0.29912649935E+01  0.28976967720E+02  0.29538920771E+02  0.51100000000E-03 0. -1.
        -11    1    4    4    0    0 -0.37032031787E+01  0.36002266142E+01 -0.83562844907E+01  0.98235857103E+01  0.51100000000E-03 0.  1.
        -12    1    4    4    0    0 -0.22036983495E+01  0.40982611031E+01  0.14264815372E+02  0.15004565574E+02  0.00000000000E+00 0.  1.
</event>
<event>
 8    1  0.1212194E-006  0.9118800E+02  0.7816164E-02  0.1184000E+00
        -11   -1    0    0    0    0  0.00000000000E+00  0.00000000000E+00  0.45593999997E+02  0.45594000000E+02  0.51100000000E-03 0.  1.
         11   -1    0    0    0    0 -0.00000000000E+00 -0.00000000000E+00 -0.45593999997E+02  0.45594000000E+02  0.51100000000E-03 0. -1.
         23    2    1    2    0    0  0.00000000000E+00 -0.17763568394E-14  0.17763568394E-14  0.91188000000E+02  0.91188000000E+02 0.  0.
    9900012    2    3    3    0    0  0.35016946381E+02  0.73535616285E+01  0.86901288036E+01  0.54367085548E+02  0.40000003123E+02 0.  0.
         12    1    3    3    0    0 -0.35016946381E+02 -0.73535616285E+01 -0.86901288036E+01  0.36820914452E+02  0.00000000000E+00 0. -1.
         11    1    4    4    0    0 -0.13798104430E+01 -0.23376412698E+01  0.92649250392E+01  0.96543917368E+01  0.51100000000E-03 0. -1.
        -11    1    4    4    0    0  0.37060393094E+02  0.25043429235E+01  0.15859628535E+01  0.37178753989E+02  0.51100000000E-03 0.  1.
         12    1    4    4    0    0 -0.66363626967E+00  0.71868599748E+01 -0.21607590892E+01  0.75339398217E+01  0.00000000000E+00 0. -1.
</event>
<event>
 8    1  0.1212194E-006  0.9118800E+02  0.7816164E-02  0.1184000E+00
        -11   -1    0    0    0    0  0.00000000000E+00  0.00000000000E+00  0.45593999997E+02  0.45594000000E+02  0.51100000000E-03 0. -1.
         11   -1    0    0    0    0 -0.00000000000E+00 -0.00000000000E+00 -0.45593999997E+02  0.45594000000E+02  0.51100000000E-03 0.  1.
         23    2    1    2    0    0 -0.71054273576E-14  0.17763568394E-14 -0.17763568394E-14  0.91188000000E+02  0.91188000000E+02 0.  0.
    9900012    2    3    3    0    0 -0.32104875253E+02  0.86004008451E+01 -0.15845815163E+02  0.54367085184E+02  0.40000002294E+02 0.  0.
         12    1    3    3    0    0  0.32104875253E+02 -0.86004008451E+01  0.15845815163E+02  0.36820914816E+02  0.00000000000E+00 0. -1.
         11    1    4    4    0    0 -0.33784352700E+01  0.17059808955E+02 -0.16454058102E+01  0.17468779780E+02  0.51100000000E-03 0. -1.
        -11    1    4    4    0    0 -0.30819546276E+01 -0.19568048644E+00  0.34950233885E+01  0.46638957886E+01  0.51100000000E-03 0.  1.
        -12    1    4    4    0    0 -0.25644485355E+02 -0.82637276236E+01 -0.17695432741E+02  0.32234409616E+02  0.00000000000E+00 0.  1.
</event>
<event>
 8    1  0.1212194E-006  0.9118800E+02  0.7816164E-02  0.1184000E+00
        -11   -1    0    0    0    0  0.00000000000E+00  0.00000000000E+00  0.45593999997E+02  0.45594000000E+02  0.51100000000E-03 0. -1.
         11   -1    0    0    0    0 -0.00000000000E+00 -0.00000000000E+00 -0.45593999997E+02  0.45594000000E+02  0.51100000000E-03 0.  1.
         23    2    1    2    0    0  0.00000000000E+00  0.35527136788E-14  0.00000000000E+00  0.91188000000E+02  0.91188000000E+02 0.  0.
    9900012    2    3    3    0    0 -0.13644385048E+02 -0.21719129575E+02 -0.26417599860E+02  0.54367089973E+02  0.40000013212E+02 0.  0.
         12    1    3    3    0    0  0.13644385048E+02  0.21719129575E+02  0.26417599860E+02  0.36820910027E+02  0.00000000000E+00 0. -1.
         11    1    4    4    0    0 -0.78967042235E+01 -0.25503655753E+00  0.53089976320E+01  0.95188464299E+01  0.51100000000E-03 0. -1.
        -11    1    4    4    0    0 -0.80421530029E+01 -0.22383555681E+02 -0.15398187052E+02  0.28333795273E+02  0.51100000000E-03 0.  1.
         12    1    4    4    0    0  0.22944721787E+01  0.91946266376E+00 -0.16328410440E+02  0.16514448270E+02  0.00000000000E+00 0. -1.
</event>
<event>
 8    1  0.1212194E-006  0.9118800E+02  0.7816164E-02  0.1184000E+00
        -11   -1    0    0    0    0  0.00000000000E+00  0.00000000000E+00  0.45593999997E+02  0.45594000000E+02  0.51100000000E-03 0.  1.
         11   -1    0    0    0    0 -0.00000000000E+00 -0.00000000000E+00 -0.45593999997E+02  0.45594000000E+02  0.51100000000E-03 0. -1.
         23    2    1    2    0    0  0.35527136788E-14 -0.24424906542E-14  0.00000000000E+00  0.91188000000E+02  0.91188000000E+02 0.  0.
    9900012    2    3    3    0    0  0.16014565468E+02 -0.17111204760E+01 -0.33111702837E+02  0.54367094183E+02  0.40000022810E+02 0.  0.
        -12    1    3    3    0    0 -0.16014565468E+02  0.17111204760E+01  0.33111702837E+02  0.36820905817E+02  0.00000000000E+00 0.  1.
         11    1    4    4    0    0 -0.36229249053E+01  0.62634645095E+01  0.32631780127E+01  0.79375628209E+01  0.51100000000E-03 0. -1.
        -11    1    4    4    0    0  0.66535501437E+01  0.61472459302E+01 -0.74869392595E+01  0.11752132648E+02  0.51100000000E-03 0.  1.
         12    1    4    4    0    0  0.12983940229E+02 -0.14121830916E+02 -0.28887941590E+02  0.34677398714E+02  0.00000000000E+00 0. -1.
</event>
<event>
 8    1  0.1212194E-006  0.9118800E+02  0.7816164E-02  0.1184000E+00
        -11   -1    0    0    0    0  0.00000000000E+00  0.00000000000E+00  0.45593999997E+02  0.45594000000E+02  0.51100000000E-03 0. -1.
         11   -1    0    0    0    0 -0.00000000000E+00 -0.00000000000E+00 -0.45593999997E+02  0.45594000000E+02  0.51100000000E-03 0.  1.
         23    2    1    2    0    0  0.00000000000E+00  0.22204460493E-15  0.00000000000E+00  0.91188000000E+02  0.91188000000E+02 0.  0.
    9900012    2    3    3    0    0 -0.36174741922E+02  0.14955892940E+01  0.67030742432E+01  0.54367082782E+02  0.39999996819E+02 0.  0.
        -12    1    3    3    0    0  0.36174741922E+02 -0.14955892940E+01 -0.67030742432E+01  0.36820917218E+02  0.00000000000E+00 0.  1.
         11    1    4    4    0    0 -0.41783553288E+00  0.27119425906E+01  0.12637841513E+02  0.12932295137E+02  0.51100000000E-03 0. -1.
        -11    1    4    4    0    0 -0.20430937459E+02  0.11865433867E+01 -0.13149765455E+02  0.24325859130E+02  0.51100000000E-03 0.  1.
         12    1    4    4    0    0 -0.15325968930E+02 -0.24028966834E+01  0.72149981848E+01  0.17108928515E+02  0.00000000000E+00 0. -1.
</event>
<event>
 8    1  0.1212194E-006  0.9118800E+02  0.7816164E-02  0.1184000E+00
        -11   -1    0    0    0    0  0.00000000000E+00  0.00000000000E+00  0.45593999997E+02  0.45594000000E+02  0.51100000000E-03 0.  1.
         11   -1    0    0    0    0 -0.00000000000E+00 -0.00000000000E+00 -0.45593999997E+02  0.45594000000E+02  0.51100000000E-03 0. -1.
         23    2    1    2    0    0  0.00000000000E+00  0.00000000000E+00  0.00000000000E+00  0.91188000000E+02  0.91188000000E+02 0.  0.
    9900012    2    3    3    0    0  0.24493594328E+02  0.22684303708E+02 -0.15532734392E+02  0.54367086982E+02  0.40000006392E+02 0.  0.
        -12    1    3    3    0    0 -0.24493594328E+02 -0.22684303708E+02  0.15532734392E+02  0.36820913018E+02  0.00000000000E+00 0.  1.
         11    1    4    4    0    0  0.11777675193E+02  0.11344587748E+02 -0.14155005446E+02  0.21628164129E+02  0.51100000000E-03 0. -1.
        -11    1    4    4    0    0  0.17785374771E+02  0.13660002101E+02 -0.82450254418E+01  0.23893422901E+02  0.51100000000E-03 0.  1.
        -12    1    4    4    0    0 -0.50694556364E+01 -0.23202861416E+01  0.68672964961E+01  0.88454999516E+01  0.00000000000E+00 0.  1.
</event>
<event>
 8    1  0.1212194E-006  0.9118800E+02  0.7816164E-02  0.1184000E+00
        -11   -1    0    0    0    0  0.00000000000E+00  0.00000000000E+00  0.45593999997E+02  0.45594000000E+02  0.51100000000E-03 0.  1.
         11   -1    0    0    0    0 -0.00000000000E+00 -0.00000000000E+00 -0.45593999997E+02  0.45594000000E+02  0.51100000000E-03 0. -1.
         23    2    1    2    0    0  0.35527136788E-14  0.00000000000E+00  0.00000000000E+00  0.91188000000E+02  0.91188000000E+02 0.  0.
    9900012    2    3    3    0    0 -0.28986447711E+02 -0.18905603094E+02 -0.12575532742E+02  0.54367081991E+02  0.39999995015E+02 0.  0.
         12    1    3    3    0    0  0.28986447711E+02  0.18905603094E+02  0.12575532742E+02  0.36820918009E+02  0.00000000000E+00 0. -1.
         11    1    4    4    0    0 -0.41605028216E+01 -0.22216128004E+02 -0.12341302096E+02  0.25752162334E+02  0.51100000000E-03 0. -1.
        -11    1    4    4    0    0 -0.59841840905E+01 -0.42227589644E+01 -0.34047676259E+01  0.80767936304E+01  0.51100000000E-03 0.  1.
         12    1    4    4    0    0 -0.18841760799E+02  0.75332838735E+01  0.31705369799E+01  0.20538126026E+02  0.00000000000E+00 0. -1.
</event>
<event>
 8    1  0.1212194E-006  0.9118800E+02  0.7816164E-02  0.1184000E+00
        -11   -1    0    0    0    0  0.00000000000E+00  0.00000000000E+00  0.45593999997E+02  0.45594000000E+02  0.51100000000E-03 0. -1.
         11   -1    0    0    0    0 -0.00000000000E+00 -0.00000000000E+00 -0.45593999997E+02  0.45594000000E+02  0.51100000000E-03 0.  1.
         23    2    1    2    0    0  0.35527136788E-14  0.00000000000E+00  0.00000000000E+00  0.91188000000E+02  0.91188000000E+02 0.  0.
    9900012    2    3    3    0    0 -0.21843858223E+02 -0.18990514859E+01  0.29580571232E+02  0.54367207871E+02  0.40000281981E+02 0.  0.
        -12    1    3    3    0    0  0.21843858223E+02  0.18990514859E+01 -0.29580571232E+02  0.36820792129E+02  0.00000000000E+00 0.  1.
         11    1    4    4    0    0 -0.59724428304E+01  0.11205720095E+01  0.24034206020E+02  0.24790498468E+02  0.51100000000E-03 0. -1.
        -11    1    4    4    0    0  0.68071650502E+00 -0.44134304346E+01 -0.73139685429E+01  0.85694736868E+01  0.51100000000E-03 0.  1.
        -12    1    4    4    0    0 -0.16552131898E+02  0.13938069392E+01  0.12860333755E+02  0.21007235716E+02  0.00000000000E+00 0.  1.
</event>
<event>
 8    1  0.1212194E-006  0.9118800E+02  0.7816164E-02  0.1184000E+00
        -11   -1    0    0    0    0  0.00000000000E+00  0.00000000000E+00  0.45593999997E+02  0.45594000000E+02  0.51100000000E-03 0.  1.
         11   -1    0    0    0    0 -0.00000000000E+00 -0.00000000000E+00 -0.45593999997E+02  0.45594000000E+02  0.51100000000E-03 0. -1.
         23    2    1    2    0    0  0.00000000000E+00 -0.35527136788E-14  0.00000000000E+00  0.91188000000E+02  0.91188000000E+02 0.  0.
    9900012    2    3    3    0    0  0.19094036916E+02 -0.19628840692E+02  0.24615168784E+02  0.54367079765E+02  0.39999989941E+02 0.  0.
         12    1    3    3    0    0 -0.19094036916E+02  0.19628840692E+02 -0.24615168784E+02  0.36820920235E+02  0.00000000000E+00 0. -1.
         11    1    4    4    0    0 -0.10664652353E+02 -0.79110463613E+01  0.78955144924E+01  0.15448579666E+02  0.51100000000E-03 0. -1.
        -11    1    4    4    0    0  0.27074118861E+01  0.22920960986E+01 -0.98752961366E+00  0.36822545601E+01  0.51100000000E-03 0.  1.
        -12    1    4    4    0    0  0.27051277382E+02 -0.14009890430E+02  0.17707183905E+02  0.35236245539E+02  0.00000000000E+00 0.  1.
</event>
<event>
 8    1  0.1212194E-006  0.9118800E+02  0.7816164E-02  0.1184000E+00
        -11   -1    0    0    0    0  0.00000000000E+00  0.00000000000E+00  0.45593999997E+02  0.45594000000E+02  0.51100000000E-03 0.  1.
         11   -1    0    0    0    0 -0.00000000000E+00 -0.00000000000E+00 -0.45593999997E+02  0.45594000000E+02  0.51100000000E-03 0. -1.
         23    2    1    2    0    0  0.00000000000E+00 -0.15543122345E-14  0.00000000000E+00  0.91188000000E+02  0.91188000000E+02 0.  0.
    9900012    2    3    3    0    0  0.14114582429E+02  0.17481073810E+01  0.33963252043E+02  0.54367084667E+02  0.40000001116E+02 0.  0.
         12    1    3    3    0    0 -0.14114582429E+02 -0.17481073810E+01 -0.33963252043E+02  0.36820915333E+02  0.00000000000E+00 0. -1.
         11    1    4    4    0    0 -0.55506569856E+01  0.55576191095E+01 -0.15020351009E+01  0.79970640140E+01  0.51100000000E-03 0. -1.
        -11    1    4    4    0    0  0.46878595841E+01  0.88053665230E+01  0.89087588620E+01  0.13374471646E+02  0.51100000000E-03 0.  1.
        -12    1    4    4    0    0  0.14977379831E+02 -0.12614878252E+02  0.26556528282E+02  0.32995549007E+02  0.00000000000E+00 0.  1.
</event>
<event>
 8    1  0.1212194E-006  0.9118800E+02  0.7816164E-02  0.1184000E+00
        -11   -1    0    0    0    0  0.00000000000E+00  0.00000000000E+00  0.45593999997E+02  0.45594000000E+02  0.51100000000E-03 0. -1.
         11   -1    0    0    0    0 -0.00000000000E+00 -0.00000000000E+00 -0.45593999997E+02  0.45594000000E+02  0.51100000000E-03 0.  1.
         23    2    1    2    0    0  0.00000000000E+00  0.00000000000E+00  0.00000000000E+00  0.91188000000E+02  0.91188000000E+02 0.  0.
    9900012    2    3    3    0    0 -0.16045515217E+02 -0.29928199949E+02  0.14234695193E+02  0.54367051370E+02  0.39999925209E+02 0.  0.
        -12    1    3    3    0    0  0.16045515217E+02  0.29928199949E+02 -0.14234695193E+02  0.36820948630E+02  0.00000000000E+00 0.  1.
         11    1    4    4    0    0 -0.11449292162E+02 -0.24167965477E+02  0.31851604419E+01  0.26931804500E+02  0.51100000000E-03 0. -1.
        -11    1    4    4    0    0  0.20076691492E+01 -0.14222605734E+02  0.67751847992E+01  0.15881321689E+02  0.51100000000E-03 0.  1.
         12    1    4    4    0    0 -0.66038922034E+01  0.84623712611E+01  0.42743499516E+01  0.11553925182E+02  0.00000000000E+00 0. -1.
</event>
<event>
 8    1  0.1212194E-006  0.9118800E+02  0.7816164E-02  0.1184000E+00
        -11   -1    0    0    0    0  0.00000000000E+00  0.00000000000E+00  0.45593999997E+02  0.45594000000E+02  0.51100000000E-03 0. -1.
         11   -1    0    0    0    0 -0.00000000000E+00 -0.00000000000E+00 -0.45593999997E+02  0.45594000000E+02  0.51100000000E-03 0.  1.
         23    2    1    2    0    0  0.00000000000E+00  0.00000000000E+00  0.00000000000E+00  0.91188000000E+02  0.91188000000E+02 0.  0.
    9900012    2    3    3    0    0  0.16313065381E+02 -0.21353291370E+02 -0.25173432784E+02  0.54367070183E+02  0.39999968097E+02 0.  0.
         12    1    3    3    0    0 -0.16313065381E+02  0.21353291370E+02  0.25173432784E+02  0.36820929817E+02  0.00000000000E+00 0. -1.
         11    1    4    4    0    0  0.16286147799E+02 -0.17274742411E+02 -0.19799039063E+02  0.30913707050E+02  0.51100000000E-03 0. -1.
        -11    1    4    4    0    0  0.54645784881E+01 -0.11915246798E+02 -0.16434308649E+01  0.13211191830E+02  0.51100000000E-03 0.  1.
         12    1    4    4    0    0 -0.54376609060E+01  0.78366978397E+01 -0.37309628559E+01  0.10242171303E+02  0.00000000000E+00 0. -1.
</event>
<event>
 8    1  0.1212194E-006  0.9118800E+02  0.7816164E-02  0.1184000E+00
        -11   -1    0    0    0    0  0.00000000000E+00  0.00000000000E+00  0.45593999997E+02  0.45594000000E+02  0.51100000000E-03 0.  1.
         11   -1    0    0    0    0 -0.00000000000E+00 -0.00000000000E+00 -0.45593999997E+02  0.45594000000E+02  0.51100000000E-03 0. -1.
         23    2    1    2    0    0  0.00000000000E+00  0.00000000000E+00 -0.14432899320E-14  0.91188000000E+02  0.91188000000E+02 0.  0.
    9900012    2    3    3    0    0 -0.33062988205E+02  0.16205121094E+02  0.90277178521E-01  0.54367146008E+02  0.40000140955E+02 0.  0.
        -12    1    3    3    0    0  0.33062988205E+02 -0.16205121094E+02 -0.90277178521E-01  0.36820853992E+02  0.00000000000E+00 0.  1.
         11    1    4    4    0    0 -0.21534567925E+02  0.53820382609E+01 -0.11908893472E+02  0.25189793479E+02  0.51100000000E-03 0. -1.
        -11    1    4    4    0    0 -0.71194649575E+01 -0.21879824025E+01  0.13438388926E+02  0.15364385619E+02  0.51100000000E-03 0.  1.
        -12    1    4    4    0    0 -0.44089553228E+01  0.13011065236E+02 -0.14392182748E+01  0.13812966910E+02  0.00000000000E+00 0.  1.
</event>
<event>
 8    1  0.1212194E-006  0.9118800E+02  0.7816164E-02  0.1184000E+00
        -11   -1    0    0    0    0  0.00000000000E+00  0.00000000000E+00  0.45593999997E+02  0.45594000000E+02  0.51100000000E-03 0. -1.
         11   -1    0    0    0    0 -0.00000000000E+00 -0.00000000000E+00 -0.45593999997E+02  0.45594000000E+02  0.51100000000E-03 0.  1.
         23    2    1    2    0    0  0.00000000000E+00 -0.35527136788E-14  0.35527136788E-14  0.91188000000E+02  0.91188000000E+02 0.  0.
    9900012    2    3    3    0    0  0.20182541807E+02  0.22728028949E+02 -0.20781779104E+02  0.54367073390E+02  0.39999975407E+02 0.  0.
         12    1    3    3    0    0 -0.20182541807E+02 -0.22728028949E+02  0.20781779104E+02  0.36820926610E+02  0.00000000000E+00 0. -1.
         11    1    4    4    0    0  0.75951244761E+00 -0.51261863791E+01  0.25652717699E+01  0.57823235353E+01  0.51100000000E-03 0. -1.
        -11    1    4    4    0    0  0.16339750590E+02  0.28337818755E+01 -0.13983429435E+02  0.21692258252E+02  0.51100000000E-03 0.  1.
         12    1    4    4    0    0  0.30832787696E+01  0.25020433453E+02 -0.93636214382E+01  0.26892491602E+02  0.00000000000E+00 0. -1.
</event>
<event>
 8    1  0.1212194E-006  0.9118800E+02  0.7816164E-02  0.1184000E+00
        -11   -1    0    0    0    0  0.00000000000E+00  0.00000000000E+00  0.45593999997E+02  0.45594000000E+02  0.51100000000E-03 0. -1.
         11   -1    0    0    0    0 -0.00000000000E+00 -0.00000000000E+00 -0.45593999997E+02  0.45594000000E+02  0.51100000000E-03 0.  1.
         23    2    1    2    0    0  0.00000000000E+00  0.00000000000E+00  0.00000000000E+00  0.91188000000E+02  0.91188000000E+02 0.  0.
    9900012    2    3    3    0    0  0.18072940041E+02 -0.31584770163E+02 -0.56174046088E+01  0.54367026323E+02  0.39999868109E+02 0.  0.
         12    1    3    3    0    0 -0.18072940041E+02  0.31584770163E+02  0.56174046088E+01  0.36820973677E+02  0.00000000000E+00 0. -1.
         11    1    4    4    0    0  0.10285479493E+02 -0.20559572374E+02 -0.43150810605E+01  0.23390319139E+02  0.51100000000E-03 0.  1.
        -11    1    4    4    0    0 -0.23170536800E+01 -0.18196917891E+02 -0.25621531642E+01  0.18521911013E+02  0.51100000000E-03 0. -1.
         12    1    4    4    0    0  0.10104514228E+02  0.71717201017E+01  0.12598296158E+01  0.12454796171E+02  0.00000000000E+00 0. -1.
</event>
<event>
 8    1  0.1212194E-006  0.9118800E+02  0.7816164E-02  0.1184000E+00
        -11   -1    0    0    0    0  0.00000000000E+00  0.00000000000E+00  0.45593999997E+02  0.45594000000E+02  0.51100000000E-03 0.  1.
         11   -1    0    0    0    0 -0.00000000000E+00 -0.00000000000E+00 -0.45593999997E+02  0.45594000000E+02  0.51100000000E-03 0. -1.
         23    2    1    2    0    0  0.17763568394E-14  0.71054273576E-14 -0.35527136788E-14  0.91188000000E+02  0.91188000000E+02 0.  0.
    9900012    2    3    3    0    0  0.90922188024E+01  0.27060551171E+02 -0.23255932774E+02  0.54367078208E+02  0.39999986391E+02 0.  0.
        -12    1    3    3    0    0 -0.90922188024E+01 -0.27060551171E+02  0.23255932774E+02  0.36820921792E+02  0.00000000000E+00 0.  1.
         11    1    4    4    0    0  0.81536631622E-01  0.83774168018E+01  0.34505729227E+01  0.90605857564E+01  0.51100000000E-03 0. -1.
        -11    1    4    4    0    0 -0.23760046918E+00  0.20830416095E+02 -0.47231135453E+01  0.21360489004E+02  0.51100000000E-03 0.  1.
         12    1    4    4    0    0  0.92482826399E+01 -0.21472817261E+01 -0.21983392152E+02  0.23946003447E+02  0.00000000000E+00 0. -1.
</event>
<event>
 8    1  0.1212194E-006  0.9118800E+02  0.7816164E-02  0.1184000E+00
        -11   -1    0    0    0    0  0.00000000000E+00  0.00000000000E+00  0.45593999997E+02  0.45594000000E+02  0.51100000000E-03 0. -1.
         11   -1    0    0    0    0 -0.00000000000E+00 -0.00000000000E+00 -0.45593999997E+02  0.45594000000E+02  0.51100000000E-03 0.  1.
         23    2    1    2    0    0 -0.71054273576E-14  0.66613381478E-15 -0.88817841970E-15  0.91188000000E+02  0.91188000000E+02 0.  0.
    9900012    2    3    3    0    0 -0.36188322659E+02 -0.16093137987E+01 -0.66025701798E+01  0.54367102119E+02  0.40000040901E+02 0.  0.
        -12    1    3    3    0    0  0.36188322659E+02  0.16093137987E+01  0.66025701798E+01  0.36820897881E+02  0.00000000000E+00 0.  1.
         11    1    4    4    0    0 -0.14069815185E+02 -0.68587357094E+01 -0.42124082338E+01  0.16209452127E+02  0.51100000000E-03 0. -1.
        -11    1    4    4    0    0  0.48579443092E+01 -0.69135017873E+01 -0.12724827274E+01  0.85449015457E+01  0.51100000000E-03 0.  1.
         12    1    4    4    0    0 -0.26976451784E+02  0.12162923698E+02 -0.11176792185E+01  0.29612748447E+02  0.00000000000E+00 0. -1.
</event>
<event>
 8    1  0.1212194E-006  0.9118800E+02  0.7816164E-02  0.1184000E+00
        -11   -1    0    0    0    0  0.00000000000E+00  0.00000000000E+00  0.45593999997E+02  0.45594000000E+02  0.51100000000E-03 0. -1.
         11   -1    0    0    0    0 -0.00000000000E+00 -0.00000000000E+00 -0.45593999997E+02  0.45594000000E+02  0.51100000000E-03 0.  1.
         23    2    1    2    0    0  0.35527136788E-14  0.35527136788E-14  0.35527136788E-14  0.91188000000E+02  0.91188000000E+02 0.  0.
    9900012    2    3    3    0    0  0.30081955630E+02  0.16543306883E+02  0.13310684491E+02  0.54367090468E+02  0.40000014340E+02 0.  0.
        -12    1    3    3    0    0 -0.30081955630E+02 -0.16543306883E+02 -0.13310684491E+02  0.36820909532E+02  0.00000000000E+00 0.  1.
         11    1    4    4    0    0  0.68879744406E+01  0.47204470485E+01  0.15819667869E+02  0.17888228084E+02  0.51100000000E-03 0. -1.
        -11    1    4    4    0    0 -0.90181689205E+00 -0.57557176699E+01  0.23071382929E+01  0.62661349304E+01  0.51100000000E-03 0.  1.
        -12    1    4    4    0    0  0.24095798082E+02  0.17578577504E+02 -0.48161216712E+01  0.30212727454E+02  0.00000000000E+00 0.  1.
</event>
<event>
 8    1  0.1212194E-006  0.9118800E+02  0.7816164E-02  0.1184000E+00
        -11   -1    0    0    0    0  0.00000000000E+00  0.00000000000E+00  0.45593999997E+02  0.45594000000E+02  0.51100000000E-03 0. -1.
         11   -1    0    0    0    0 -0.00000000000E+00 -0.00000000000E+00 -0.45593999997E+02  0.45594000000E+02  0.51100000000E-03 0.  1.
         23    2    1    2    0    0  0.00000000000E+00  0.88817841970E-15 -0.13322676296E-14  0.91188000000E+02  0.91188000000E+02 0.  0.
    9900012    2    3    3    0    0  0.36532377355E+02  0.41473111134E+01  0.19927948273E+01  0.54367000341E+02  0.39999808877E+02 0.  0.
         12    1    3    3    0    0 -0.36532377355E+02 -0.41473111134E+01 -0.19927948273E+01  0.36820999659E+02  0.00000000000E+00 0. -1.
         11    1    4    4    0    0  0.85765011991E+01 -0.25190716336E+01 -0.28461701715E+01  0.93809796727E+01  0.51100000000E-03 0. -1.
        -11    1    4    4    0    0  0.22001013743E+02 -0.11232706607E+02 -0.23161684276E+01  0.24810943954E+02  0.51100000000E-03 0.  1.
         12    1    4    4    0    0  0.59548624129E+01  0.17899089354E+02  0.71551334265E+01  0.20175076714E+02  0.00000000000E+00 0. -1.
</event>
<event>
 8    1  0.1212194E-006  0.9118800E+02  0.7816164E-02  0.1184000E+00
        -11   -1    0    0    0    0  0.00000000000E+00  0.00000000000E+00  0.45593999997E+02  0.45594000000E+02  0.51100000000E-03 0. -1.
         11   -1    0    0    0    0 -0.00000000000E+00 -0.00000000000E+00 -0.45593999997E+02  0.45594000000E+02  0.51100000000E-03 0.  1.
         23    2    1    2    0    0  0.44408920985E-15 -0.71054273576E-14  0.35527136788E-14  0.91188000000E+02  0.91188000000E+02 0.  0.
    9900012    2    3    3    0    0  0.39982704208E+01  0.30426002244E+02 -0.20348274230E+02  0.54367081447E+02  0.39999993776E+02 0.  0.
         12    1    3    3    0    0 -0.39982704208E+01 -0.30426002244E+02  0.20348274230E+02  0.36820918553E+02  0.00000000000E+00 0. -1.
         11    1    4    4    0    0 -0.11999402327E+02  0.89017797065E+01 -0.14190287309E+00  0.14941468296E+02  0.51100000000E-03 0. -1.
        -11    1    4    4    0    0 -0.18007491896E+01 -0.25509400590E+01  0.29924655716E+00  0.31368043598E+01  0.51100000000E-03 0.  1.
        -12    1    4    4    0    0  0.17798421937E+02  0.24075162596E+02 -0.20505617914E+02  0.36288808792E+02  0.00000000000E+00 0.  1.
</event>
<event>
 8    1  0.1212194E-006  0.9118800E+02  0.7816164E-02  0.1184000E+00
        -11   -1    0    0    0    0  0.00000000000E+00  0.00000000000E+00  0.45593999997E+02  0.45594000000E+02  0.51100000000E-03 0. -1.
         11   -1    0    0    0    0 -0.00000000000E+00 -0.00000000000E+00 -0.45593999997E+02  0.45594000000E+02  0.51100000000E-03 0.  1.
         23    2    1    2    0    0 -0.35527136788E-14  0.00000000000E+00 -0.71054273576E-14  0.91188000000E+02  0.91188000000E+02 0.  0.
    9900012    2    3    3    0    0 -0.21180130815E+02 -0.48471000939E+01 -0.29726879351E+02  0.54367086424E+02  0.40000005120E+02 0.  0.
         12    1    3    3    0    0  0.21180130815E+02  0.48471000939E+01  0.29726879351E+02  0.36820913576E+02  0.00000000000E+00 0. -1.
         11    1    4    4    0    0 -0.39572179616E+01 -0.85445661152E+01  0.63775208997E+01  0.11372860554E+02  0.51100000000E-03 0. -1.
        -11    1    4    4    0    0 -0.18777197890E+02 -0.51295161080E+00 -0.27735766202E+02  0.33498044823E+02  0.51100000000E-03 0.  1.
         12    1    4    4    0    0  0.15542850367E+01  0.42104176321E+01 -0.83686340493E+01  0.94961810462E+01  0.00000000000E+00 0. -1.
</event>
<event>
 8    1  0.1212194E-006  0.9118800E+02  0.7816164E-02  0.1184000E+00
        -11   -1    0    0    0    0  0.00000000000E+00  0.00000000000E+00  0.45593999997E+02  0.45594000000E+02  0.51100000000E-03 0.  1.
         11   -1    0    0    0    0 -0.00000000000E+00 -0.00000000000E+00 -0.45593999997E+02  0.45594000000E+02  0.51100000000E-03 0. -1.
         23    2    1    2    0    0  0.00000000000E+00 -0.35527136788E-14  0.00000000000E+00  0.91188000000E+02  0.91188000000E+02 0.  0.
    9900012    2    3    3    0    0  0.89309778178E+01  0.26360977812E+02  0.24106130460E+02  0.54367230837E+02  0.40000334338E+02 0.  0.
         12    1    3    3    0    0 -0.89309778178E+01 -0.26360977812E+02 -0.24106130460E+02  0.36820769163E+02  0.00000000000E+00 0. -1.
         11    1    4    4    0    0 -0.45025474099E+01  0.13679710188E+02  0.65062703910E+00  0.14416335173E+02  0.51100000000E-03 0. -1.
        -11    1    4    4    0    0  0.72896912937E+01  0.18446442636E+02  0.62545002637E+01  0.20797346439E+02  0.51100000000E-03 0.  1.
        -12    1    4    4    0    0  0.61438339341E+01 -0.57651750123E+01  0.17201003157E+02  0.19153549226E+02  0.00000000000E+00 0.  1.
</event>
<event>
 8    1  0.1212194E-006  0.9118800E+02  0.7816164E-02  0.1184000E+00
        -11   -1    0    0    0    0  0.00000000000E+00  0.00000000000E+00  0.45593999997E+02  0.45594000000E+02  0.51100000000E-03 0.  1.
         11   -1    0    0    0    0 -0.00000000000E+00 -0.00000000000E+00 -0.45593999997E+02  0.45594000000E+02  0.51100000000E-03 0. -1.
         23    2    1    2    0    0  0.00000000000E+00  0.00000000000E+00  0.00000000000E+00  0.91188000000E+02  0.91188000000E+02 0.  0.
    9900012    2    3    3    0    0 -0.20735382491E+02  0.58841287866E+01  0.29852988369E+02  0.54367082396E+02  0.39999995939E+02 0.  0.
         12    1    3    3    0    0  0.20735382491E+02 -0.58841287866E+01 -0.29852988369E+02  0.36820917604E+02  0.00000000000E+00 0. -1.
         11    1    4    4    0    0  0.37931426625E+01 -0.98330118948E-01  0.77921534374E+01  0.86669057641E+01  0.51100000000E-03 0.  1.
        -11    1    4    4    0    0 -0.86393669654E+00  0.68645192851E+01 -0.58758604661E+01  0.90771002038E+01  0.51100000000E-03 0. -1.
        -12    1    4    4    0    0 -0.23664588457E+02 -0.88206037949E+00  0.27936695397E+02  0.36623076429E+02  0.00000000000E+00 0.  1.
</event>
<event>
 8    1  0.1212194E-006  0.9118800E+02  0.7816164E-02  0.1184000E+00
        -11   -1    0    0    0    0  0.00000000000E+00  0.00000000000E+00  0.45593999997E+02  0.45594000000E+02  0.51100000000E-03 0.  1.
         11   -1    0    0    0    0 -0.00000000000E+00 -0.00000000000E+00 -0.45593999997E+02  0.45594000000E+02  0.51100000000E-03 0. -1.
         23    2    1    2    0    0 -0.35527136788E-14  0.35527136788E-14 -0.35527136788E-14  0.91188000000E+02  0.91188000000E+02 0.  0.
    9900012    2    3    3    0    0 -0.21635851637E+02  0.20492566403E+02 -0.21626955859E+02  0.54367074244E+02  0.39999977353E+02 0.  0.
        -12    1    3    3    0    0  0.21635851637E+02 -0.20492566403E+02  0.21626955859E+02  0.36820925756E+02  0.00000000000E+00 0.  1.
         11    1    4    4    0    0  0.25273717756E+01 -0.89678187667E+01 -0.81714074844E+01  0.12392791536E+02  0.51100000000E-03 0. -1.
        -11    1    4    4    0    0 -0.69196806468E+01  0.11748050745E+02  0.39216127341E+00  0.13640105105E+02  0.51100000000E-03 0.  1.
         12    1    4    4    0    0 -0.17243542766E+02  0.17712334425E+02 -0.13847709648E+02  0.28334177602E+02  0.00000000000E+00 0. -1.
</event>
<event>
 8    1  0.1212194E-006  0.9118800E+02  0.7816164E-02  0.1184000E+00
        -11   -1    0    0    0    0  0.00000000000E+00  0.00000000000E+00  0.45593999997E+02  0.45594000000E+02  0.51100000000E-03 0.  1.
         11   -1    0    0    0    0 -0.00000000000E+00 -0.00000000000E+00 -0.45593999997E+02  0.45594000000E+02  0.51100000000E-03 0. -1.
         23    2    1    2    0    0 -0.13322676296E-14  0.00000000000E+00  0.00000000000E+00  0.91188000000E+02  0.91188000000E+02 0.  0.
    9900012    2    3    3    0    0 -0.17039399630E+01  0.21488752757E+02 -0.29851456206E+02  0.54367090939E+02  0.40000015414E+02 0.  0.
        -12    1    3    3    0    0  0.17039399630E+01 -0.21488752757E+02  0.29851456206E+02  0.36820909061E+02  0.00000000000E+00 0.  1.
         11    1    4    4    0    0  0.11799364289E+02  0.16535168153E+02 -0.14758924922E+02  0.25109015285E+02  0.51100000000E-03 0. -1.
        -11    1    4    4    0    0 -0.36801495885E+01  0.20392927247E+01  0.51018669666E+01  0.66129617130E+01  0.51100000000E-03 0.  1.
         12    1    4    4    0    0 -0.98231546638E+01  0.29142918796E+01 -0.20194398251E+02  0.22645113941E+02  0.00000000000E+00 0. -1.
</event>
<event>
 8    1  0.1212194E-006  0.9118800E+02  0.7816164E-02  0.1184000E+00
        -11   -1    0    0    0    0  0.00000000000E+00  0.00000000000E+00  0.45593999997E+02  0.45594000000E+02  0.51100000000E-03 0.  1.
         11   -1    0    0    0    0 -0.00000000000E+00 -0.00000000000E+00 -0.45593999997E+02  0.45594000000E+02  0.51100000000E-03 0. -1.
         23    2    1    2    0    0 -0.44408920985E-15  0.17763568394E-14  0.71054273576E-14  0.91188000000E+02  0.91188000000E+02 0.  0.
    9900012    2    3    3    0    0  0.19619148339E+00  0.12850301374E+02  0.34505227111E+02  0.54367089711E+02  0.40000012615E+02 0.  0.
         12    1    3    3    0    0 -0.19619148339E+00 -0.12850301374E+02 -0.34505227111E+02  0.36820910289E+02  0.00000000000E+00 0. -1.
         11    1    4    4    0    0 -0.14243822229E+02  0.89633608812E+01  0.37639282399E+01  0.17245157756E+02  0.51100000000E-03 0. -1.
        -11    1    4    4    0    0  0.14125384773E+02  0.51606799520E+01  0.31966197886E+02  0.35326999874E+02  0.51100000000E-03 0.  1.
        -12    1    4    4    0    0  0.31462893878E+00 -0.12737394590E+01 -0.12248990151E+01  0.17949320811E+01  0.00000000000E+00 0.  1.
</event>
<event>
 8    1  0.1212194E-006  0.9118800E+02  0.7816164E-02  0.1184000E+00
        -11   -1    0    0    0    0  0.00000000000E+00  0.00000000000E+00  0.45593999997E+02  0.45594000000E+02  0.51100000000E-03 0.  1.
         11   -1    0    0    0    0 -0.00000000000E+00 -0.00000000000E+00 -0.45593999997E+02  0.45594000000E+02  0.51100000000E-03 0. -1.
         23    2    1    2    0    0  0.00000000000E+00  0.35527136788E-14  0.00000000000E+00  0.91188000000E+02  0.91188000000E+02 0.  0.
    9900012    2    3    3    0    0 -0.14407847902E+02 -0.27997770036E+02 -0.19087031651E+02  0.54367136547E+02  0.40000119387E+02 0.  0.
        -12    1    3    3    0    0  0.14407847902E+02  0.27997770036E+02  0.19087031651E+02  0.36820863453E+02  0.00000000000E+00 0.  1.
         11    1    4    4    0    0 -0.90699805307E+01 -0.27779799428E+02  0.91015766352E+00  0.29237137177E+02  0.51100000000E-03 0. -1.
        -11    1    4    4    0    0 -0.10009324580E+02 -0.58104094377E+00 -0.10376638365E+02  0.14429095992E+02  0.51100000000E-03 0.  1.
         12    1    4    4    0    0  0.46714572093E+01  0.36307033604E+00 -0.96205509497E+01  0.10700903378E+02  0.00000000000E+00 0. -1.
</event>
<event>
 8    1  0.1212194E-006  0.9118800E+02  0.7816164E-02  0.1184000E+00
        -11   -1    0    0    0    0  0.00000000000E+00  0.00000000000E+00  0.45593999997E+02  0.45594000000E+02  0.51100000000E-03 0.  1.
         11   -1    0    0    0    0 -0.00000000000E+00 -0.00000000000E+00 -0.45593999997E+02  0.45594000000E+02  0.51100000000E-03 0. -1.
         23    2    1    2    0    0  0.35527136788E-14  0.00000000000E+00  0.35527136788E-14  0.91188000000E+02  0.91188000000E+02 0.  0.
    9900012    2    3    3    0    0  0.18823021425E+02  0.13175129031E+02  0.28773086750E+02  0.54367072776E+02  0.39999974007E+02 0.  0.
         12    1    3    3    0    0 -0.18823021425E+02 -0.13175129031E+02 -0.28773086750E+02  0.36820927224E+02  0.00000000000E+00 0. -1.
         11    1    4    4    0    0 -0.58346346689E+01  0.16865880663E+01  0.52216990131E+01  0.80095993576E+01  0.51100000000E-03 0. -1.
        -11    1    4    4    0    0 -0.36157760016E+01  0.91739075795E+01  0.12480108640E+02  0.15905581671E+02  0.51100000000E-03 0.  1.
        -12    1    4    4    0    0  0.28273432095E+02  0.23146333850E+01  0.11071279097E+02  0.30451891747E+02  0.00000000000E+00 0.  1.
</event>
<event>
 8    1  0.1212194E-006  0.9118800E+02  0.7816164E-02  0.1184000E+00
        -11   -1    0    0    0    0  0.00000000000E+00  0.00000000000E+00  0.45593999997E+02  0.45594000000E+02  0.51100000000E-03 0.  1.
         11   -1    0    0    0    0 -0.00000000000E+00 -0.00000000000E+00 -0.45593999997E+02  0.45594000000E+02  0.51100000000E-03 0. -1.
         23    2    1    2    0    0  0.00000000000E+00  0.00000000000E+00  0.00000000000E+00  0.91188000000E+02  0.91188000000E+02 0.  0.
    9900012    2    3    3    0    0 -0.42001208547E+01  0.19753032996E+02  0.30788918653E+02  0.54367070632E+02  0.39999969120E+02 0.  0.
         12    1    3    3    0    0  0.42001208547E+01 -0.19753032996E+02 -0.30788918653E+02  0.36820929368E+02  0.00000000000E+00 0. -1.
         11    1    4    4    0    0  0.91510233254E+01  0.30706098085E+01  0.29915304014E+00  0.96570888626E+01  0.51100000000E-03 0. -1.
        -11    1    4    4    0    0  0.15974775184E+01  0.14815340421E+02  0.24124714417E+02  0.28355741785E+02  0.51100000000E-03 0.  1.
        -12    1    4    4    0    0 -0.14948621698E+02  0.18670827655E+01  0.63650511955E+01  0.16354239984E+02  0.00000000000E+00 0.  1.
</event>
<event>
 8    1  0.1212194E-006  0.9118800E+02  0.7816164E-02  0.1184000E+00
        -11   -1    0    0    0    0  0.00000000000E+00  0.00000000000E+00  0.45593999997E+02  0.45594000000E+02  0.51100000000E-03 0. -1.
         11   -1    0    0    0    0 -0.00000000000E+00 -0.00000000000E+00 -0.45593999997E+02  0.45594000000E+02  0.51100000000E-03 0.  1.
         23    2    1    2    0    0 -0.35527136788E-14  0.00000000000E+00 -0.35527136788E-14  0.91188000000E+02  0.91188000000E+02 0.  0.
    9900012    2    3    3    0    0  0.21765317007E+02 -0.21823529829E+02  0.20144234289E+02  0.54367005259E+02  0.39999820089E+02 0.  0.
         12    1    3    3    0    0 -0.21765317007E+02  0.21823529829E+02 -0.20144234289E+02  0.36820994741E+02  0.00000000000E+00 0. -1.
         11    1    4    4    0    0  0.11974700062E+02 -0.18108783948E+02  0.42968640258E+01  0.22131076304E+02  0.51100000000E-03 0. -1.
        -11    1    4    4    0    0 -0.33014614653E+01 -0.10617520482E+02  0.82820239010E+00  0.11149767192E+02  0.51100000000E-03 0.  1.
        -12    1    4    4    0    0  0.13092078410E+02  0.69027746010E+01  0.15019167873E+02  0.21086161763E+02  0.00000000000E+00 0.  1.
</event>
<event>
 8    1  0.1212194E-006  0.9118800E+02  0.7816164E-02  0.1184000E+00
        -11   -1    0    0    0    0  0.00000000000E+00  0.00000000000E+00  0.45593999997E+02  0.45594000000E+02  0.51100000000E-03 0.  1.
         11   -1    0    0    0    0 -0.00000000000E+00 -0.00000000000E+00 -0.45593999997E+02  0.45594000000E+02  0.51100000000E-03 0. -1.
         23    2    1    2    0    0  0.17763568394E-14 -0.35527136788E-14  0.00000000000E+00  0.91188000000E+02  0.91188000000E+02 0.  0.
    9900012    2    3    3    0    0 -0.13271258530E+02  0.30454615166E+02  0.15879839611E+02  0.54367092977E+02  0.40000020060E+02 0.  0.
         12    1    3    3    0    0  0.13271258530E+02 -0.30454615166E+02 -0.15879839611E+02  0.36820907023E+02  0.00000000000E+00 0. -1.
         11    1    4    4    0    0 -0.93944802450E+01 -0.31487042893E+01  0.66735692339E+01  0.11946008721E+02  0.51100000000E-03 0. -1.
        -11    1    4    4    0    0  0.33752873612E+01  0.10783571945E+02 -0.71971137399E+01  0.13396881544E+02  0.51100000000E-03 0.  1.
        -12    1    4    4    0    0 -0.72520656458E+01  0.22819747510E+02  0.16403384117E+02  0.29024202712E+02  0.00000000000E+00 0.  1.
</event>
<event>
 8    1  0.1212194E-006  0.9118800E+02  0.7816164E-02  0.1184000E+00
        -11   -1    0    0    0    0  0.00000000000E+00  0.00000000000E+00  0.45593999997E+02  0.45594000000E+02  0.51100000000E-03 0.  1.
         11   -1    0    0    0    0 -0.00000000000E+00 -0.00000000000E+00 -0.45593999997E+02  0.45594000000E+02  0.51100000000E-03 0. -1.
         23    2    1    2    0    0  0.00000000000E+00  0.00000000000E+00  0.00000000000E+00  0.91188000000E+02  0.91188000000E+02 0.  0.
    9900012    2    3    3    0    0  0.17141447088E+02 -0.23630854044E+02 -0.22439552819E+02  0.54367082007E+02  0.39999995052E+02 0.  0.
         12    1    3    3    0    0 -0.17141447088E+02  0.23630854044E+02  0.22439552819E+02  0.36820917993E+02  0.00000000000E+00 0. -1.
         11    1    4    4    0    0 -0.49240599696E+01  0.44074156375E+01 -0.47983472370E+01  0.81667506178E+01  0.51100000000E-03 0. -1.
        -11    1    4    4    0    0 -0.53020458254E+00 -0.69802005553E+01  0.43883653174E+01  0.82620861234E+01  0.51100000000E-03 0.  1.
         12    1    4    4    0    0  0.22595711640E+02 -0.21058069126E+02 -0.22029570899E+02  0.37938245266E+02  0.00000000000E+00 0. -1.
</event>
<event>
 8    1  0.1212194E-006  0.9118800E+02  0.7816164E-02  0.1184000E+00
        -11   -1    0    0    0    0  0.00000000000E+00  0.00000000000E+00  0.45593999997E+02  0.45594000000E+02  0.51100000000E-03 0.  1.
         11   -1    0    0    0    0 -0.00000000000E+00 -0.00000000000E+00 -0.45593999997E+02  0.45594000000E+02  0.51100000000E-03 0. -1.
         23    2    1    2    0    0  0.00000000000E+00  0.00000000000E+00  0.00000000000E+00  0.91188000000E+02  0.91188000000E+02 0.  0.
    9900012    2    3    3    0    0  0.95101450232E+01  0.32788072327E+02 -0.13794181459E+02  0.54367082203E+02  0.39999995498E+02 0.  0.
        -12    1    3    3    0    0 -0.95101450232E+01 -0.32788072327E+02  0.13794181459E+02  0.36820917797E+02  0.00000000000E+00 0.  1.
         11    1    4    4    0    0 -0.27196647280E+00  0.12575828381E+02  0.13117902554E+01  0.12646984588E+02  0.51100000000E-03 0. -1.
        -11    1    4    4    0    0  0.14673747768E+02  0.22252095744E+02 -0.20897141733E+02  0.33869826859E+02  0.51100000000E-03 0.  1.
        -12    1    4    4    0    0 -0.48916362720E+01 -0.20398517982E+01  0.57911700181E+01  0.78502707568E+01  0.00000000000E+00 0.  1.
</event>
<event>
 8    1  0.1212194E-006  0.9118800E+02  0.7816164E-02  0.1184000E+00
        -11   -1    0    0    0    0  0.00000000000E+00  0.00000000000E+00  0.45593999997E+02  0.45594000000E+02  0.51100000000E-03 0.  1.
         11   -1    0    0    0    0 -0.00000000000E+00 -0.00000000000E+00 -0.45593999997E+02  0.45594000000E+02  0.51100000000E-03 0. -1.
         23    2    1    2    0    0 -0.35527136788E-14 -0.17763568394E-14  0.00000000000E+00  0.91188000000E+02  0.91188000000E+02 0.  0.
    9900012    2    3    3    0    0 -0.26088260258E+02  0.23963600384E+01  0.25873534139E+02  0.54367087008E+02  0.40000006452E+02 0.  0.
         12    1    3    3    0    0  0.26088260258E+02 -0.23963600384E+01 -0.25873534139E+02  0.36820912992E+02  0.00000000000E+00 0. -1.
         11    1    4    4    0    0 -0.31901783999E+02  0.93605842685E+01  0.25414945926E+02  0.41848104339E+02  0.51100000000E-03 0. -1.
        -11    1    4    4    0    0  0.31977813903E+01 -0.72940763862E+01  0.33196480090E+01  0.86284076928E+01  0.51100000000E-03 0.  1.
         12    1    4    4    0    0  0.26157423507E+01  0.32985215611E+00 -0.28610597955E+01  0.38905749759E+01  0.00000000000E+00 0. -1.
</event>
<event>
 8    1  0.1212194E-006  0.9118800E+02  0.7816164E-02  0.1184000E+00
        -11   -1    0    0    0    0  0.00000000000E+00  0.00000000000E+00  0.45593999997E+02  0.45594000000E+02  0.51100000000E-03 0. -1.
         11   -1    0    0    0    0 -0.00000000000E+00 -0.00000000000E+00 -0.45593999997E+02  0.45594000000E+02  0.51100000000E-03 0.  1.
         23    2    1    2    0    0  0.00000000000E+00 -0.22204460493E-14  0.00000000000E+00  0.91188000000E+02  0.91188000000E+02 0.  0.
    9900012    2    3    3    0    0  0.11393858535E+02 -0.35929266048E+01 -0.34828880018E+02  0.54367081799E+02  0.39999994576E+02 0.  0.
         12    1    3    3    0    0 -0.11393858535E+02  0.35929266048E+01  0.34828880018E+02  0.36820918201E+02  0.00000000000E+00 0. -1.
         11    1    4    4    0    0  0.72744103265E+01  0.91054591546E+01 -0.17389924163E+02  0.20934084520E+02  0.51100000000E-03 0. -1.
        -11    1    4    4    0    0  0.13938625828E+02 -0.10385411769E+02 -0.15220028984E+02  0.23103924994E+02  0.51100000000E-03 0.  1.
         12    1    4    4    0    0 -0.98191776198E+01 -0.23129739906E+01 -0.22189268704E+01  0.10329072285E+02  0.00000000000E+00 0. -1.
</event>
<event>
 8    1  0.1212194E-006  0.9118800E+02  0.7816164E-02  0.1184000E+00
        -11   -1    0    0    0    0  0.00000000000E+00  0.00000000000E+00  0.45593999997E+02  0.45594000000E+02  0.51100000000E-03 0.  1.
         11   -1    0    0    0    0 -0.00000000000E+00 -0.00000000000E+00 -0.45593999997E+02  0.45594000000E+02  0.51100000000E-03 0. -1.
         23    2    1    2    0    0  0.00000000000E+00  0.00000000000E+00  0.00000000000E+00  0.91188000000E+02  0.91188000000E+02 0.  0.
    9900012    2    3    3    0    0 -0.11273360887E+02 -0.19425037360E+02 -0.29178068463E+02  0.54367076311E+02  0.39999982065E+02 0.  0.
        -12    1    3    3    0    0  0.11273360887E+02  0.19425037360E+02  0.29178068463E+02  0.36820923689E+02  0.00000000000E+00 0.  1.
         11    1    4    4    0    0 -0.11843178038E+02  0.60972257762E+01 -0.42108990909E+01  0.13970279154E+02  0.51100000000E-03 0. -1.
        -11    1    4    4    0    0  0.95013811915E+01 -0.11942539675E+02 -0.14588046672E+02  0.21111883014E+02  0.51100000000E-03 0.  1.
        -12    1    4    4    0    0 -0.89315640403E+01 -0.13579723461E+02 -0.10379122700E+02  0.19284914143E+02  0.00000000000E+00 0.  1.
</event>
<event>
 8    1  0.1212194E-006  0.9118800E+02  0.7816164E-02  0.1184000E+00
        -11   -1    0    0    0    0  0.00000000000E+00  0.00000000000E+00  0.45593999997E+02  0.45594000000E+02  0.51100000000E-03 0. -1.
         11   -1    0    0    0    0 -0.00000000000E+00 -0.00000000000E+00 -0.45593999997E+02  0.45594000000E+02  0.51100000000E-03 0.  1.
         23    2    1    2    0    0  0.00000000000E+00  0.17763568394E-14  0.00000000000E+00  0.91188000000E+02  0.91188000000E+02 0.  0.
    9900012    2    3    3    0    0 -0.13214469130E+02 -0.13655613339E+02 -0.31538580655E+02  0.54367081492E+02  0.39999993877E+02 0.  0.
         12    1    3    3    0    0  0.13214469130E+02  0.13655613339E+02  0.31538580655E+02  0.36820918508E+02  0.00000000000E+00 0. -1.
         11    1    4    4    0    0 -0.99617099308E+01 -0.48910628625E+01 -0.75429056927E+01  0.13418404794E+02  0.51100000000E-03 0. -1.
        -11    1    4    4    0    0 -0.14015832583E+02  0.12087510338E+01 -0.15785054434E+01  0.14156140779E+02  0.51100000000E-03 0.  1.
         12    1    4    4    0    0  0.10763073384E+02 -0.99733015102E+01 -0.22417169519E+02  0.26792535918E+02  0.00000000000E+00 0. -1.
</event>
<event>
 8    1  0.1212194E-006  0.9118800E+02  0.7816164E-02  0.1184000E+00
        -11   -1    0    0    0    0  0.00000000000E+00  0.00000000000E+00  0.45593999997E+02  0.45594000000E+02  0.51100000000E-03 0. -1.
         11   -1    0    0    0    0 -0.00000000000E+00 -0.00000000000E+00 -0.45593999997E+02  0.45594000000E+02  0.51100000000E-03 0.  1.
         23    2    1    2    0    0  0.00000000000E+00 -0.35527136788E-14  0.17763568394E-14  0.91188000000E+02  0.91188000000E+02 0.  0.
    9900012    2    3    3    0    0  0.25757364676E+02  0.21174228429E+02 -0.15620209168E+02  0.54367072268E+02  0.39999972850E+02 0.  0.
         12    1    3    3    0    0 -0.25757364676E+02 -0.21174228429E+02  0.15620209168E+02  0.36820927732E+02  0.00000000000E+00 0. -1.
         11    1    4    4    0    0 -0.70537163362E+00 -0.51991325699E+00 -0.29536381715E+01  0.30808826083E+01  0.51100000000E-03 0. -1.
        -11    1    4    4    0    0  0.18277801789E+01  0.23005532285E+02 -0.13246588863E+02  0.26609536127E+02  0.51100000000E-03 0.  1.
         12    1    4    4    0    0  0.24634956130E+02 -0.13113905999E+01  0.58001786670E+00  0.24676653533E+02  0.00000000000E+00 0. -1.
</event>
<event>
 8    1  0.1212194E-006  0.9118800E+02  0.7816164E-02  0.1184000E+00
        -11   -1    0    0    0    0  0.00000000000E+00  0.00000000000E+00  0.45593999997E+02  0.45594000000E+02  0.51100000000E-03 0.  1.
         11   -1    0    0    0    0 -0.00000000000E+00 -0.00000000000E+00 -0.45593999997E+02  0.45594000000E+02  0.51100000000E-03 0. -1.
         23    2    1    2    0    0  0.00000000000E+00  0.00000000000E+00  0.88817841970E-15  0.91188000000E+02  0.91188000000E+02 0.  0.
    9900012    2    3    3    0    0  0.26490304341E+02 -0.25076312279E+02  0.50219062585E+01  0.54367119999E+02  0.40000081661E+02 0.  0.
        -12    1    3    3    0    0 -0.26490304341E+02  0.25076312279E+02 -0.50219062585E+01  0.36820880001E+02  0.00000000000E+00 0.  1.
         11    1    4    4    0    0  0.31012500913E+01  0.16676463468E+00 -0.69140237527E+01  0.75795308091E+01  0.51100000000E-03 0. -1.
        -11    1    4    4    0    0  0.19308506419E+02 -0.62765762252E+01  0.17283778856E+02  0.26663511416E+02  0.51100000000E-03 0.  1.
        -12    1    4    4    0    0  0.40805478305E+01 -0.18966500689E+02 -0.53478488443E+01  0.20124077773E+02  0.00000000000E+00 0.  1.
</event>
<event>
 8    1  0.1212194E-006  0.9118800E+02  0.7816164E-02  0.1184000E+00
        -11   -1    0    0    0    0  0.00000000000E+00  0.00000000000E+00  0.45593999997E+02  0.45594000000E+02  0.51100000000E-03 0.  1.
         11   -1    0    0    0    0 -0.00000000000E+00 -0.00000000000E+00 -0.45593999997E+02  0.45594000000E+02  0.51100000000E-03 0. -1.
         23    2    1    2    0    0  0.00000000000E+00  0.00000000000E+00 -0.35527136788E-14  0.91188000000E+02  0.91188000000E+02 0.  0.
    9900012    2    3    3    0    0  0.10901626391E+02  0.21486430613E+02 -0.27843637758E+02  0.54367077659E+02  0.39999985138E+02 0.  0.
        -12    1    3    3    0    0 -0.10901626391E+02 -0.21486430613E+02  0.27843637758E+02  0.36820922341E+02  0.00000000000E+00 0.  1.
         11    1    4    4    0    0 -0.76754847629E+00  0.28627954024E+01 -0.71369002749E+01  0.77278764207E+01  0.51100000000E-03 0. -1.
        -11    1    4    4    0    0  0.75782737602E+01  0.28618798767E+02 -0.20175499545E+02  0.35826200723E+02  0.51100000000E-03 0.  1.
        -12    1    4    4    0    0  0.40909011070E+01 -0.99951635569E+01 -0.53123793880E+00  0.10813000515E+02  0.00000000000E+00 0.  1.
</event>
<event>
 8    1  0.1212194E-006  0.9118800E+02  0.7816164E-02  0.1184000E+00
        -11   -1    0    0    0    0  0.00000000000E+00  0.00000000000E+00  0.45593999997E+02  0.45594000000E+02  0.51100000000E-03 0. -1.
         11   -1    0    0    0    0 -0.00000000000E+00 -0.00000000000E+00 -0.45593999997E+02  0.45594000000E+02  0.51100000000E-03 0.  1.
         23    2    1    2    0    0  0.00000000000E+00  0.35527136788E-14 -0.35527136788E-14  0.91188000000E+02  0.91188000000E+02 0.  0.
    9900012    2    3    3    0    0  0.17336268515E+02 -0.29979900358E+02  0.12507672497E+02  0.54367048047E+02  0.39999917632E+02 0.  0.
         12    1    3    3    0    0 -0.17336268515E+02  0.29979900358E+02 -0.12507672497E+02  0.36820951953E+02  0.00000000000E+00 0. -1.
         11    1    4    4    0    0  0.97796761422E+00 -0.10722544731E+02 -0.37324674385E+01  0.11395643887E+02  0.51100000000E-03 0.  1.
        -11    1    4    4    0    0 -0.60508198864E+01 -0.13560952294E+02  0.23671105893E+00  0.14851527894E+02  0.51100000000E-03 0. -1.
         12    1    4    4    0    0  0.22409120787E+02 -0.56964033331E+01  0.16003428877E+02  0.28119876265E+02  0.00000000000E+00 0. -1.
</event>
<event>
 8    1  0.1212194E-006  0.9118800E+02  0.7816164E-02  0.1184000E+00
        -11   -1    0    0    0    0  0.00000000000E+00  0.00000000000E+00  0.45593999997E+02  0.45594000000E+02  0.51100000000E-03 0.  1.
         11   -1    0    0    0    0 -0.00000000000E+00 -0.00000000000E+00 -0.45593999997E+02  0.45594000000E+02  0.51100000000E-03 0. -1.
         23    2    1    2    0    0 -0.35527136788E-14 -0.66613381478E-15 -0.35527136788E-14  0.91188000000E+02  0.91188000000E+02 0.  0.
    9900012    2    3    3    0    0  0.20917480750E+02 -0.97209696466E+00 -0.30286990617E+02  0.54366976466E+02  0.39999754450E+02 0.  0.
        -12    1    3    3    0    0 -0.20917480750E+02  0.97209696466E+00  0.30286990617E+02  0.36821023534E+02  0.00000000000E+00 0.  1.
         11    1    4    4    0    0 -0.53838841392E+01 -0.25249869736E+00 -0.19430190772E+02  0.20163885482E+02  0.51100000000E-03 0. -1.
        -11    1    4    4    0    0  0.24704380513E+01  0.60984928722E+01  0.11193857131E+01  0.66744066488E+01  0.51100000000E-03 0.  1.
        -12    1    4    4    0    0  0.23830926838E+02 -0.68180911395E+01 -0.11976185558E+02  0.27528684336E+02  0.00000000000E+00 0.  1.
</event>
<event>
 8    1  0.1212194E-006  0.9118800E+02  0.7816164E-02  0.1184000E+00
        -11   -1    0    0    0    0  0.00000000000E+00  0.00000000000E+00  0.45593999997E+02  0.45594000000E+02  0.51100000000E-03 0.  1.
         11   -1    0    0    0    0 -0.00000000000E+00 -0.00000000000E+00 -0.45593999997E+02  0.45594000000E+02  0.51100000000E-03 0. -1.
         23    2    1    2    0    0 -0.35527136788E-14  0.17763568394E-14  0.00000000000E+00  0.91188000000E+02  0.91188000000E+02 0.  0.
    9900012    2    3    3    0    0  0.27628119672E+02 -0.59802152973E+01  0.23594543543E+02  0.54367102990E+02  0.40000042886E+02 0.  0.
         12    1    3    3    0    0 -0.27628119672E+02  0.59802152973E+01 -0.23594543543E+02  0.36820897010E+02  0.00000000000E+00 0. -1.
         11    1    4    4    0    0 -0.45859160577E+01  0.29705964173E+01  0.14531131179E+01  0.56539019409E+01  0.51100000000E-03 0. -1.
        -11    1    4    4    0    0  0.11179561634E+02  0.18068948261E+01 -0.52992185500E+01  0.12503166988E+02  0.51100000000E-03 0.  1.
        -12    1    4    4    0    0  0.21034474096E+02 -0.10757706541E+02  0.27440648975E+02  0.36210034061E+02  0.00000000000E+00 0.  1.
</event>
<event>
 8    1  0.1212194E-006  0.9118800E+02  0.7816164E-02  0.1184000E+00
        -11   -1    0    0    0    0  0.00000000000E+00  0.00000000000E+00  0.45593999997E+02  0.45594000000E+02  0.51100000000E-03 0. -1.
         11   -1    0    0    0    0 -0.00000000000E+00 -0.00000000000E+00 -0.45593999997E+02  0.45594000000E+02  0.51100000000E-03 0.  1.
         23    2    1    2    0    0  0.00000000000E+00  0.00000000000E+00  0.00000000000E+00  0.91188000000E+02  0.91188000000E+02 0.  0.
    9900012    2    3    3    0    0 -0.16409483742E+02 -0.24883141668E+02 -0.21618008407E+02  0.54367079541E+02  0.39999989430E+02 0.  0.
         12    1    3    3    0    0  0.16409483742E+02  0.24883141668E+02  0.21618008407E+02  0.36820920459E+02  0.00000000000E+00 0. -1.
         11    1    4    4    0    0 -0.72947444934E+01 -0.24937025982E+01  0.59271667744E+01  0.97243589046E+01  0.51100000000E-03 0. -1.
        -11    1    4    4    0    0 -0.10706410883E+02 -0.12072851227E+02 -0.29868530512E+02  0.33948638941E+02  0.51100000000E-03 0.  1.
        -12    1    4    4    0    0  0.15916716343E+01 -0.10316587843E+02  0.23233553310E+01  0.10694081695E+02  0.00000000000E+00 0.  1.
</event>
<event>
 8    1  0.1212194E-006  0.9118800E+02  0.7816164E-02  0.1184000E+00
        -11   -1    0    0    0    0  0.00000000000E+00  0.00000000000E+00  0.45593999997E+02  0.45594000000E+02  0.51100000000E-03 0. -1.
         11   -1    0    0    0    0 -0.00000000000E+00 -0.00000000000E+00 -0.45593999997E+02  0.45594000000E+02  0.51100000000E-03 0.  1.
         23    2    1    2    0    0  0.00000000000E+00  0.00000000000E+00 -0.88817841970E-15  0.91188000000E+02  0.91188000000E+02 0.  0.
    9900012    2    3    3    0    0 -0.15841831280E+02 -0.32916455684E+02  0.46177237234E+01  0.54367081414E+02  0.39999993700E+02 0.  0.
         12    1    3    3    0    0  0.15841831280E+02  0.32916455684E+02 -0.46177237234E+01  0.36820918586E+02  0.00000000000E+00 0. -1.
         11    1    4    4    0    0 -0.55086639983E+01 -0.27968921549E+00  0.12253016455E+02  0.13437262281E+02  0.51100000000E-03 0. -1.
        -11    1    4    4    0    0 -0.10707893001E+02 -0.14001607067E+02  0.51068739301E+01  0.18351679340E+02  0.51100000000E-03 0.  1.
        -12    1    4    4    0    0  0.37472571938E+00 -0.18635159401E+02 -0.12742166662E+02  0.22578139793E+02  0.00000000000E+00 0.  1.
</event>
<event>
 8    1  0.1212194E-006  0.9118800E+02  0.7816164E-02  0.1184000E+00
        -11   -1    0    0    0    0  0.00000000000E+00  0.00000000000E+00  0.45593999997E+02  0.45594000000E+02  0.51100000000E-03 0. -1.
         11   -1    0    0    0    0 -0.00000000000E+00 -0.00000000000E+00 -0.45593999997E+02  0.45594000000E+02  0.51100000000E-03 0.  1.
         23    2    1    2    0    0  0.00000000000E+00  0.00000000000E+00  0.00000000000E+00  0.91188000000E+02  0.91188000000E+02 0.  0.
    9900012    2    3    3    0    0 -0.22102389848E+02 -0.60691360608E+01 -0.28817173704E+02  0.54367088145E+02  0.40000009045E+02 0.  0.
         12    1    3    3    0    0  0.22102389848E+02  0.60691360608E+01  0.28817173704E+02  0.36820911855E+02  0.00000000000E+00 0. -1.
         11    1    4    4    0    0  0.27365883223E+01 -0.35196605315E+01 -0.53060111575E+01  0.69304170558E+01  0.51100000000E-03 0. -1.
        -11    1    4    4    0    0  0.61553444471E+01 -0.43378848248E+01 -0.12312643049E+02  0.14432833718E+02  0.51100000000E-03 0.  1.
         12    1    4    4    0    0 -0.30994322617E+02  0.17884092955E+01 -0.11198519498E+02  0.33003837372E+02  0.00000000000E+00 0. -1.
</event>
<event>
 8    1  0.1212194E-006  0.9118800E+02  0.7816164E-02  0.1184000E+00
        -11   -1    0    0    0    0  0.00000000000E+00  0.00000000000E+00  0.45593999997E+02  0.45594000000E+02  0.51100000000E-03 0. -1.
         11   -1    0    0    0    0 -0.00000000000E+00 -0.00000000000E+00 -0.45593999997E+02  0.45594000000E+02  0.51100000000E-03 0.  1.
         23    2    1    2    0    0  0.00000000000E+00  0.35527136788E-14 -0.35527136788E-14  0.91188000000E+02  0.91188000000E+02 0.  0.
    9900012    2    3    3    0    0  0.15903893307E+02 -0.25996202401E+02  0.20665005966E+02  0.54367097876E+02  0.40000031229E+02 0.  0.
        -12    1    3    3    0    0 -0.15903893307E+02  0.25996202401E+02 -0.20665005966E+02  0.36820902124E+02  0.00000000000E+00 0.  1.
         11    1    4    4    0    0  0.18613527441E+02 -0.19039960353E+02  0.24417737991E+02  0.36127682225E+02  0.51100000000E-03 0. -1.
        -11    1    4    4    0    0 -0.72688372214E+01 -0.85642117469E+01  0.12259140743E+01  0.11299760306E+02  0.51100000000E-03 0.  1.
         12    1    4    4    0    0  0.45592030870E+01  0.16079696989E+01 -0.49786460989E+01  0.69396553458E+01  0.00000000000E+00 0. -1.
</event>
<event>
 8    1  0.1212194E-006  0.9118800E+02  0.7816164E-02  0.1184000E+00
        -11   -1    0    0    0    0  0.00000000000E+00  0.00000000000E+00  0.45593999997E+02  0.45594000000E+02  0.51100000000E-03 0.  1.
         11   -1    0    0    0    0 -0.00000000000E+00 -0.00000000000E+00 -0.45593999997E+02  0.45594000000E+02  0.51100000000E-03 0. -1.
         23    2    1    2    0    0 -0.35527136788E-14  0.00000000000E+00  0.35527136788E-14  0.91188000000E+02  0.91188000000E+02 0.  0.
    9900012    2    3    3    0    0 -0.30218267572E+02 -0.37745008744E+01  0.20697523413E+02  0.54367108819E+02  0.40000056174E+02 0.  0.
         12    1    3    3    0    0  0.30218267572E+02  0.37745008744E+01 -0.20697523413E+02  0.36820891181E+02  0.00000000000E+00 0. -1.
         11    1    4    4    0    0 -0.18756997410E+02 -0.16415624780E+02  0.92802186905E+01  0.26597371073E+02  0.51100000000E-03 0. -1.
        -11    1    4    4    0    0 -0.88404458384E+01  0.15373885313E+02  0.22817638716E+01  0.17880611815E+02  0.51100000000E-03 0.  1.
         12    1    4    4    0    0 -0.26208243240E+01 -0.27327614070E+01  0.91355408513E+01  0.98891259316E+01  0.00000000000E+00 0. -1.
</event>
<event>
 8    1  0.1212194E-006  0.9118800E+02  0.7816164E-02  0.1184000E+00
        -11   -1    0    0    0    0  0.00000000000E+00  0.00000000000E+00  0.45593999997E+02  0.45594000000E+02  0.51100000000E-03 0.  1.
         11   -1    0    0    0    0 -0.00000000000E+00 -0.00000000000E+00 -0.45593999997E+02  0.45594000000E+02  0.51100000000E-03 0. -1.
         23    2    1    2    0    0  0.00000000000E+00  0.00000000000E+00  0.00000000000E+00  0.91188000000E+02  0.91188000000E+02 0.  0.
    9900012    2    3    3    0    0  0.27174920371E+02  0.24680515173E+02 -0.28593673305E+01  0.54367080567E+02  0.39999991768E+02 0.  0.
        -12    1    3    3    0    0 -0.27174920371E+02 -0.24680515173E+02  0.28593673305E+01  0.36820919433E+02  0.00000000000E+00 0.  1.
         11    1    4    4    0    0  0.15853408108E+02  0.51733240270E+01  0.22892515911E+01  0.16832542982E+02  0.51100000000E-03 0. -1.
        -11    1    4    4    0    0  0.91135832947E+00  0.11461255267E+01 -0.14410690887E+02  0.14484895230E+02  0.51100000000E-03 0.  1.
        -12    1    4    4    0    0  0.10410153934E+02  0.18361065619E+02  0.92620719654E+01  0.23049642355E+02  0.00000000000E+00 0.  1.
</event>
<event>
 8    1  0.1212194E-006  0.9118800E+02  0.7816164E-02  0.1184000E+00
        -11   -1    0    0    0    0  0.00000000000E+00  0.00000000000E+00  0.45593999997E+02  0.45594000000E+02  0.51100000000E-03 0. -1.
         11   -1    0    0    0    0 -0.00000000000E+00 -0.00000000000E+00 -0.45593999997E+02  0.45594000000E+02  0.51100000000E-03 0.  1.
         23    2    1    2    0    0  0.00000000000E+00  0.17763568394E-14  0.35527136788E-14  0.91188000000E+02  0.91188000000E+02 0.  0.
    9900012    2    3    3    0    0  0.21691393351E+02 -0.44777875113E+01  0.29414379158E+02  0.54367179426E+02  0.40000217136E+02 0.  0.
         12    1    3    3    0    0 -0.21691393351E+02  0.44777875113E+01 -0.29414379158E+02  0.36820820574E+02  0.00000000000E+00 0. -1.
         11    1    4    4    0    0 -0.73769977457E+01  0.70383640724E+01  0.57284202449E+01  0.11695018740E+02  0.51100000000E-03 0. -1.
        -11    1    4    4    0    0  0.95925991300E+01 -0.10463410890E+02  0.35363800808E+01  0.14628975011E+02  0.51100000000E-03 0.  1.
        -12    1    4    4    0    0  0.19475791967E+02 -0.10527406936E+01  0.20149578832E+02  0.28043185675E+02  0.00000000000E+00 0.  1.
</event>
<event>
 8    1  0.1212194E-006  0.9118800E+02  0.7816164E-02  0.1184000E+00
        -11   -1    0    0    0    0  0.00000000000E+00  0.00000000000E+00  0.45593999997E+02  0.45594000000E+02  0.51100000000E-03 0. -1.
         11   -1    0    0    0    0 -0.00000000000E+00 -0.00000000000E+00 -0.45593999997E+02  0.45594000000E+02  0.51100000000E-03 0.  1.
         23    2    1    2    0    0 -0.35527136788E-14  0.35527136788E-14  0.17763568394E-14  0.91188000000E+02  0.91188000000E+02 0.  0.
    9900012    2    3    3    0    0 -0.30621898191E+02  0.17006935660E+02  0.11350957600E+02  0.54367071878E+02  0.39999971961E+02 0.  0.
        -12    1    3    3    0    0  0.30621898191E+02 -0.17006935660E+02 -0.11350957600E+02  0.36820928122E+02  0.00000000000E+00 0.  1.
         11    1    4    4    0    0 -0.78052441831E+01 -0.31287743936E+00  0.74034729964E+01  0.10762487711E+02  0.51100000000E-03 0. -1.
        -11    1    4    4    0    0 -0.12384037156E+02  0.20696222269E+01  0.16889815285E+02  0.21045511946E+02  0.51100000000E-03 0.  1.
        -12    1    4    4    0    0 -0.10432616851E+02  0.15250190872E+02 -0.12942330682E+02  0.22559072221E+02  0.00000000000E+00 0.  1.
</event>
<event>
 8    1  0.1212194E-006  0.9118800E+02  0.7816164E-02  0.1184000E+00
        -11   -1    0    0    0    0  0.00000000000E+00  0.00000000000E+00  0.45593999997E+02  0.45594000000E+02  0.51100000000E-03 0.  1.
         11   -1    0    0    0    0 -0.00000000000E+00 -0.00000000000E+00 -0.45593999997E+02  0.45594000000E+02  0.51100000000E-03 0. -1.
         23    2    1    2    0    0  0.00000000000E+00  0.00000000000E+00 -0.88817841970E-15  0.91188000000E+02  0.91188000000E+02 0.  0.
    9900012    2    3    3    0    0  0.28346861039E+02 -0.23307920685E+02 -0.29933113744E+01  0.54367304591E+02  0.40000502472E+02 0.  0.
        -12    1    3    3    0    0 -0.28346861039E+02  0.23307920685E+02  0.29933113744E+01  0.36820695409E+02  0.00000000000E+00 0.  1.
         11    1    4    4    0    0  0.11861867706E+02 -0.30067888415E+01 -0.39890829711E+00  0.12243521255E+02  0.51100000000E-03 0. -1.
        -11    1    4    4    0    0  0.10884462359E+02 -0.16763937021E+02  0.13902227021E+02  0.24346930437E+02  0.51100000000E-03 0.  1.
        -12    1    4    4    0    0  0.56005309739E+01 -0.35371948232E+01 -0.16496630099E+02  0.17776852900E+02  0.00000000000E+00 0.  1.
</event>
<event>
 8    1  0.1212194E-006  0.9118800E+02  0.7816164E-02  0.1184000E+00
        -11   -1    0    0    0    0  0.00000000000E+00  0.00000000000E+00  0.45593999997E+02  0.45594000000E+02  0.51100000000E-03 0. -1.
         11   -1    0    0    0    0 -0.00000000000E+00 -0.00000000000E+00 -0.45593999997E+02  0.45594000000E+02  0.51100000000E-03 0.  1.
         23    2    1    2    0    0 -0.35527136788E-14 -0.17763568394E-14  0.00000000000E+00  0.91188000000E+02  0.91188000000E+02 0.  0.
    9900012    2    3    3    0    0  0.31594706665E+02 -0.15412266850E+02  0.10954626068E+02  0.54367254612E+02  0.40000388536E+02 0.  0.
         12    1    3    3    0    0 -0.31594706665E+02  0.15412266850E+02 -0.10954626068E+02  0.36820745388E+02  0.00000000000E+00 0. -1.
         11    1    4    4    0    0  0.22364628782E+01 -0.69550976355E+00 -0.26871403237E+01  0.35645789958E+01  0.51100000000E-03 0.  1.
        -11    1    4    4    0    0  0.30467696862E+02 -0.13012256241E+02  0.23576028105E+02  0.40662371623E+02  0.51100000000E-03 0. -1.
         12    1    4    4    0    0 -0.11094530749E+01 -0.17045008445E+01 -0.99342617142E+01  0.10140303993E+02  0.00000000000E+00 0. -1.
</event>
<event>
 8    1  0.1212194E-006  0.9118800E+02  0.7816164E-02  0.1184000E+00
        -11   -1    0    0    0    0  0.00000000000E+00  0.00000000000E+00  0.45593999997E+02  0.45594000000E+02  0.51100000000E-03 0.  1.
         11   -1    0    0    0    0 -0.00000000000E+00 -0.00000000000E+00 -0.45593999997E+02  0.45594000000E+02  0.51100000000E-03 0. -1.
         23    2    1    2    0    0  0.17763568394E-14  0.22204460493E-15  0.00000000000E+00  0.91188000000E+02  0.91188000000E+02 0.  0.
    9900012    2    3    3    0    0  0.13997445583E+02  0.13363284715E+01  0.34030390344E+02  0.54367058627E+02  0.39999941751E+02 0.  0.
         12    1    3    3    0    0 -0.13997445583E+02 -0.13363284715E+01 -0.34030390344E+02  0.36820941373E+02  0.00000000000E+00 0. -1.
         11    1    4    4    0    0  0.44690936777E+01 -0.93293173816E+01 -0.18839967045E+01  0.10514675694E+02  0.51100000000E-03 0. -1.
        -11    1    4    4    0    0  0.13396482964E+02 -0.35458354065E+00  0.17410069430E+02  0.21970480266E+02  0.51100000000E-03 0.  1.
        -12    1    4    4    0    0 -0.38681310591E+01  0.11020229394E+02  0.18504317618E+02  0.21881902666E+02  0.00000000000E+00 0.  1.
</event>
<event>
 8    1  0.1212194E-006  0.9118800E+02  0.7816164E-02  0.1184000E+00
        -11   -1    0    0    0    0  0.00000000000E+00  0.00000000000E+00  0.45593999997E+02  0.45594000000E+02  0.51100000000E-03 0. -1.
         11   -1    0    0    0    0 -0.00000000000E+00 -0.00000000000E+00 -0.45593999997E+02  0.45594000000E+02  0.51100000000E-03 0.  1.
         23    2    1    2    0    0  0.00000000000E+00 -0.17763568394E-14  0.00000000000E+00  0.91188000000E+02  0.91188000000E+02 0.  0.
    9900012    2    3    3    0    0  0.28409449320E+02  0.13162028901E+02 -0.19376417754E+02  0.54367063287E+02  0.39999952375E+02 0.  0.
         12    1    3    3    0    0 -0.28409449320E+02 -0.13162028901E+02  0.19376417754E+02  0.36820936713E+02  0.00000000000E+00 0. -1.
         11    1    4    4    0    0  0.72471655942E+01 -0.47796364130E+01 -0.47089827902E+01  0.98762772627E+01  0.51100000000E-03 0. -1.
        -11    1    4    4    0    0  0.32832226583E+01 -0.10660750626E+01 -0.17869573619E+02  0.18199937600E+02  0.51100000000E-03 0.  1.
         12    1    4    4    0    0  0.17879061068E+02  0.19007740376E+02  0.32021386551E+01  0.26290848424E+02  0.00000000000E+00 0. -1.
</event>
<event>
 8    1  0.1212194E-006  0.9118800E+02  0.7816164E-02  0.1184000E+00
        -11   -1    0    0    0    0  0.00000000000E+00  0.00000000000E+00  0.45593999997E+02  0.45594000000E+02  0.51100000000E-03 0.  1.
         11   -1    0    0    0    0 -0.00000000000E+00 -0.00000000000E+00 -0.45593999997E+02  0.45594000000E+02  0.51100000000E-03 0. -1.
         23    2    1    2    0    0 -0.88817841970E-15  0.00000000000E+00  0.17763568394E-14  0.91188000000E+02  0.91188000000E+02 0.  0.
    9900012    2    3    3    0    0 -0.37728385829E+01 -0.35454364041E+02  0.91941643368E+01  0.54367096991E+02  0.40000029211E+02 0.  0.
        -12    1    3    3    0    0  0.37728385829E+01  0.35454364041E+02 -0.91941643368E+01  0.36820903009E+02  0.00000000000E+00 0.  1.
         11    1    4    4    0    0  0.10965231409E+02 -0.28890723631E+02  0.26662231475E+01  0.31016430451E+02  0.51100000000E-03 0.  1.
        -11    1    4    4    0    0 -0.14704766441E+02 -0.41520570500E+01 -0.11304553858E+01  0.15321477196E+02  0.51100000000E-03 0. -1.
        -12    1    4    4    0    0 -0.33303550833E-01 -0.24115833598E+01  0.76583965750E+01  0.80291893444E+01  0.00000000000E+00 0.  1.
</event>
<event>
 8    1  0.1212194E-006  0.9118800E+02  0.7816164E-02  0.1184000E+00
        -11   -1    0    0    0    0  0.00000000000E+00  0.00000000000E+00  0.45593999997E+02  0.45594000000E+02  0.51100000000E-03 0. -1.
         11   -1    0    0    0    0 -0.00000000000E+00 -0.00000000000E+00 -0.45593999997E+02  0.45594000000E+02  0.51100000000E-03 0.  1.
         23    2    1    2    0    0  0.35527136788E-14  0.00000000000E+00  0.17763568394E-14  0.91188000000E+02  0.91188000000E+02 0.  0.
    9900012    2    3    3    0    0 -0.24850909835E+02  0.22205371931E+02 -0.15656770112E+02  0.54367072356E+02  0.39999973051E+02 0.  0.
         12    1    3    3    0    0  0.24850909835E+02 -0.22205371931E+02  0.15656770112E+02  0.36820927644E+02  0.00000000000E+00 0. -1.
         11    1    4    4    0    0  0.13934428689E+01  0.55906009888E+01 -0.90316669793E+01  0.10712959961E+02  0.51100000000E-03 0. -1.
        -11    1    4    4    0    0 -0.25538942792E+02  0.12158572590E+02 -0.16536130758E+02  0.32764494610E+02  0.51100000000E-03 0.  1.
         12    1    4    4    0    0 -0.70540991237E+00  0.44561983514E+01  0.99110276259E+01  0.10889617785E+02  0.00000000000E+00 0. -1.
</event>
<event>
 8    1  0.1212194E-006  0.9118800E+02  0.7816164E-02  0.1184000E+00
        -11   -1    0    0    0    0  0.00000000000E+00  0.00000000000E+00  0.45593999997E+02  0.45594000000E+02  0.51100000000E-03 0. -1.
         11   -1    0    0    0    0 -0.00000000000E+00 -0.00000000000E+00 -0.45593999997E+02  0.45594000000E+02  0.51100000000E-03 0.  1.
         23    2    1    2    0    0 -0.71054273576E-14  0.17763568394E-14  0.00000000000E+00  0.91188000000E+02  0.91188000000E+02 0.  0.
    9900012    2    3    3    0    0  0.20662182303E+02 -0.13315292857E+02  0.27414529925E+02  0.54367092184E+02  0.40000018252E+02 0.  0.
        -12    1    3    3    0    0 -0.20662182303E+02  0.13315292857E+02 -0.27414529925E+02  0.36820907816E+02  0.00000000000E+00 0.  1.
         11    1    4    4    0    0  0.16072674136E+02  0.10300209499E+02  0.14133771675E+02  0.23752656097E+02  0.51100000000E-03 0. -1.
        -11    1    4    4    0    0  0.37899947496E+01 -0.57048518818E+01  0.10404872880E+02  0.12456756203E+02  0.51100000000E-03 0.  1.
        -12    1    4    4    0    0  0.79951341698E+00 -0.17910650474E+02  0.28758853701E+01  0.18157679884E+02  0.00000000000E+00 0.  1.
</event>
<event>
 8    1  0.1212194E-006  0.9118800E+02  0.7816164E-02  0.1184000E+00
        -11   -1    0    0    0    0  0.00000000000E+00  0.00000000000E+00  0.45593999997E+02  0.45594000000E+02  0.51100000000E-03 0. -1.
         11   -1    0    0    0    0 -0.00000000000E+00 -0.00000000000E+00 -0.45593999997E+02  0.45594000000E+02  0.51100000000E-03 0.  1.
         23    2    1    2    0    0  0.00000000000E+00  0.00000000000E+00  0.00000000000E+00  0.91188000000E+02  0.91188000000E+02 0.  0.
    9900012    2    3    3    0    0  0.86843810647E+01  0.33288293268E+02  0.13124394649E+02  0.54367099983E+02  0.40000036030E+02 0.  0.
        -12    1    3    3    0    0 -0.86843810647E+01 -0.33288293268E+02 -0.13124394649E+02  0.36820900017E+02  0.00000000000E+00 0.  1.
         11    1    4    4    0    0 -0.47016328358E+01  0.14145991893E+02  0.13789282029E+02  0.20306618061E+02  0.51100000000E-03 0. -1.
        -11    1    4    4    0    0 -0.26669954594E+01 -0.40869765138E+01  0.27770479336E+01  0.56150010945E+01  0.51100000000E-03 0.  1.
         12    1    4    4    0    0  0.16053009360E+02  0.23229277889E+02 -0.34419353136E+01  0.28445480827E+02  0.00000000000E+00 0. -1.
</event>
<event>
 8    1  0.1212194E-006  0.9118800E+02  0.7816164E-02  0.1184000E+00
        -11   -1    0    0    0    0  0.00000000000E+00  0.00000000000E+00  0.45593999997E+02  0.45594000000E+02  0.51100000000E-03 0.  1.
         11   -1    0    0    0    0 -0.00000000000E+00 -0.00000000000E+00 -0.45593999997E+02  0.45594000000E+02  0.51100000000E-03 0. -1.
         23    2    1    2    0    0 -0.35527136788E-14  0.88817841970E-15  0.35527136788E-14  0.91188000000E+02  0.91188000000E+02 0.  0.
    9900012    2    3    3    0    0 -0.27634220370E+02  0.75026510444E+01  0.23148158094E+02  0.54367120987E+02  0.40000083914E+02 0.  0.
         12    1    3    3    0    0  0.27634220370E+02 -0.75026510444E+01 -0.23148158094E+02  0.36820879013E+02  0.00000000000E+00 0. -1.
         11    1    4    4    0    0 -0.35262524728E+02  0.16444777424E+01  0.13499788162E+02  0.37794103217E+02  0.51100000000E-03 0. -1.
        -11    1    4    4    0    0  0.75095282853E+01  0.74841720993E+01  0.51469501562E+01  0.11785454732E+02  0.51100000000E-03 0.  1.
         12    1    4    4    0    0  0.11877607336E+00 -0.16259987973E+01  0.45014197756E+01  0.47875630377E+01  0.00000000000E+00 0. -1.
</event>
<event>
 8    1  0.1212194E-006  0.9118800E+02  0.7816164E-02  0.1184000E+00
        -11   -1    0    0    0    0  0.00000000000E+00  0.00000000000E+00  0.45593999997E+02  0.45594000000E+02  0.51100000000E-03 0. -1.
         11   -1    0    0    0    0 -0.00000000000E+00 -0.00000000000E+00 -0.45593999997E+02  0.45594000000E+02  0.51100000000E-03 0.  1.
         23    2    1    2    0    0  0.00000000000E+00 -0.88817841970E-15  0.17763568394E-14  0.91188000000E+02  0.91188000000E+02 0.  0.
    9900012    2    3    3    0    0 -0.33351747134E+02  0.70337512950E+01 -0.13927244384E+02  0.54367070757E+02  0.39999969405E+02 0.  0.
         12    1    3    3    0    0  0.33351747134E+02 -0.70337512950E+01  0.13927244384E+02  0.36820929243E+02  0.00000000000E+00 0. -1.
         11    1    4    4    0    0 -0.10701065330E+02  0.37336802122E+00  0.80548784649E+01  0.13399002583E+02  0.51100000000E-03 0. -1.
        -11    1    4    4    0    0 -0.26761886118E+02  0.59857995131E+01 -0.11589626684E+02  0.29771593699E+02  0.51100000000E-03 0.  1.
        -12    1    4    4    0    0  0.41112043139E+01  0.67458376076E+00 -0.10392496164E+02  0.11196474476E+02  0.00000000000E+00 0.  1.
</event>
<event>
 8    1  0.1212194E-006  0.9118800E+02  0.7816164E-02  0.1184000E+00
        -11   -1    0    0    0    0  0.00000000000E+00  0.00000000000E+00  0.45593999997E+02  0.45594000000E+02  0.51100000000E-03 0.  1.
         11   -1    0    0    0    0 -0.00000000000E+00 -0.00000000000E+00 -0.45593999997E+02  0.45594000000E+02  0.51100000000E-03 0. -1.
         23    2    1    2    0    0  0.00000000000E+00 -0.18873791419E-14  0.00000000000E+00  0.91188000000E+02  0.91188000000E+02 0.  0.
    9900012    2    3    3    0    0  0.32324985911E+02  0.40941335010E+00  0.17626876587E+02  0.54367094095E+02  0.40000022609E+02 0.  0.
         12    1    3    3    0    0 -0.32324985911E+02 -0.40941335010E+00 -0.17626876587E+02  0.36820905905E+02  0.00000000000E+00 0. -1.
         11    1    4    4    0    0  0.84904568604E+01  0.78319211123E+01  0.91729769570E+01  0.14750266185E+02  0.51100000000E-03 0.  1.
        -11    1    4    4    0    0 -0.51026173088E+01  0.32011722174E+01 -0.30033131097E+01  0.67308318105E+01  0.51100000000E-03 0. -1.
         12    1    4    4    0    0  0.28937146359E+02 -0.10623679980E+02  0.11457212740E+02  0.32885996100E+02  0.00000000000E+00 0. -1.
</event>
<event>
 8    1  0.1212194E-006  0.9118800E+02  0.7816164E-02  0.1184000E+00
        -11   -1    0    0    0    0  0.00000000000E+00  0.00000000000E+00  0.45593999997E+02  0.45594000000E+02  0.51100000000E-03 0.  1.
         11   -1    0    0    0    0 -0.00000000000E+00 -0.00000000000E+00 -0.45593999997E+02  0.45594000000E+02  0.51100000000E-03 0. -1.
         23    2    1    2    0    0 -0.17763568394E-14  0.00000000000E+00  0.71054273576E-14  0.91188000000E+02  0.91188000000E+02 0.  0.
    9900012    2    3    3    0    0  0.55563147113E+01 -0.92343077883E+01 -0.35208453454E+02  0.54367078392E+02  0.39999986809E+02 0.  0.
        -12    1    3    3    0    0 -0.55563147113E+01  0.92343077883E+01  0.35208453454E+02  0.36820921608E+02  0.00000000000E+00 0.  1.
         11    1    4    4    0    0  0.17475459025E+02 -0.84471880547E+00 -0.28958357196E+02  0.33833292328E+02  0.51100000000E-03 0. -1.
        -11    1    4    4    0    0 -0.97714526340E+01 -0.16682201785E+01  0.15303090762E+01  0.10030258784E+02  0.51100000000E-03 0.  1.
         12    1    4    4    0    0 -0.21476916799E+01 -0.67213688044E+01 -0.77804053340E+01  0.10503527280E+02  0.00000000000E+00 0. -1.
</event>
<event>
 8    1  0.1212194E-006  0.9118800E+02  0.7816164E-02  0.1184000E+00
        -11   -1    0    0    0    0  0.00000000000E+00  0.00000000000E+00  0.45593999997E+02  0.45594000000E+02  0.51100000000E-03 0. -1.
         11   -1    0    0    0    0 -0.00000000000E+00 -0.00000000000E+00 -0.45593999997E+02  0.45594000000E+02  0.51100000000E-03 0.  1.
         23    2    1    2    0    0  0.00000000000E+00  0.00000000000E+00 -0.35527136788E-14  0.91188000000E+02  0.91188000000E+02 0.  0.
    9900012    2    3    3    0    0  0.20508763514E+02  0.20480295854E+02 -0.22709649220E+02  0.54367081124E+02  0.39999993039E+02 0.  0.
         12    1    3    3    0    0 -0.20508763514E+02 -0.20480295854E+02  0.22709649220E+02  0.36820918876E+02  0.00000000000E+00 0. -1.
         11    1    4    4    0    0 -0.36949109328E+01  0.38988351457E+01 -0.13655219542E+02  0.14673728336E+02  0.51100000000E-03 0. -1.
        -11    1    4    4    0    0 -0.10239210276E+01 -0.49820411396E+01 -0.31557154550E+01  0.59856234831E+01  0.51100000000E-03 0.  1.
         12    1    4    4    0    0  0.25227595475E+02  0.21563501848E+02 -0.58987142235E+01  0.33707729305E+02  0.00000000000E+00 0. -1.
</event>
<event>
 8    1  0.1212194E-006  0.9118800E+02  0.7816164E-02  0.1184000E+00
        -11   -1    0    0    0    0  0.00000000000E+00  0.00000000000E+00  0.45593999997E+02  0.45594000000E+02  0.51100000000E-03 0.  1.
         11   -1    0    0    0    0 -0.00000000000E+00 -0.00000000000E+00 -0.45593999997E+02  0.45594000000E+02  0.51100000000E-03 0. -1.
         23    2    1    2    0    0  0.17763568394E-14  0.00000000000E+00  0.00000000000E+00  0.91188000000E+02  0.91188000000E+02 0.  0.
    9900012    2    3    3    0    0  0.47480894879E+01 -0.23199794834E+02 -0.28195838120E+02  0.54367080384E+02  0.39999991351E+02 0.  0.
        -12    1    3    3    0    0 -0.47480894879E+01  0.23199794834E+02  0.28195838120E+02  0.36820919616E+02  0.00000000000E+00 0.  1.
         11    1    4    4    0    0 -0.93044022246E+01 -0.11750655673E+02 -0.68776983226E+01  0.16490983718E+02  0.51100000000E-03 0. -1.
        -11    1    4    4    0    0  0.17227048216E+01  0.67609819743E+01  0.37301248084E+00  0.69869684221E+01  0.51100000000E-03 0.  1.
         12    1    4    4    0    0  0.12329786891E+02 -0.18210121135E+02 -0.21691152278E+02  0.30889128244E+02  0.00000000000E+00 0. -1.
</event>
<event>
 8    1  0.1212194E-006  0.9118800E+02  0.7816164E-02  0.1184000E+00
        -11   -1    0    0    0    0  0.00000000000E+00  0.00000000000E+00  0.45593999997E+02  0.45594000000E+02  0.51100000000E-03 0.  1.
         11   -1    0    0    0    0 -0.00000000000E+00 -0.00000000000E+00 -0.45593999997E+02  0.45594000000E+02  0.51100000000E-03 0. -1.
         23    2    1    2    0    0 -0.35527136788E-14 -0.17763568394E-14  0.35527136788E-14  0.91188000000E+02  0.91188000000E+02 0.  0.
    9900012    2    3    3    0    0 -0.29180426755E+02 -0.12115473210E+02  0.18907623576E+02  0.54367078963E+02  0.39999988112E+02 0.  0.
        -12    1    3    3    0    0  0.29180426755E+02  0.12115473210E+02 -0.18907623576E+02  0.36820921037E+02  0.00000000000E+00 0.  1.
         11    1    4    4    0    0 -0.17634260925E+02 -0.19218461770E+02  0.13594270065E+02  0.29412932701E+02  0.51100000000E-03 0. -1.
        -11    1    4    4    0    0 -0.31295428849E+01 -0.64357662602E+01 -0.19772286076E+01  0.74244568321E+01  0.51100000000E-03 0.  1.
        -12    1    4    4    0    0 -0.84166229451E+01  0.13538754821E+02  0.72905821189E+01  0.17529689431E+02  0.00000000000E+00 0.  1.
</event>
<event>
 8    1  0.1212194E-006  0.9118800E+02  0.7816164E-02  0.1184000E+00
        -11   -1    0    0    0    0  0.00000000000E+00  0.00000000000E+00  0.45593999997E+02  0.45594000000E+02  0.51100000000E-03 0.  1.
         11   -1    0    0    0    0 -0.00000000000E+00 -0.00000000000E+00 -0.45593999997E+02  0.45594000000E+02  0.51100000000E-03 0. -1.
         23    2    1    2    0    0  0.00000000000E+00 -0.44408920985E-15  0.00000000000E+00  0.91188000000E+02  0.91188000000E+02 0.  0.
    9900012    2    3    3    0    0  0.14463854370E+02 -0.25831383201E+01 -0.33762196234E+02  0.54367332144E+02  0.40000565284E+02 0.  0.
        -12    1    3    3    0    0 -0.14463854370E+02  0.25831383201E+01  0.33762196234E+02  0.36820667856E+02  0.00000000000E+00 0.  1.
         11    1    4    4    0    0  0.80811316624E+01  0.19260105539E+01 -0.67279630283E+01  0.10690168023E+02  0.51100000000E-03 0. -1.
        -11    1    4    4    0    0  0.14595347300E+02 -0.17055594992E+00  0.51386427061E+00  0.14605386297E+02  0.51100000000E-03 0.  1.
        -12    1    4    4    0    0 -0.82126245921E+01 -0.43385929241E+01 -0.27548097476E+02  0.29071777824E+02  0.00000000000E+00 0.  1.
</event>
<event>
 8    1  0.1212194E-006  0.9118800E+02  0.7816164E-02  0.1184000E+00
        -11   -1    0    0    0    0  0.00000000000E+00  0.00000000000E+00  0.45593999997E+02  0.45594000000E+02  0.51100000000E-03 0.  1.
         11   -1    0    0    0    0 -0.00000000000E+00 -0.00000000000E+00 -0.45593999997E+02  0.45594000000E+02  0.51100000000E-03 0. -1.
         23    2    1    2    0    0  0.00000000000E+00  0.88817841970E-15  0.00000000000E+00  0.91188000000E+02  0.91188000000E+02 0.  0.
    9900012    2    3    3    0    0  0.35099617404E+02 -0.72940664694E+01  0.84020618987E+01  0.54367065850E+02  0.39999958217E+02 0.  0.
         12    1    3    3    0    0 -0.35099617404E+02  0.72940664694E+01 -0.84020618987E+01  0.36820934150E+02  0.00000000000E+00 0. -1.
         11    1    4    4    0    0  0.12948901118E+02  0.13601900739E+02 -0.50202830318E-02  0.18779929961E+02  0.51100000000E-03 0. -1.
        -11    1    4    4    0    0  0.13660015383E+02 -0.14780978047E+02  0.13209534186E+02  0.24074158883E+02  0.51100000000E-03 0.  1.
         12    1    4    4    0    0  0.84907009025E+01 -0.61149891618E+01 -0.48024520043E+01  0.11512977005E+02  0.00000000000E+00 0. -1.
</event>
<event>
 8    1  0.1212194E-006  0.9118800E+02  0.7816164E-02  0.1184000E+00
        -11   -1    0    0    0    0  0.00000000000E+00  0.00000000000E+00  0.45593999997E+02  0.45594000000E+02  0.51100000000E-03 0. -1.
         11   -1    0    0    0    0 -0.00000000000E+00 -0.00000000000E+00 -0.45593999997E+02  0.45594000000E+02  0.51100000000E-03 0.  1.
         23    2    1    2    0    0  0.00000000000E+00  0.00000000000E+00  0.88817841970E-15  0.91188000000E+02  0.91188000000E+02 0.  0.
    9900012    2    3    3    0    0  0.14890897215E+02 -0.33579213439E+02  0.25449749033E+01  0.54367091642E+02  0.40000017016E+02 0.  0.
         12    1    3    3    0    0 -0.14890897215E+02  0.33579213439E+02 -0.25449749033E+01  0.36820908358E+02  0.00000000000E+00 0. -1.
         11    1    4    4    0    0  0.36619585165E+01  0.17293445334E+01 -0.49825702283E+01  0.64207927106E+01  0.51100000000E-03 0. -1.
        -11    1    4    4    0    0 -0.68926577680E+01 -0.53382551984E+00 -0.26990960208E+01  0.74215106537E+01  0.51100000000E-03 0.  1.
         12    1    4    4    0    0  0.18121596466E+02 -0.34774732453E+02  0.10226641152E+02  0.40524788277E+02  0.00000000000E+00 0. -1.
</event>
<event>
 8    1  0.1212194E-006  0.9118800E+02  0.7816164E-02  0.1184000E+00
        -11   -1    0    0    0    0  0.00000000000E+00  0.00000000000E+00  0.45593999997E+02  0.45594000000E+02  0.51100000000E-03 0.  1.
         11   -1    0    0    0    0 -0.00000000000E+00 -0.00000000000E+00 -0.45593999997E+02  0.45594000000E+02  0.51100000000E-03 0. -1.
         23    2    1    2    0    0 -0.35527136788E-14  0.00000000000E+00  0.00000000000E+00  0.91188000000E+02  0.91188000000E+02 0.  0.
    9900012    2    3    3    0    0  0.23625947713E+02  0.27141638871E+02 -0.78054912686E+01  0.54367086651E+02  0.40000005639E+02 0.  0.
         12    1    3    3    0    0 -0.23625947713E+02 -0.27141638871E+02  0.78054912686E+01  0.36820913349E+02  0.00000000000E+00 0. -1.
         11    1    4    4    0    0 -0.49297625909E+01 -0.34698049459E+01 -0.47558945214E+01  0.76785831066E+01  0.51100000000E-03 0. -1.
        -11    1    4    4    0    0  0.15792119565E+02  0.39523197380E+01  0.29084180730E+01  0.16536951582E+02  0.51100000000E-03 0.  1.
        -12    1    4    4    0    0  0.12763590739E+02  0.26659124078E+02 -0.59580148202E+01  0.30151551963E+02  0.00000000000E+00 0.  1.
</event>
<event>
 8    1  0.1212194E-006  0.9118800E+02  0.7816164E-02  0.1184000E+00
        -11   -1    0    0    0    0  0.00000000000E+00  0.00000000000E+00  0.45593999997E+02  0.45594000000E+02  0.51100000000E-03 0.  1.
         11   -1    0    0    0    0 -0.00000000000E+00 -0.00000000000E+00 -0.45593999997E+02  0.45594000000E+02  0.51100000000E-03 0. -1.
         23    2    1    2    0    0  0.00000000000E+00  0.00000000000E+00  0.00000000000E+00  0.91188000000E+02  0.91188000000E+02 0.  0.
    9900012    2    3    3    0    0 -0.29918629983E+02  0.93436550795E+01 -0.19322364877E+02  0.54367053587E+02  0.39999930262E+02 0.  0.
        -12    1    3    3    0    0  0.29918629983E+02 -0.93436550795E+01  0.19322364877E+02  0.36820946413E+02  0.00000000000E+00 0.  1.
         11    1    4    4    0    0  0.48324907645E+01  0.90925133786E+00 -0.23371934794E+01  0.54444631146E+01  0.51100000000E-03 0. -1.
        -11    1    4    4    0    0 -0.46884418663E+00 -0.70716734738E+01  0.11065446741E+01  0.71730622449E+01  0.51100000000E-03 0.  1.
         12    1    4    4    0    0 -0.34282276561E+02  0.15506077215E+02 -0.18091716071E+02  0.41749528228E+02  0.00000000000E+00 0. -1.
</event>
<event>
 8    1  0.1212194E-006  0.9118800E+02  0.7816164E-02  0.1184000E+00
        -11   -1    0    0    0    0  0.00000000000E+00  0.00000000000E+00  0.45593999997E+02  0.45594000000E+02  0.51100000000E-03 0. -1.
         11   -1    0    0    0    0 -0.00000000000E+00 -0.00000000000E+00 -0.45593999997E+02  0.45594000000E+02  0.51100000000E-03 0.  1.
         23    2    1    2    0    0  0.00000000000E+00  0.35527136788E-14 -0.17763568394E-14  0.91188000000E+02  0.91188000000E+02 0.  0.
    9900012    2    3    3    0    0 -0.21282312632E+02 -0.28818408432E+02  0.85054861964E+01  0.54367071291E+02  0.39999970623E+02 0.  0.
        -12    1    3    3    0    0  0.21282312632E+02  0.28818408432E+02 -0.85054861964E+01  0.36820928709E+02  0.00000000000E+00 0.  1.
         11    1    4    4    0    0 -0.27068234388E+02 -0.14906133966E+02 -0.15842396015E+01  0.30941751050E+02  0.51100000000E-03 0. -1.
        -11    1    4    4    0    0  0.55873619938E+01 -0.80261664686E+00 -0.15920738436E+01  0.58649387820E+01  0.51100000000E-03 0.  1.
        -12    1    4    4    0    0  0.19855976183E+00 -0.13109657820E+02  0.11681799642E+02  0.17560381459E+02  0.00000000000E+00 0.  1.
</event>
<event>
 8    1  0.1212194E-006  0.9118800E+02  0.7816164E-02  0.1184000E+00
        -11   -1    0    0    0    0  0.00000000000E+00  0.00000000000E+00  0.45593999997E+02  0.45594000000E+02  0.51100000000E-03 0.  1.
         11   -1    0    0    0    0 -0.00000000000E+00 -0.00000000000E+00 -0.45593999997E+02  0.45594000000E+02  0.51100000000E-03 0. -1.
         23    2    1    2    0    0  0.00000000000E+00 -0.35527136788E-14  0.35527136788E-14  0.91188000000E+02  0.91188000000E+02 0.  0.
    9900012    2    3    3    0    0  0.20748427706E+02  0.29895914351E+02 -0.56139857404E+01  0.54367084978E+02  0.40000001824E+02 0.  0.
        -12    1    3    3    0    0 -0.20748427706E+02 -0.29895914351E+02  0.56139857404E+01  0.36820915022E+02  0.00000000000E+00 0.  1.
         11    1    4    4    0    0  0.13939490252E+01  0.60851254548E+01  0.15676653890E+01  0.64365690176E+01  0.51100000000E-03 0. -1.
        -11    1    4    4    0    0  0.22229467460E+02  0.11963374031E+02  0.97541113937E+01  0.27063152645E+02  0.51100000000E-03 0.  1.
        -12    1    4    4    0    0 -0.28749887788E+01  0.11847414866E+02 -0.16935762523E+02  0.20867363315E+02  0.00000000000E+00 0.  1.
</event>
<event>
 8    1  0.1212194E-006  0.9118800E+02  0.7816164E-02  0.1184000E+00
        -11   -1    0    0    0    0  0.00000000000E+00  0.00000000000E+00  0.45593999997E+02  0.45594000000E+02  0.51100000000E-03 0.  1.
         11   -1    0    0    0    0 -0.00000000000E+00 -0.00000000000E+00 -0.45593999997E+02  0.45594000000E+02  0.51100000000E-03 0. -1.
         23    2    1    2    0    0 -0.17763568394E-14  0.00000000000E+00  0.00000000000E+00  0.91188000000E+02  0.91188000000E+02 0.  0.
    9900012    2    3    3    0    0 -0.14719237728E+02 -0.15609448273E+02 -0.29924335552E+02  0.54367126940E+02  0.40000097484E+02 0.  0.
        -12    1    3    3    0    0  0.14719237728E+02  0.15609448273E+02  0.29924335552E+02  0.36820873060E+02  0.00000000000E+00 0.  1.
         11    1    4    4    0    0 -0.21046162148E+02 -0.15388318036E+01 -0.15027081388E+02  0.25906024778E+02  0.51100000000E-03 0. -1.
        -11    1    4    4    0    0 -0.59045979988E+01 -0.81602063764E+01 -0.32993530857E+01  0.10599008287E+02  0.51100000000E-03 0.  1.
        -12    1    4    4    0    0  0.12231522419E+02 -0.59104100932E+01 -0.11597901078E+02  0.17862093874E+02  0.00000000000E+00 0.  1.
</event>
<event>
 8    1  0.1212194E-006  0.9118800E+02  0.7816164E-02  0.1184000E+00
        -11   -1    0    0    0    0  0.00000000000E+00  0.00000000000E+00  0.45593999997E+02  0.45594000000E+02  0.51100000000E-03 0.  1.
         11   -1    0    0    0    0 -0.00000000000E+00 -0.00000000000E+00 -0.45593999997E+02  0.45594000000E+02  0.51100000000E-03 0. -1.
         23    2    1    2    0    0  0.00000000000E+00  0.00000000000E+00  0.00000000000E+00  0.91188000000E+02  0.91188000000E+02 0.  0.
    9900012    2    3    3    0    0 -0.17920175494E+02 -0.28659871894E+02 -0.14603393319E+02  0.54367081446E+02  0.39999993772E+02 0.  0.
         12    1    3    3    0    0  0.17920175494E+02  0.28659871894E+02  0.14603393319E+02  0.36820918554E+02  0.00000000000E+00 0. -1.
         11    1    4    4    0    0 -0.11972922407E+02  0.34992892332E+01  0.36369255983E+01  0.12993195302E+02  0.51100000000E-03 0. -1.
        -11    1    4    4    0    0 -0.82925022632E+01 -0.86103154441E+01 -0.11914335269E+02  0.16877633454E+02  0.51100000000E-03 0.  1.
        -12    1    4    4    0    0  0.23452491754E+01 -0.23548845684E+02 -0.63259836480E+01  0.24496252690E+02  0.00000000000E+00 0.  1.
</event>
<event>
 8    1  0.1212194E-006  0.9118800E+02  0.7816164E-02  0.1184000E+00
        -11   -1    0    0    0    0  0.00000000000E+00  0.00000000000E+00  0.45593999997E+02  0.45594000000E+02  0.51100000000E-03 0.  1.
         11   -1    0    0    0    0 -0.00000000000E+00 -0.00000000000E+00 -0.45593999997E+02  0.45594000000E+02  0.51100000000E-03 0. -1.
         23    2    1    2    0    0  0.00000000000E+00  0.00000000000E+00  0.00000000000E+00  0.91188000000E+02  0.91188000000E+02 0.  0.
    9900012    2    3    3    0    0 -0.14073858990E+02 -0.17244035679E+02 -0.29331712225E+02  0.54367087255E+02  0.40000007014E+02 0.  0.
        -12    1    3    3    0    0  0.14073858990E+02  0.17244035679E+02  0.29331712225E+02  0.36820912745E+02  0.00000000000E+00 0.  1.
         11    1    4    4    0    0  0.12284133173E+02 -0.96003490949E+01 -0.13658353005E+02  0.20727210078E+02  0.51100000000E-03 0. -1.
        -11    1    4    4    0    0 -0.23183230941E+02 -0.10487602625E+02 -0.14141278034E+02  0.29110612333E+02  0.51100000000E-03 0.  1.
         12    1    4    4    0    0 -0.31747612216E+01  0.28439160414E+01 -0.15320811859E+01  0.45292648437E+01  0.00000000000E+00 0. -1.
</event>
<event>
 8    1  0.1212194E-006  0.9118800E+02  0.7816164E-02  0.1184000E+00
        -11   -1    0    0    0    0  0.00000000000E+00  0.00000000000E+00  0.45593999997E+02  0.45594000000E+02  0.51100000000E-03 0. -1.
         11   -1    0    0    0    0 -0.00000000000E+00 -0.00000000000E+00 -0.45593999997E+02  0.45594000000E+02  0.51100000000E-03 0.  1.
         23    2    1    2    0    0  0.00000000000E+00  0.00000000000E+00  0.17763568394E-14  0.91188000000E+02  0.91188000000E+02 0.  0.
    9900012    2    3    3    0    0  0.36155758622E+02  0.10297744489E+01 -0.68905485172E+01  0.54367095940E+02  0.40000026814E+02 0.  0.
         12    1    3    3    0    0 -0.36155758622E+02 -0.10297744489E+01  0.68905485172E+01  0.36820904060E+02  0.00000000000E+00 0. -1.
         11    1    4    4    0    0 -0.22244387428E+01 -0.34817724916E+00 -0.13695771619E+02  0.13879607906E+02  0.51100000000E-03 0. -1.
        -11    1    4    4    0    0  0.39720177678E+01  0.36273535168E+01  0.16230793291E+01  0.56186302115E+01  0.51100000000E-03 0.  1.
        -12    1    4    4    0    0  0.34408179597E+02 -0.22494018188E+01  0.51821437732E+01  0.34868857822E+02  0.00000000000E+00 0.  1.
</event>
<event>
 8    1  0.1212194E-006  0.9118800E+02  0.7816164E-02  0.1184000E+00
        -11   -1    0    0    0    0  0.00000000000E+00  0.00000000000E+00  0.45593999997E+02  0.45594000000E+02  0.51100000000E-03 0.  1.
         11   -1    0    0    0    0 -0.00000000000E+00 -0.00000000000E+00 -0.45593999997E+02  0.45594000000E+02  0.51100000000E-03 0. -1.
         23    2    1    2    0    0 -0.17763568394E-14 -0.71054273576E-14 -0.35527136788E-14  0.91188000000E+02  0.91188000000E+02 0.  0.
    9900012    2    3    3    0    0 -0.50853035000E+01  0.27560281807E+02  0.23882003800E+02  0.54367088136E+02  0.40000009025E+02 0.  0.
         12    1    3    3    0    0  0.50853035000E+01 -0.27560281807E+02 -0.23882003800E+02  0.36820911864E+02  0.00000000000E+00 0. -1.
         11    1    4    4    0    0  0.73145647538E+01 -0.20094228362E+01  0.13840588858E+02  0.15782982541E+02  0.51100000000E-03 0. -1.
        -11    1    4    4    0    0 -0.13235683238E+02  0.10747369738E+02  0.99547828006E+01  0.19743023272E+02  0.51100000000E-03 0.  1.
        -12    1    4    4    0    0  0.83581498418E+00  0.18822334906E+02  0.86632140404E-01  0.18841082324E+02  0.00000000000E+00 0.  1.
</event>
<event>
 8    1  0.1212194E-006  0.9118800E+02  0.7816164E-02  0.1184000E+00
        -11   -1    0    0    0    0  0.00000000000E+00  0.00000000000E+00  0.45593999997E+02  0.45594000000E+02  0.51100000000E-03 0. -1.
         11   -1    0    0    0    0 -0.00000000000E+00 -0.00000000000E+00 -0.45593999997E+02  0.45594000000E+02  0.51100000000E-03 0.  1.
         23    2    1    2    0    0  0.00000000000E+00  0.88817841970E-15  0.00000000000E+00  0.91188000000E+02  0.91188000000E+02 0.  0.
    9900012    2    3    3    0    0 -0.28769067809E+02 -0.52114700536E+01  0.22382140184E+02  0.54367097215E+02  0.40000029721E+02 0.  0.
        -12    1    3    3    0    0  0.28769067809E+02  0.52114700536E+01 -0.22382140184E+02  0.36820902785E+02  0.00000000000E+00 0.  1.
         11    1    4    4    0    0  0.13897253745E+01 -0.15942026116E+02  0.74810134484E+01  0.17664798209E+02  0.51100000000E-03 0. -1.
        -11    1    4    4    0    0 -0.78628176065E+01  0.16804093862E+01  0.87143015861E+01  0.11856927461E+02  0.51100000000E-03 0.  1.
        -12    1    4    4    0    0 -0.22295975577E+02  0.90501466758E+01  0.61868251494E+01  0.24845371545E+02  0.00000000000E+00 0.  1.
</event>
<event>
 8    1  0.1212194E-006  0.9118800E+02  0.7816164E-02  0.1184000E+00
        -11   -1    0    0    0    0  0.00000000000E+00  0.00000000000E+00  0.45593999997E+02  0.45594000000E+02  0.51100000000E-03 0. -1.
         11   -1    0    0    0    0 -0.00000000000E+00 -0.00000000000E+00 -0.45593999997E+02  0.45594000000E+02  0.51100000000E-03 0.  1.
         23    2    1    2    0    0  0.00000000000E+00  0.17763568394E-14  0.00000000000E+00  0.91188000000E+02  0.91188000000E+02 0.  0.
    9900012    2    3    3    0    0  0.10886660529E+02  0.81595501646E+01 -0.34215242092E+02  0.54367076223E+02  0.39999981866E+02 0.  0.
         12    1    3    3    0    0 -0.10886660529E+02 -0.81595501646E+01  0.34215242092E+02  0.36820923777E+02  0.00000000000E+00 0. -1.
         11    1    4    4    0    0  0.40558192815E+01 -0.17832432749E+01  0.18611875406E+01  0.48055848702E+01  0.51100000000E-03 0. -1.
        -11    1    4    4    0    0  0.10905709514E+02 -0.89934032639E+01 -0.11208667729E+02  0.18040233779E+02  0.51100000000E-03 0.  1.
        -12    1    4    4    0    0 -0.40748682660E+01  0.18936196703E+02 -0.24867761903E+02  0.31521257574E+02  0.00000000000E+00 0.  1.
</event>
<event>
 8    1  0.1212194E-006  0.9118800E+02  0.7816164E-02  0.1184000E+00
        -11   -1    0    0    0    0  0.00000000000E+00  0.00000000000E+00  0.45593999997E+02  0.45594000000E+02  0.51100000000E-03 0.  1.
         11   -1    0    0    0    0 -0.00000000000E+00 -0.00000000000E+00 -0.45593999997E+02  0.45594000000E+02  0.51100000000E-03 0. -1.
         23    2    1    2    0    0  0.00000000000E+00 -0.17763568394E-14  0.35527136788E-14  0.91188000000E+02  0.91188000000E+02 0.  0.
    9900012    2    3    3    0    0  0.22692784943E+02 -0.15990546766E+02  0.24189244739E+02  0.54367086983E+02  0.40000006396E+02 0.  0.
         12    1    3    3    0    0 -0.22692784943E+02  0.15990546766E+02 -0.24189244739E+02  0.36820913017E+02  0.00000000000E+00 0. -1.
         11    1    4    4    0    0  0.42920638094E+01 -0.10310013293E+02 -0.95310696461E+01  0.14681943832E+02  0.51100000000E-03 0. -1.
        -11    1    4    4    0    0  0.92432389319E+01 -0.83902839558E-02  0.99101326136E+01  0.13551688641E+02  0.51100000000E-03 0.  1.
         12    1    4    4    0    0  0.91574822018E+01 -0.56721431890E+01  0.23810181771E+02  0.26133454510E+02  0.00000000000E+00 0. -1.
</event>
<event>
 8    1  0.1212194E-006  0.9118800E+02  0.7816164E-02  0.1184000E+00
        -11   -1    0    0    0    0  0.00000000000E+00  0.00000000000E+00  0.45593999997E+02  0.45594000000E+02  0.51100000000E-03 0. -1.
         11   -1    0    0    0    0 -0.00000000000E+00 -0.00000000000E+00 -0.45593999997E+02  0.45594000000E+02  0.51100000000E-03 0.  1.
         23    2    1    2    0    0  0.35527136788E-14  0.00000000000E+00  0.00000000000E+00  0.91188000000E+02  0.91188000000E+02 0.  0.
    9900012    2    3    3    0    0 -0.17037573031E+02  0.17792262171E+02  0.27366694133E+02  0.54367089695E+02  0.40000012577E+02 0.  0.
        -12    1    3    3    0    0  0.17037573031E+02 -0.17792262171E+02 -0.27366694133E+02  0.36820910305E+02  0.00000000000E+00 0.  1.
         11    1    4    4    0    0 -0.10221365832E+02 -0.42736499089E+01  0.39562855701E+01  0.11764038371E+02  0.51100000000E-03 0. -1.
        -11    1    4    4    0    0 -0.16216114035E+02  0.12776510787E+02  0.76056713476E+01  0.22001086773E+02  0.51100000000E-03 0.  1.
        -12    1    4    4    0    0  0.93999068364E+01  0.92894012927E+01  0.15804737215E+02  0.20601964551E+02  0.00000000000E+00 0.  1.
</event>
<event>
 8    1  0.1212194E-006  0.9118800E+02  0.7816164E-02  0.1184000E+00
        -11   -1    0    0    0    0  0.00000000000E+00  0.00000000000E+00  0.45593999997E+02  0.45594000000E+02  0.51100000000E-03 0.  1.
         11   -1    0    0    0    0 -0.00000000000E+00 -0.00000000000E+00 -0.45593999997E+02  0.45594000000E+02  0.51100000000E-03 0. -1.
         23    2    1    2    0    0  0.00000000000E+00 -0.35527136788E-14  0.00000000000E+00  0.91188000000E+02  0.91188000000E+02 0.  0.
    9900012    2    3    3    0    0 -0.22853811722E+02 -0.15023707803E+02  0.24653045576E+02  0.54367066245E+02  0.39999959119E+02 0.  0.
         12    1    3    3    0    0  0.22853811722E+02  0.15023707803E+02 -0.24653045576E+02  0.36820933755E+02  0.00000000000E+00 0. -1.
         11    1    4    4    0    0  0.27759396727E+01 -0.92238464392E+00 -0.64474421728E+01  0.70799820149E+01  0.51100000000E-03 0. -1.
        -11    1    4    4    0    0 -0.16401393346E+02 -0.18976567654E+02  0.20299950959E+02  0.32267690230E+02  0.51100000000E-03 0.  1.
        -12    1    4    4    0    0 -0.92283580495E+01  0.48752444947E+01  0.10800536790E+02  0.15019394000E+02  0.00000000000E+00 0.  1.
</event>
<event>
 8    1  0.1212194E-006  0.9118800E+02  0.7816164E-02  0.1184000E+00
        -11   -1    0    0    0    0  0.00000000000E+00  0.00000000000E+00  0.45593999997E+02  0.45594000000E+02  0.51100000000E-03 0. -1.
         11   -1    0    0    0    0 -0.00000000000E+00 -0.00000000000E+00 -0.45593999997E+02  0.45594000000E+02  0.51100000000E-03 0.  1.
         23    2    1    2    0    0 -0.17763568394E-14  0.00000000000E+00 -0.71054273576E-14  0.91188000000E+02  0.91188000000E+02 0.  0.
    9900012    2    3    3    0    0  0.90456949668E+01  0.22198226559E+02  0.27949836911E+02  0.54367092310E+02  0.40000018538E+02 0.  0.
        -12    1    3    3    0    0 -0.90456949668E+01 -0.22198226559E+02 -0.27949836911E+02  0.36820907690E+02  0.00000000000E+00 0.  1.
         11    1    4    4    0    0  0.14093428438E+02 -0.58876603350E+01  0.59989969698E+01  0.16409668926E+02  0.51100000000E-03 0. -1.
        -11    1    4    4    0    0 -0.61633428290E+01  0.13106674738E+02  0.16556447306E+02  0.21997446788E+02  0.51100000000E-03 0.  1.
         12    1    4    4    0    0  0.11156093581E+01  0.14979212156E+02  0.53943926349E+01  0.15959976596E+02  0.00000000000E+00 0. -1.
</event>
<event>
 8    1  0.1212194E-006  0.9118800E+02  0.7816164E-02  0.1184000E+00
        -11   -1    0    0    0    0  0.00000000000E+00  0.00000000000E+00  0.45593999997E+02  0.45594000000E+02  0.51100000000E-03 0. -1.
         11   -1    0    0    0    0 -0.00000000000E+00 -0.00000000000E+00 -0.45593999997E+02  0.45594000000E+02  0.51100000000E-03 0.  1.
         23    2    1    2    0    0  0.00000000000E+00  0.00000000000E+00  0.00000000000E+00  0.91188000000E+02  0.91188000000E+02 0.  0.
    9900012    2    3    3    0    0 -0.52183595106E+01 -0.31150481698E+02  0.18926052240E+02  0.54367092361E+02  0.40000018654E+02 0.  0.
        -12    1    3    3    0    0  0.52183595106E+01  0.31150481698E+02 -0.18926052240E+02  0.36820907639E+02  0.00000000000E+00 0.  1.
         11    1    4    4    0    0 -0.42559133078E+01 -0.12443971502E+02 -0.53579232878E+01  0.14201146681E+02  0.51100000000E-03 0. -1.
        -11    1    4    4    0    0  0.48045210833E+01  0.51138338881E+01  0.27340189191E+01  0.75305763117E+01  0.51100000000E-03 0.  1.
         12    1    4    4    0    0 -0.57669672862E+01 -0.23820344084E+02  0.21549956608E+02  0.32635369368E+02  0.00000000000E+00 0. -1.
</event>
<event>
 8    1  0.1212194E-006  0.9118800E+02  0.7816164E-02  0.1184000E+00
        -11   -1    0    0    0    0  0.00000000000E+00  0.00000000000E+00  0.45593999997E+02  0.45594000000E+02  0.51100000000E-03 0.  1.
         11   -1    0    0    0    0 -0.00000000000E+00 -0.00000000000E+00 -0.45593999997E+02  0.45594000000E+02  0.51100000000E-03 0. -1.
         23    2    1    2    0    0  0.00000000000E+00  0.35527136788E-14  0.00000000000E+00  0.91188000000E+02  0.91188000000E+02 0.  0.
    9900012    2    3    3    0    0 -0.14021530029E+02 -0.26992375314E+02  0.20750607974E+02  0.54367090712E+02  0.40000014897E+02 0.  0.
         12    1    3    3    0    0  0.14021530029E+02  0.26992375314E+02 -0.20750607974E+02  0.36820909288E+02  0.00000000000E+00 0. -1.
         11    1    4    4    0    0 -0.43865658510E+01  0.43024303694E+01 -0.21626890018E+00  0.61481411457E+01  0.51100000000E-03 0. -1.
        -11    1    4    4    0    0  0.92521907959E+01 -0.15123192856E+02  0.13416733742E+02  0.22233369993E+02  0.51100000000E-03 0.  1.
         12    1    4    4    0    0 -0.18887154974E+02 -0.16171612828E+02  0.75501431326E+01  0.25985579574E+02  0.00000000000E+00 0. -1.
</event>
<event>
 8    1  0.1212194E-006  0.9118800E+02  0.7816164E-02  0.1184000E+00
        -11   -1    0    0    0    0  0.00000000000E+00  0.00000000000E+00  0.45593999997E+02  0.45594000000E+02  0.51100000000E-03 0.  1.
         11   -1    0    0    0    0 -0.00000000000E+00 -0.00000000000E+00 -0.45593999997E+02  0.45594000000E+02  0.51100000000E-03 0. -1.
         23    2    1    2    0    0 -0.35527136788E-14  0.35527136788E-14  0.00000000000E+00  0.91188000000E+02  0.91188000000E+02 0.  0.
    9900012    2    3    3    0    0 -0.21370288856E+02  0.28842715074E+02  0.81968767243E+01  0.54367078683E+02  0.39999987473E+02 0.  0.
         12    1    3    3    0    0  0.21370288856E+02 -0.28842715074E+02 -0.81968767243E+01  0.36820921317E+02  0.00000000000E+00 0. -1.
         11    1    4    4    0    0  0.27942097924E+01  0.14333154639E+02  0.26611962186E+01  0.14843479910E+02  0.51100000000E-03 0. -1.
        -11    1    4    4    0    0 -0.25948172754E+02  0.11200539049E+02  0.13043668916E+02  0.31127111066E+02  0.51100000000E-03 0.  1.
         12    1    4    4    0    0  0.17836741053E+01  0.33090213861E+01 -0.75079884102E+01  0.83964877071E+01  0.00000000000E+00 0. -1.
</event>
<event>
 8    1  0.1212194E-006  0.9118800E+02  0.7816164E-02  0.1184000E+00
        -11   -1    0    0    0    0  0.00000000000E+00  0.00000000000E+00  0.45593999997E+02  0.45594000000E+02  0.51100000000E-03 0.  1.
         11   -1    0    0    0    0 -0.00000000000E+00 -0.00000000000E+00 -0.45593999997E+02  0.45594000000E+02  0.51100000000E-03 0. -1.
         23    2    1    2    0    0 -0.71054273576E-14  0.35527136788E-14 -0.44408920985E-15  0.91188000000E+02  0.91188000000E+02 0.  0.
    9900012    2    3    3    0    0  0.32260118819E+02 -0.17580511525E+02  0.24475362287E+01  0.54367080874E+02  0.39999992468E+02 0.  0.
         12    1    3    3    0    0 -0.32260118819E+02  0.17580511525E+02 -0.24475362287E+01  0.36820919126E+02  0.00000000000E+00 0. -1.
         11    1    4    4    0    0  0.44802738302E+00 -0.13533853176E+01  0.71447005164E+01  0.72855422642E+01  0.51100000000E-03 0. -1.
        -11    1    4    4    0    0 -0.34589173247E+01 -0.40149233017E+01 -0.80155207642E+01  0.96089693287E+01  0.51100000000E-03 0.  1.
        -12    1    4    4    0    0  0.35271008761E+02 -0.12212202906E+02  0.33183564765E+01  0.37472569281E+02  0.00000000000E+00 0.  1.
</event>
<event>
 8    1  0.1212194E-006  0.9118800E+02  0.7816164E-02  0.1184000E+00
        -11   -1    0    0    0    0  0.00000000000E+00  0.00000000000E+00  0.45593999997E+02  0.45594000000E+02  0.51100000000E-03 0.  1.
         11   -1    0    0    0    0 -0.00000000000E+00 -0.00000000000E+00 -0.45593999997E+02  0.45594000000E+02  0.51100000000E-03 0. -1.
         23    2    1    2    0    0  0.00000000000E+00  0.17763568394E-14  0.00000000000E+00  0.91188000000E+02  0.91188000000E+02 0.  0.
    9900012    2    3    3    0    0 -0.32049204015E+02  0.50198024506E+01 -0.17419242162E+02  0.54367083496E+02  0.39999998446E+02 0.  0.
        -12    1    3    3    0    0  0.32049204015E+02 -0.50198024506E+01  0.17419242162E+02  0.36820916504E+02  0.00000000000E+00 0.  1.
         11    1    4    4    0    0 -0.11327694143E+02 -0.49525926219E+00 -0.13479094390E+02  0.17613855971E+02  0.51100000000E-03 0. -1.
        -11    1    4    4    0    0 -0.11859967347E+02  0.13681912080E+02 -0.12473200653E+02  0.21987138932E+02  0.51100000000E-03 0.  1.
        -12    1    4    4    0    0 -0.88615425263E+01 -0.81668503675E+01  0.85330528810E+01  0.14766088593E+02  0.00000000000E+00 0.  1.
</event>
<event>
 8    1  0.1212194E-006  0.9118800E+02  0.7816164E-02  0.1184000E+00
        -11   -1    0    0    0    0  0.00000000000E+00  0.00000000000E+00  0.45593999997E+02  0.45594000000E+02  0.51100000000E-03 0.  1.
         11   -1    0    0    0    0 -0.00000000000E+00 -0.00000000000E+00 -0.45593999997E+02  0.45594000000E+02  0.51100000000E-03 0. -1.
         23    2    1    2    0    0  0.00000000000E+00 -0.17763568394E-14  0.71054273576E-14  0.91188000000E+02  0.91188000000E+02 0.  0.
    9900012    2    3    3    0    0 -0.40484214890E+01 -0.15846979085E+02  0.32988808853E+02  0.54367109568E+02  0.40000057883E+02 0.  0.
         12    1    3    3    0    0  0.40484214890E+01  0.15846979085E+02 -0.32988808853E+02  0.36820890432E+02  0.00000000000E+00 0. -1.
         11    1    4    4    0    0 -0.10994501297E+02 -0.75646765909E+01  0.32382582296E+02  0.35024777332E+02  0.51100000000E-03 0.  1.
        -11    1    4    4    0    0  0.38483576517E+01 -0.12997144738E+02  0.14730062427E+01  0.13634712157E+02  0.51100000000E-03 0. -1.
         12    1    4    4    0    0  0.30977221560E+01  0.47148422445E+01 -0.86677968640E+00  0.57076200794E+01  0.00000000000E+00 0. -1.
</event>
<event>
 8    1  0.1212194E-006  0.9118800E+02  0.7816164E-02  0.1184000E+00
        -11   -1    0    0    0    0  0.00000000000E+00  0.00000000000E+00  0.45593999997E+02  0.45594000000E+02  0.51100000000E-03 0. -1.
         11   -1    0    0    0    0 -0.00000000000E+00 -0.00000000000E+00 -0.45593999997E+02  0.45594000000E+02  0.51100000000E-03 0.  1.
         23    2    1    2    0    0 -0.35527136788E-14  0.00000000000E+00  0.00000000000E+00  0.91188000000E+02  0.91188000000E+02 0.  0.
    9900012    2    3    3    0    0  0.19486118281E+02  0.23343463566E+02  0.20764214030E+02  0.54367099941E+02  0.40000035935E+02 0.  0.
        -12    1    3    3    0    0 -0.19486118281E+02 -0.23343463566E+02 -0.20764214030E+02  0.36820900059E+02  0.00000000000E+00 0.  1.
         11    1    4    4    0    0 -0.25335626472E+00  0.27146872885E+02  0.37306220271E+01  0.27403182986E+02  0.51100000000E-03 0. -1.
        -11    1    4    4    0    0  0.10323181325E+01 -0.40370022648E+00  0.33766319803E+01  0.35539131097E+01  0.51100000000E-03 0.  1.
         12    1    4    4    0    0  0.18707156413E+02 -0.33997090922E+01  0.13656960022E+02  0.23410003845E+02  0.00000000000E+00 0. -1.
</event>
<event>
 8    1  0.1212194E-006  0.9118800E+02  0.7816164E-02  0.1184000E+00
        -11   -1    0    0    0    0  0.00000000000E+00  0.00000000000E+00  0.45593999997E+02  0.45594000000E+02  0.51100000000E-03 0. -1.
         11   -1    0    0    0    0 -0.00000000000E+00 -0.00000000000E+00 -0.45593999997E+02  0.45594000000E+02  0.51100000000E-03 0.  1.
         23    2    1    2    0    0  0.35527136788E-14  0.00000000000E+00  0.00000000000E+00  0.91188000000E+02  0.91188000000E+02 0.  0.
    9900012    2    3    3    0    0 -0.13897904340E+02  0.80951524661E+01 -0.33122437551E+02  0.54367094147E+02  0.40000022727E+02 0.  0.
         12    1    3    3    0    0  0.13897904340E+02 -0.80951524661E+01  0.33122437551E+02  0.36820905853E+02  0.00000000000E+00 0. -1.
         11    1    4    4    0    0 -0.19775991521E+02  0.12392890543E+02 -0.30183963723E+02  0.38154229686E+02  0.51100000000E-03 0.  1.
        -11    1    4    4    0    0 -0.22959902876E+01 -0.69460607791E+01 -0.80713228544E+00  0.73600811500E+01  0.51100000000E-03 0. -1.
        -12    1    4    4    0    0  0.81740774677E+01  0.26483227019E+01 -0.21313415431E+01  0.88527833112E+01  0.00000000000E+00 0.  1.
</event>
<event>
 8    1  0.1212194E-006  0.9118800E+02  0.7816164E-02  0.1184000E+00
        -11   -1    0    0    0    0  0.00000000000E+00  0.00000000000E+00  0.45593999997E+02  0.45594000000E+02  0.51100000000E-03 0. -1.
         11   -1    0    0    0    0 -0.00000000000E+00 -0.00000000000E+00 -0.45593999997E+02  0.45594000000E+02  0.51100000000E-03 0.  1.
         23    2    1    2    0    0  0.00000000000E+00  0.88817841970E-15  0.00000000000E+00  0.91188000000E+02  0.91188000000E+02 0.  0.
    9900012    2    3    3    0    0  0.34786677625E+02 -0.60647048524E+01 -0.10434872646E+02  0.54367079964E+02  0.39999990394E+02 0.  0.
         12    1    3    3    0    0 -0.34786677625E+02  0.60647048524E+01  0.10434872646E+02  0.36820920036E+02  0.00000000000E+00 0. -1.
         11    1    4    4    0    0 -0.16097053181E-01 -0.97303686248E+01 -0.51016562392E+00  0.97437468109E+01  0.51100000000E-03 0. -1.
        -11    1    4    4    0    0  0.18805514629E+02  0.32520161539E+01 -0.18404200625E+02  0.26512970231E+02  0.51100000000E-03 0.  1.
        -12    1    4    4    0    0  0.15997260049E+02  0.41364761844E+00  0.84794936028E+01  0.18110362923E+02  0.00000000000E+00 0.  1.
</event>
<event>
 8    1  0.1212194E-006  0.9118800E+02  0.7816164E-02  0.1184000E+00
        -11   -1    0    0    0    0  0.00000000000E+00  0.00000000000E+00  0.45593999997E+02  0.45594000000E+02  0.51100000000E-03 0.  1.
         11   -1    0    0    0    0 -0.00000000000E+00 -0.00000000000E+00 -0.45593999997E+02  0.45594000000E+02  0.51100000000E-03 0. -1.
         23    2    1    2    0    0  0.35527136788E-14 -0.17763568394E-14  0.00000000000E+00  0.91188000000E+02  0.91188000000E+02 0.  0.
    9900012    2    3    3    0    0  0.27523604124E+02  0.91996357293E+01  0.22662692867E+02  0.54367085705E+02  0.40000003481E+02 0.  0.
        -12    1    3    3    0    0 -0.27523604124E+02 -0.91996357293E+01 -0.22662692867E+02  0.36820914295E+02  0.00000000000E+00 0.  1.
         11    1    4    4    0    0  0.19630151816E+02 -0.42072124743E+01  0.19171921379E+02  0.27759792267E+02  0.51100000000E-03 0. -1.
        -11    1    4    4    0    0  0.13050890301E+01 -0.58277098668E+00  0.98019344513E+01  0.99055943107E+01  0.51100000000E-03 0.  1.
         12    1    4    4    0    0  0.65883632786E+01  0.13989619190E+02 -0.63111629628E+01  0.16701699127E+02  0.00000000000E+00 0. -1.
</event>
<event>
 8    1  0.1212194E-006  0.9118800E+02  0.7816164E-02  0.1184000E+00
        -11   -1    0    0    0    0  0.00000000000E+00  0.00000000000E+00  0.45593999997E+02  0.45594000000E+02  0.51100000000E-03 0. -1.
         11   -1    0    0    0    0 -0.00000000000E+00 -0.00000000000E+00 -0.45593999997E+02  0.45594000000E+02  0.51100000000E-03 0.  1.
         23    2    1    2    0    0 -0.44408920985E-15 -0.71054273576E-14 -0.88817841970E-15  0.91188000000E+02  0.91188000000E+02 0.  0.
    9900012    2    3    3    0    0  0.21940292007E+01  0.36198137778E+02 -0.63766307598E+01  0.54367077109E+02  0.39999983885E+02 0.  0.
         12    1    3    3    0    0 -0.21940292007E+01 -0.36198137778E+02  0.63766307598E+01  0.36820922891E+02  0.00000000000E+00 0. -1.
         11    1    4    4    0    0  0.40784132328E+00  0.15063087404E+02 -0.16550015785E+02  0.22382268862E+02  0.51100000000E-03 0.  1.
        -11    1    4    4    0    0 -0.17075476376E+01  0.21175768169E+02  0.17294465576E-01  0.21244509310E+02  0.51100000000E-03 0. -1.
         12    1    4    4    0    0  0.34937355150E+01 -0.40717795239E-01  0.10156090559E+02  0.10740298936E+02  0.00000000000E+00 0. -1.
</event>
<event>
 8    1  0.1212194E-006  0.9118800E+02  0.7816164E-02  0.1184000E+00
        -11   -1    0    0    0    0  0.00000000000E+00  0.00000000000E+00  0.45593999997E+02  0.45594000000E+02  0.51100000000E-03 0.  1.
         11   -1    0    0    0    0 -0.00000000000E+00 -0.00000000000E+00 -0.45593999997E+02  0.45594000000E+02  0.51100000000E-03 0. -1.
         23    2    1    2    0    0  0.00000000000E+00  0.00000000000E+00  0.00000000000E+00  0.91188000000E+02  0.91188000000E+02 0.  0.
    9900012    2    3    3    0    0 -0.18135948549E+02 -0.24857717854E+02 -0.20222863647E+02  0.54367041556E+02  0.39999902834E+02 0.  0.
        -12    1    3    3    0    0  0.18135948549E+02  0.24857717854E+02  0.20222863647E+02  0.36820958444E+02  0.00000000000E+00 0.  1.
         11    1    4    4    0    0 -0.20266756878E+01 -0.11376156602E+02 -0.18890248696E+02  0.22144205776E+02  0.51100000000E-03 0. -1.
        -11    1    4    4    0    0 -0.22481918671E+02 -0.11593771899E+02 -0.26943513205E+01  0.25438391130E+02  0.51100000000E-03 0.  1.
         12    1    4    4    0    0  0.63726458104E+01 -0.18877893525E+01  0.13617363692E+01  0.67844446496E+01  0.00000000000E+00 0. -1.
</event>
<event>
 8    1  0.1212194E-006  0.9118800E+02  0.7816164E-02  0.1184000E+00
        -11   -1    0    0    0    0  0.00000000000E+00  0.00000000000E+00  0.45593999997E+02  0.45594000000E+02  0.51100000000E-03 0.  1.
         11   -1    0    0    0    0 -0.00000000000E+00 -0.00000000000E+00 -0.45593999997E+02  0.45594000000E+02  0.51100000000E-03 0. -1.
         23    2    1    2    0    0  0.00000000000E+00  0.00000000000E+00  0.00000000000E+00  0.91188000000E+02  0.91188000000E+02 0.  0.
    9900012    2    3    3    0    0  0.55952072849E+01 -0.94173557716E+01  0.35153755004E+02  0.54367089838E+02  0.40000012904E+02 0.  0.
         12    1    3    3    0    0 -0.55952072849E+01  0.94173557716E+01 -0.35153755004E+02  0.36820910162E+02  0.00000000000E+00 0. -1.
         11    1    4    4    0    0  0.48296942009E+01  0.23747215646E+01  0.59715298117E+01  0.80389313429E+01  0.51100000000E-03 0. -1.
        -11    1    4    4    0    0  0.22501222586E+01 -0.52966121263E+01  0.36198011968E+02  0.36652601830E+02  0.51100000000E-03 0.  1.
         12    1    4    4    0    0 -0.14846091746E+01 -0.64954652099E+01 -0.70157867762E+01  0.96755566653E+01  0.00000000000E+00 0. -1.
</event>
<event>
 8    1  0.1212194E-006  0.9118800E+02  0.7816164E-02  0.1184000E+00
        -11   -1    0    0    0    0  0.00000000000E+00  0.00000000000E+00  0.45593999997E+02  0.45594000000E+02  0.51100000000E-03 0. -1.
         11   -1    0    0    0    0 -0.00000000000E+00 -0.00000000000E+00 -0.45593999997E+02  0.45594000000E+02  0.51100000000E-03 0.  1.
         23    2    1    2    0    0  0.17763568394E-14  0.00000000000E+00 -0.35527136788E-14  0.91188000000E+02  0.91188000000E+02 0.  0.
    9900012    2    3    3    0    0 -0.12905640740E+02  0.21815471293E+02  0.26707797430E+02  0.54367125564E+02  0.40000094349E+02 0.  0.
        -12    1    3    3    0    0  0.12905640740E+02 -0.21815471293E+02 -0.26707797430E+02  0.36820874436E+02  0.00000000000E+00 0.  1.
         11    1    4    4    0    0 -0.38549185886E+01 -0.17399839833E+01  0.18291334036E+02  0.18773940521E+02  0.51100000000E-03 0. -1.
        -11    1    4    4    0    0  0.23569464419E+01 -0.21047790566E+01 -0.38231545479E+01  0.49600203997E+01  0.51100000000E-03 0.  1.
         12    1    4    4    0    0 -0.11407668593E+02  0.25660234333E+02  0.12239617942E+02  0.30633164644E+02  0.00000000000E+00 0. -1.
</event>
<event>
 8    1  0.1212194E-006  0.9118800E+02  0.7816164E-02  0.1184000E+00
        -11   -1    0    0    0    0  0.00000000000E+00  0.00000000000E+00  0.45593999997E+02  0.45594000000E+02  0.51100000000E-03 0.  1.
         11   -1    0    0    0    0 -0.00000000000E+00 -0.00000000000E+00 -0.45593999997E+02  0.45594000000E+02  0.51100000000E-03 0. -1.
         23    2    1    2    0    0 -0.35527136788E-14 -0.55511151231E-15  0.71054273576E-14  0.91188000000E+02  0.91188000000E+02 0.  0.
    9900012    2    3    3    0    0 -0.11158257707E+02  0.91787826059E+00  0.35077485528E+02  0.54367092807E+02  0.40000019673E+02 0.  0.
         12    1    3    3    0    0  0.11158257707E+02 -0.91787826059E+00 -0.35077485528E+02  0.36820907193E+02  0.00000000000E+00 0. -1.
         11    1    4    4    0    0  0.36212210563E+00  0.13174897020E+01  0.11940806982E+02  0.12018726354E+02  0.51100000000E-03 0. -1.
        -11    1    4    4    0    0  0.76574462742E+01 -0.10166686870E+02  0.14132224263E+02  0.19018879259E+02  0.51100000000E-03 0.  1.
         12    1    4    4    0    0 -0.19177826087E+02  0.97670754287E+01  0.90044542820E+01  0.23329487194E+02  0.00000000000E+00 0. -1.
</event>
<event>
 8    1  0.1212194E-006  0.9118800E+02  0.7816164E-02  0.1184000E+00
        -11   -1    0    0    0    0  0.00000000000E+00  0.00000000000E+00  0.45593999997E+02  0.45594000000E+02  0.51100000000E-03 0. -1.
         11   -1    0    0    0    0 -0.00000000000E+00 -0.00000000000E+00 -0.45593999997E+02  0.45594000000E+02  0.51100000000E-03 0.  1.
         23    2    1    2    0    0  0.00000000000E+00  0.00000000000E+00 -0.35527136788E-14  0.91188000000E+02  0.91188000000E+02 0.  0.
    9900012    2    3    3    0    0 -0.13806102008E+02  0.21423954343E+02  0.26574156381E+02  0.54367081221E+02  0.39999993261E+02 0.  0.
        -12    1    3    3    0    0  0.13806102008E+02 -0.21423954343E+02 -0.26574156381E+02  0.36820918779E+02  0.00000000000E+00 0.  1.
         11    1    4    4    0    0 -0.18370741480E+02  0.17215637135E+02  0.29662900580E+01  0.25350762937E+02  0.51100000000E-03 0. -1.
        -11    1    4    4    0    0  0.76269101728E+01  0.86104455085E+01  0.15754371544E+02  0.19506659212E+02  0.51100000000E-03 0.  1.
         12    1    4    4    0    0 -0.30622707000E+01 -0.44021283008E+01  0.78534947794E+01  0.95096590720E+01  0.00000000000E+00 0. -1.
</event>
<event>
 8    1  0.1212194E-006  0.9118800E+02  0.7816164E-02  0.1184000E+00
        -11   -1    0    0    0    0  0.00000000000E+00  0.00000000000E+00  0.45593999997E+02  0.45594000000E+02  0.51100000000E-03 0.  1.
         11   -1    0    0    0    0 -0.00000000000E+00 -0.00000000000E+00 -0.45593999997E+02  0.45594000000E+02  0.51100000000E-03 0. -1.
         23    2    1    2    0    0  0.00000000000E+00  0.00000000000E+00  0.00000000000E+00  0.91188000000E+02  0.91188000000E+02 0.  0.
    9900012    2    3    3    0    0 -0.21122466533E+02 -0.94646696804E+01  0.28636166607E+02  0.54367236801E+02  0.40000347933E+02 0.  0.
         12    1    3    3    0    0  0.21122466533E+02  0.94646696804E+01 -0.28636166607E+02  0.36820763199E+02  0.00000000000E+00 0. -1.
         11    1    4    4    0    0 -0.29174772204E+01  0.30617116317E+01 -0.72295589382E+01  0.83756954427E+01  0.51100000000E-03 0. -1.
        -11    1    4    4    0    0  0.15344748806E+00 -0.97805140781E+01  0.16386927934E+02  0.19084376048E+02  0.51100000000E-03 0.  1.
        -12    1    4    4    0    0 -0.18358436801E+02 -0.27458672340E+01  0.19478797612E+02  0.26907165311E+02  0.00000000000E+00 0.  1.
</event>
<event>
 8    1  0.1212194E-006  0.9118800E+02  0.7816164E-02  0.1184000E+00
        -11   -1    0    0    0    0  0.00000000000E+00  0.00000000000E+00  0.45593999997E+02  0.45594000000E+02  0.51100000000E-03 0. -1.
         11   -1    0    0    0    0 -0.00000000000E+00 -0.00000000000E+00 -0.45593999997E+02  0.45594000000E+02  0.51100000000E-03 0.  1.
         23    2    1    2    0    0  0.00000000000E+00  0.35527136788E-14  0.17763568394E-14  0.91188000000E+02  0.91188000000E+02 0.  0.
    9900012    2    3    3    0    0  0.17622935368E+02  0.31543902837E+02  0.70847826331E+01  0.54367084719E+02  0.40000001234E+02 0.  0.
        -12    1    3    3    0    0 -0.17622935368E+02 -0.31543902837E+02 -0.70847826331E+01  0.36820915281E+02  0.00000000000E+00 0.  1.
         11    1    4    4    0    0  0.53297890329E+00  0.15625419779E+02  0.13889066130E+02  0.20912770453E+02  0.51100000000E-03 0. -1.
        -11    1    4    4    0    0  0.16120850846E+02 -0.64533049871E+00 -0.40599458959E+01  0.16636749814E+02  0.51100000000E-03 0.  1.
        -12    1    4    4    0    0  0.96910561903E+00  0.16563813557E+02 -0.27443376008E+01  0.16817564452E+02  0.00000000000E+00 0.  1.
</event>
<event>
 8    1  0.1212194E-006  0.9118800E+02  0.7816164E-02  0.1184000E+00
        -11   -1    0    0    0    0  0.00000000000E+00  0.00000000000E+00  0.45593999997E+02  0.45594000000E+02  0.51100000000E-03 0.  1.
         11   -1    0    0    0    0 -0.00000000000E+00 -0.00000000000E+00 -0.45593999997E+02  0.45594000000E+02  0.51100000000E-03 0. -1.
         23    2    1    2    0    0 -0.71054273576E-14  0.00000000000E+00 -0.15543122345E-14  0.91188000000E+02  0.91188000000E+02 0.  0.
    9900012    2    3    3    0    0 -0.36160944115E+02  0.68964058114E+01 -0.77838389891E+00  0.54367079670E+02  0.39999989725E+02 0.  0.
        -12    1    3    3    0    0  0.36160944115E+02 -0.68964058114E+01  0.77838389891E+00  0.36820920330E+02  0.00000000000E+00 0.  1.
         11    1    4    4    0    0 -0.22200565449E+02  0.76101981235E+01 -0.14941424842E+02  0.27821329916E+02  0.51100000000E-03 0. -1.
        -11    1    4    4    0    0 -0.13547474669E+02 -0.72634997535E+01  0.12401634125E+02  0.19750772840E+02  0.51100000000E-03 0.  1.
        -12    1    4    4    0    0 -0.41290399707E+00  0.65497074414E+01  0.17614068181E+01  0.67949769137E+01  0.00000000000E+00 0.  1.
</event>
<event>
 8    1  0.1212194E-006  0.9118800E+02  0.7816164E-02  0.1184000E+00
        -11   -1    0    0    0    0  0.00000000000E+00  0.00000000000E+00  0.45593999997E+02  0.45594000000E+02  0.51100000000E-03 0.  1.
         11   -1    0    0    0    0 -0.00000000000E+00 -0.00000000000E+00 -0.45593999997E+02  0.45594000000E+02  0.51100000000E-03 0. -1.
         23    2    1    2    0    0  0.00000000000E+00  0.00000000000E+00  0.00000000000E+00  0.91188000000E+02  0.91188000000E+02 0.  0.
    9900012    2    3    3    0    0  0.76776066122E+01  0.11033527138E+02 -0.34279647205E+02  0.54367101356E+02  0.40000039162E+02 0.  0.
        -12    1    3    3    0    0 -0.76776066122E+01 -0.11033527138E+02  0.34279647205E+02  0.36820898644E+02  0.00000000000E+00 0.  1.
         11    1    4    4    0    0  0.43542597648E+01  0.14860380244E+02 -0.19476840290E+02  0.24882479520E+02  0.51100000000E-03 0. -1.
        -11    1    4    4    0    0  0.96408938608E+00  0.10306875281E+02 -0.99432881453E+01  0.14353749538E+02  0.51100000000E-03 0.  1.
         12    1    4    4    0    0  0.23592574612E+01 -0.14133728386E+02 -0.48595187698E+01  0.15130872299E+02  0.00000000000E+00 0. -1.
</event>
<event>
 8    1  0.1212194E-006  0.9118800E+02  0.7816164E-02  0.1184000E+00
        -11   -1    0    0    0    0  0.00000000000E+00  0.00000000000E+00  0.45593999997E+02  0.45594000000E+02  0.51100000000E-03 0. -1.
         11   -1    0    0    0    0 -0.00000000000E+00 -0.00000000000E+00 -0.45593999997E+02  0.45594000000E+02  0.51100000000E-03 0.  1.
         23    2    1    2    0    0  0.00000000000E+00  0.35527136788E-14 -0.35527136788E-14  0.91188000000E+02  0.91188000000E+02 0.  0.
    9900012    2    3    3    0    0 -0.20826743538E+02  0.18746220511E+02  0.23887355617E+02  0.54367084908E+02  0.40000001665E+02 0.  0.
        -12    1    3    3    0    0  0.20826743538E+02 -0.18746220511E+02 -0.23887355617E+02  0.36820915092E+02  0.00000000000E+00 0.  1.
         11    1    4    4    0    0  0.59386317335E+00 -0.83368529963E+01 -0.37598860305E+01  0.91647441085E+01  0.51100000000E-03 0. -1.
        -11    1    4    4    0    0 -0.53085623122E+01  0.11588244322E+02  0.60107878293E+01  0.14092473554E+02  0.51100000000E-03 0.  1.
         12    1    4    4    0    0 -0.16112044400E+02  0.15494829185E+02  0.21636453818E+02  0.31109867245E+02  0.00000000000E+00 0. -1.
</event>
<event>
 8    1  0.1212194E-006  0.9118800E+02  0.7816164E-02  0.1184000E+00
        -11   -1    0    0    0    0  0.00000000000E+00  0.00000000000E+00  0.45593999997E+02  0.45594000000E+02  0.51100000000E-03 0.  1.
         11   -1    0    0    0    0 -0.00000000000E+00 -0.00000000000E+00 -0.45593999997E+02  0.45594000000E+02  0.51100000000E-03 0. -1.
         23    2    1    2    0    0  0.00000000000E+00 -0.88817841970E-15  0.00000000000E+00  0.91188000000E+02  0.91188000000E+02 0.  0.
    9900012    2    3    3    0    0 -0.17585147108E+02  0.30489332416E+01  0.32206303146E+02  0.54367090790E+02  0.40000015073E+02 0.  0.
         12    1    3    3    0    0  0.17585147108E+02 -0.30489332416E+01 -0.32206303146E+02  0.36820909210E+02  0.00000000000E+00 0. -1.
         11    1    4    4    0    0 -0.56975549815E+01  0.29758268541E+01 -0.32878947218E+01  0.72199674650E+01  0.51100000000E-03 0. -1.
        -11    1    4    4    0    0  0.13864383451E+01 -0.12072550153E+02  0.20002975516E+02  0.23404865055E+02  0.51100000000E-03 0.  1.
        -12    1    4    4    0    0 -0.13274030472E+02  0.12145656541E+02  0.15491222352E+02  0.23742258269E+02  0.00000000000E+00 0.  1.
</event>
<event>
 8    1  0.1212194E-006  0.9118800E+02  0.7816164E-02  0.1184000E+00
        -11   -1    0    0    0    0  0.00000000000E+00  0.00000000000E+00  0.45593999997E+02  0.45594000000E+02  0.51100000000E-03 0. -1.
         11   -1    0    0    0    0 -0.00000000000E+00 -0.00000000000E+00 -0.45593999997E+02  0.45594000000E+02  0.51100000000E-03 0.  1.
         23    2    1    2    0    0 -0.88817841970E-15  0.00000000000E+00 -0.17763568394E-14  0.91188000000E+02  0.91188000000E+02 0.  0.
    9900012    2    3    3    0    0  0.44493302277E+01  0.34044150615E+02 -0.13303363594E+02  0.54367079133E+02  0.39999988500E+02 0.  0.
         12    1    3    3    0    0 -0.44493302277E+01 -0.34044150615E+02  0.13303363594E+02  0.36820920867E+02  0.00000000000E+00 0. -1.
         11    1    4    4    0    0  0.13647410487E+02  0.50881224447E+01 -0.65479853663E+01  0.15969249063E+02  0.51100000000E-03 0. -1.
        -11    1    4    4    0    0  0.57087232913E+01  0.10963690178E+02  0.35503828777E+01  0.12860685937E+02  0.51100000000E-03 0.  1.
        -12    1    4    4    0    0 -0.14906803550E+02  0.17992337993E+02 -0.10305761105E+02  0.25537144133E+02  0.00000000000E+00 0.  1.
</event>
<event>
 8    1  0.1212194E-006  0.9118800E+02  0.7816164E-02  0.1184000E+00
        -11   -1    0    0    0    0  0.00000000000E+00  0.00000000000E+00  0.45593999997E+02  0.45594000000E+02  0.51100000000E-03 0. -1.
         11   -1    0    0    0    0 -0.00000000000E+00 -0.00000000000E+00 -0.45593999997E+02  0.45594000000E+02  0.51100000000E-03 0.  1.
         23    2    1    2    0    0  0.00000000000E+00  0.88817841970E-15  0.00000000000E+00  0.91188000000E+02  0.91188000000E+02 0.  0.
    9900012    2    3    3    0    0 -0.29557357421E+02  0.56667361755E+01  0.21213922902E+02  0.54367084728E+02  0.40000001254E+02 0.  0.
        -12    1    3    3    0    0  0.29557357421E+02 -0.56667361755E+01 -0.21213922902E+02  0.36820915272E+02  0.00000000000E+00 0.  1.
         11    1    4    4    0    0  0.77846884203E+00 -0.64523799072E+00 -0.62318484230E+01  0.63133414949E+01  0.51100000000E-03 0. -1.
        -11    1    4    4    0    0 -0.14184549980E+02 -0.89396218281E+01  0.15488852784E+02  0.22825925115E+02  0.51100000000E-03 0.  1.
         12    1    4    4    0    0 -0.16151276284E+02  0.15251595994E+02  0.11956918541E+02  0.25227818117E+02  0.00000000000E+00 0. -1.
</event>
<event>
 8    1  0.1212194E-006  0.9118800E+02  0.7816164E-02  0.1184000E+00
        -11   -1    0    0    0    0  0.00000000000E+00  0.00000000000E+00  0.45593999997E+02  0.45594000000E+02  0.51100000000E-03 0.  1.
         11   -1    0    0    0    0 -0.00000000000E+00 -0.00000000000E+00 -0.45593999997E+02  0.45594000000E+02  0.51100000000E-03 0. -1.
         23    2    1    2    0    0  0.00000000000E+00  0.00000000000E+00  0.71054273576E-14  0.91188000000E+02  0.91188000000E+02 0.  0.
    9900012    2    3    3    0    0 -0.17222481189E+02 -0.20337125249E+02  0.25407979821E+02  0.54367109730E+02  0.40000058252E+02 0.  0.
         12    1    3    3    0    0  0.17222481189E+02  0.20337125249E+02 -0.25407979821E+02  0.36820890270E+02  0.00000000000E+00 0. -1.
         11    1    4    4    0    0  0.66571043018E+00 -0.73612166440E+01 -0.48630908513E+01  0.88476174050E+01  0.51100000000E-03 0. -1.
        -11    1    4    4    0    0  0.53323314385E+00 -0.21289182947E+01  0.22752618292E+02  0.22858221062E+02  0.51100000000E-03 0.  1.
         12    1    4    4    0    0 -0.18421424763E+02 -0.10846990310E+02  0.75184523799E+01  0.22661271263E+02  0.00000000000E+00 0. -1.
</event>
<event>
 8    1  0.1212194E-006  0.9118800E+02  0.7816164E-02  0.1184000E+00
        -11   -1    0    0    0    0  0.00000000000E+00  0.00000000000E+00  0.45593999997E+02  0.45594000000E+02  0.51100000000E-03 0.  1.
         11   -1    0    0    0    0 -0.00000000000E+00 -0.00000000000E+00 -0.45593999997E+02  0.45594000000E+02  0.51100000000E-03 0. -1.
         23    2    1    2    0    0 -0.88817841970E-15 -0.35527136788E-14  0.00000000000E+00  0.91188000000E+02  0.91188000000E+02 0.  0.
    9900012    2    3    3    0    0  0.35756012773E+01  0.13059759437E+02  0.34240884581E+02  0.54367076357E+02  0.39999982170E+02 0.  0.
         12    1    3    3    0    0 -0.35756012773E+01 -0.13059759437E+02 -0.34240884581E+02  0.36820923643E+02  0.00000000000E+00 0. -1.
         11    1    4    4    0    0 -0.18177145006E+01 -0.10232242930E+02  0.83557024699E+01  0.13334940772E+02  0.51100000000E-03 0. -1.
        -11    1    4    4    0    0 -0.34374484653E+01  0.21514074954E+01  0.15237586096E+02  0.15767962343E+02  0.51100000000E-03 0.  1.
        -12    1    4    4    0    0  0.88307642433E+01  0.21140594872E+02  0.10647596015E+02  0.25264173241E+02  0.00000000000E+00 0.  1.
</event>
<event>
 8    1  0.1212194E-006  0.9118800E+02  0.7816164E-02  0.1184000E+00
        -11   -1    0    0    0    0  0.00000000000E+00  0.00000000000E+00  0.45593999997E+02  0.45594000000E+02  0.51100000000E-03 0.  1.
         11   -1    0    0    0    0 -0.00000000000E+00 -0.00000000000E+00 -0.45593999997E+02  0.45594000000E+02  0.51100000000E-03 0. -1.
         23    2    1    2    0    0  0.00000000000E+00  0.88817841970E-15  0.17763568394E-14  0.91188000000E+02  0.91188000000E+02 0.  0.
    9900012    2    3    3    0    0 -0.34028872872E+02  0.79111808074E+01 -0.11628804893E+02  0.54367081028E+02  0.39999992820E+02 0.  0.
        -12    1    3    3    0    0  0.34028872872E+02 -0.79111808074E+01  0.11628804893E+02  0.36820918972E+02  0.00000000000E+00 0.  1.
         11    1    4    4    0    0 -0.19277837672E+02  0.11066477524E+02  0.81295700077E+00  0.22243265260E+02  0.51100000000E-03 0. -1.
        -11    1    4    4    0    0  0.92351594726E+00 -0.79258581026E+00  0.69624039543E+01  0.70679659773E+01  0.51100000000E-03 0.  1.
         12    1    4    4    0    0 -0.15674551147E+02 -0.23627109062E+01 -0.19404165848E+02  0.25055849791E+02  0.00000000000E+00 0. -1.
</event>
<event>
 8    1  0.1212194E-006  0.9118800E+02  0.7816164E-02  0.1184000E+00
        -11   -1    0    0    0    0  0.00000000000E+00  0.00000000000E+00  0.45593999997E+02  0.45594000000E+02  0.51100000000E-03 0. -1.
         11   -1    0    0    0    0 -0.00000000000E+00 -0.00000000000E+00 -0.45593999997E+02  0.45594000000E+02  0.51100000000E-03 0.  1.
         23    2    1    2    0    0 -0.71054273576E-14  0.10658141036E-13 -0.17763568394E-14  0.91188000000E+02  0.91188000000E+02 0.  0.
    9900012    2    3    3    0    0 -0.23495172853E+02  0.27190507232E+02 -0.80270485440E+01  0.54367077425E+02  0.39999984607E+02 0.  0.
         12    1    3    3    0    0  0.23495172853E+02 -0.27190507232E+02  0.80270485440E+01  0.36820922575E+02  0.00000000000E+00 0. -1.
         11    1    4    4    0    0 -0.13386436057E+01 -0.24204029179E+01 -0.46595248903E+01  0.54186243136E+01  0.51100000000E-03 0. -1.
        -11    1    4    4    0    0  0.70553437954E+01  0.11541689908E+02 -0.53400655049E+01  0.14543203975E+02  0.51100000000E-03 0.  1.
         12    1    4    4    0    0 -0.29211873043E+02  0.18069220241E+02  0.19725418512E+01  0.34405249136E+02  0.00000000000E+00 0. -1.
</event>
<event>
 8    1  0.1212194E-006  0.9118800E+02  0.7816164E-02  0.1184000E+00
        -11   -1    0    0    0    0  0.00000000000E+00  0.00000000000E+00  0.45593999997E+02  0.45594000000E+02  0.51100000000E-03 0.  1.
         11   -1    0    0    0    0 -0.00000000000E+00 -0.00000000000E+00 -0.45593999997E+02  0.45594000000E+02  0.51100000000E-03 0. -1.
         23    2    1    2    0    0  0.00000000000E+00  0.35527136788E-14  0.00000000000E+00  0.91188000000E+02  0.91188000000E+02 0.  0.
    9900012    2    3    3    0    0  0.76949073300E+01 -0.30846797293E+02  0.18575331836E+02  0.54367089434E+02  0.40000011983E+02 0.  0.
         12    1    3    3    0    0 -0.76949073300E+01  0.30846797293E+02 -0.18575331836E+02  0.36820910566E+02  0.00000000000E+00 0. -1.
         11    1    4    4    0    0  0.98568634347E+01 -0.38469840202E+01 -0.45439116312E+01  0.11515388660E+02  0.51100000000E-03 0. -1.
        -11    1    4    4    0    0  0.75834550935E+01 -0.25194572486E+00  0.42306467615E+01  0.86873839610E+01  0.51100000000E-03 0.  1.
        -12    1    4    4    0    0 -0.97454111982E+01 -0.26747867548E+02  0.18888596705E+02  0.34164316813E+02  0.00000000000E+00 0.  1.
</event>
<event>
 8    1  0.1212194E-006  0.9118800E+02  0.7816164E-02  0.1184000E+00
        -11   -1    0    0    0    0  0.00000000000E+00  0.00000000000E+00  0.45593999997E+02  0.45594000000E+02  0.51100000000E-03 0. -1.
         11   -1    0    0    0    0 -0.00000000000E+00 -0.00000000000E+00 -0.45593999997E+02  0.45594000000E+02  0.51100000000E-03 0.  1.
         23    2    1    2    0    0 -0.17763568394E-14  0.00000000000E+00  0.00000000000E+00  0.91188000000E+02  0.91188000000E+02 0.  0.
    9900012    2    3    3    0    0  0.88464656854E+01  0.32618927879E+02 -0.14612525745E+02  0.54367077690E+02  0.39999985210E+02 0.  0.
         12    1    3    3    0    0 -0.88464656854E+01 -0.32618927879E+02  0.14612525745E+02  0.36820922310E+02  0.00000000000E+00 0. -1.
         11    1    4    4    0    0  0.21038676285E+02  0.27795243981E+02 -0.16229034051E+02  0.38452347578E+02  0.51100000000E-03 0. -1.
        -11    1    4    4    0    0 -0.46614354513E+01 -0.23452601826E+01 -0.69277592739E+00  0.52639495189E+01  0.51100000000E-03 0.  1.
         12    1    4    4    0    0 -0.75307751480E+01  0.71689440810E+01  0.23092842338E+01  0.10650780593E+02  0.00000000000E+00 0. -1.
</event>
<event>
 8    1  0.1212194E-006  0.9118800E+02  0.7816164E-02  0.1184000E+00
        -11   -1    0    0    0    0  0.00000000000E+00  0.00000000000E+00  0.45593999997E+02  0.45594000000E+02  0.51100000000E-03 0.  1.
         11   -1    0    0    0    0 -0.00000000000E+00 -0.00000000000E+00 -0.45593999997E+02  0.45594000000E+02  0.51100000000E-03 0. -1.
         23    2    1    2    0    0  0.88817841970E-15 -0.35527136788E-14 -0.35527136788E-14  0.91188000000E+02  0.91188000000E+02 0.  0.
    9900012    2    3    3    0    0 -0.43156367761E+01  0.19372379319E+02  0.31013967480E+02  0.54367082302E+02  0.39999995725E+02 0.  0.
         12    1    3    3    0    0  0.43156367761E+01 -0.19372379319E+02 -0.31013967480E+02  0.36820917698E+02  0.00000000000E+00 0. -1.
         11    1    4    4    0    0 -0.53750031272E+00 -0.39507318963E+01 -0.35073132127E+01  0.53102198952E+01  0.51100000000E-03 0. -1.
        -11    1    4    4    0    0  0.72852200146E+01 -0.13180034199E+01  0.10887548546E+02  0.13166255249E+02  0.51100000000E-03 0.  1.
        -12    1    4    4    0    0 -0.11063356478E+02  0.24641114635E+02  0.23633732147E+02  0.35890607158E+02  0.00000000000E+00 0.  1.
</event>
<event>
 8    1  0.1212194E-006  0.9118800E+02  0.7816164E-02  0.1184000E+00
        -11   -1    0    0    0    0  0.00000000000E+00  0.00000000000E+00  0.45593999997E+02  0.45594000000E+02  0.51100000000E-03 0. -1.
         11   -1    0    0    0    0 -0.00000000000E+00 -0.00000000000E+00 -0.45593999997E+02  0.45594000000E+02  0.51100000000E-03 0.  1.
         23    2    1    2    0    0  0.11102230246E-15  0.00000000000E+00 -0.35527136788E-14  0.91188000000E+02  0.91188000000E+02 0.  0.
    9900012    2    3    3    0    0 -0.75914020223E+00 -0.33593891674E+02  0.15055084159E+02  0.54367062876E+02  0.39999951438E+02 0.  0.
        -12    1    3    3    0    0  0.75914020223E+00  0.33593891674E+02 -0.15055084159E+02  0.36820937124E+02  0.00000000000E+00 0.  1.
         11    1    4    4    0    0  0.97672725998E+01 -0.30712436799E+02  0.18627139008E+02  0.37223966689E+02  0.51100000000E-03 0. -1.
        -11    1    4    4    0    0  0.21347598384E+01  0.21730680223E+01 -0.13435410314E+01  0.33293433228E+01  0.51100000000E-03 0.  1.
         12    1    4    4    0    0 -0.12661172640E+02 -0.50545228968E+01 -0.22285138178E+01  0.13813752864E+02  0.00000000000E+00 0. -1.
</event>
<event>
 8    1  0.1212194E-006  0.9118800E+02  0.7816164E-02  0.1184000E+00
        -11   -1    0    0    0    0  0.00000000000E+00  0.00000000000E+00  0.45593999997E+02  0.45594000000E+02  0.51100000000E-03 0. -1.
         11   -1    0    0    0    0 -0.00000000000E+00 -0.00000000000E+00 -0.45593999997E+02  0.45594000000E+02  0.51100000000E-03 0.  1.
         23    2    1    2    0    0 -0.26645352591E-14  0.00000000000E+00  0.35527136788E-14  0.91188000000E+02  0.91188000000E+02 0.  0.
    9900012    2    3    3    0    0  0.62322999949E+01 -0.33589231504E+02 -0.13736927017E+02  0.54367065736E+02  0.39999957958E+02 0.  0.
         12    1    3    3    0    0 -0.62322999949E+01  0.33589231504E+02  0.13736927017E+02  0.36820934264E+02  0.00000000000E+00 0. -1.
         11    1    4    4    0    0 -0.34632213427E+01 -0.21471893359E+02 -0.30032105636E+01  0.21955759619E+02  0.51100000000E-03 0. -1.
        -11    1    4    4    0    0  0.16621966901E+02 -0.88901890428E+01 -0.14604322874E+02  0.23845575936E+02  0.51100000000E-03 0.  1.
         12    1    4    4    0    0 -0.69264455632E+01 -0.32271491020E+01  0.38706064206E+01  0.85657301808E+01  0.00000000000E+00 0. -1.
</event>
<event>
 8    1  0.1212194E-006  0.9118800E+02  0.7816164E-02  0.1184000E+00
        -11   -1    0    0    0    0  0.00000000000E+00  0.00000000000E+00  0.45593999997E+02  0.45594000000E+02  0.51100000000E-03 0. -1.
         11   -1    0    0    0    0 -0.00000000000E+00 -0.00000000000E+00 -0.45593999997E+02  0.45594000000E+02  0.51100000000E-03 0.  1.
         23    2    1    2    0    0  0.00000000000E+00  0.00000000000E+00  0.00000000000E+00  0.91188000000E+02  0.91188000000E+02 0.  0.
    9900012    2    3    3    0    0  0.20649650060E+02 -0.26257627574E+02  0.15488890702E+02  0.54367125641E+02  0.40000094523E+02 0.  0.
        -12    1    3    3    0    0 -0.20649650060E+02  0.26257627574E+02 -0.15488890702E+02  0.36820874359E+02  0.00000000000E+00 0.  1.
         11    1    4    4    0    0  0.96900156101E+01 -0.18185389775E+02  0.76050004595E+01  0.21964535871E+02  0.51100000000E-03 0. -1.
        -11    1    4    4    0    0  0.54819330306E+01 -0.17874406720E+02  0.96434501968E+01  0.21036685511E+02  0.51100000000E-03 0.  1.
        -12    1    4    4    0    0  0.54777014194E+01  0.98021689204E+01 -0.17595599542E+01  0.11365904259E+02  0.00000000000E+00 0.  1.
</event>
<event>
 8    1  0.1212194E-006  0.9118800E+02  0.7816164E-02  0.1184000E+00
        -11   -1    0    0    0    0  0.00000000000E+00  0.00000000000E+00  0.45593999997E+02  0.45594000000E+02  0.51100000000E-03 0.  1.
         11   -1    0    0    0    0 -0.00000000000E+00 -0.00000000000E+00 -0.45593999997E+02  0.45594000000E+02  0.51100000000E-03 0. -1.
         23    2    1    2    0    0 -0.35527136788E-14  0.00000000000E+00 -0.71054273576E-14  0.91188000000E+02  0.91188000000E+02 0.  0.
    9900012    2    3    3    0    0  0.22996887528E+02  0.48929526598E+01  0.28336937881E+02  0.54367083795E+02  0.39999999128E+02 0.  0.
         12    1    3    3    0    0 -0.22996887528E+02 -0.48929526598E+01 -0.28336937881E+02  0.36820916205E+02  0.00000000000E+00 0. -1.
         11    1    4    4    0    0 -0.11221009005E+01  0.89792813526E+01 -0.57627949356E+01  0.10728299482E+02  0.51100000000E-03 0. -1.
        -11    1    4    4    0    0  0.10772197676E+02 -0.77713673721E+01  0.18588720718E+02  0.22846770708E+02  0.51100000000E-03 0.  1.
         12    1    4    4    0    0  0.13346790753E+02  0.36850386793E+01  0.15511012098E+02  0.20792013605E+02  0.00000000000E+00 0. -1.
</event>
<event>
 8    1  0.1212194E-006  0.9118800E+02  0.7816164E-02  0.1184000E+00
        -11   -1    0    0    0    0  0.00000000000E+00  0.00000000000E+00  0.45593999997E+02  0.45594000000E+02  0.51100000000E-03 0. -1.
         11   -1    0    0    0    0 -0.00000000000E+00 -0.00000000000E+00 -0.45593999997E+02  0.45594000000E+02  0.51100000000E-03 0.  1.
         23    2    1    2    0    0  0.00000000000E+00 -0.35527136788E-14  0.00000000000E+00  0.91188000000E+02  0.91188000000E+02 0.  0.
    9900012    2    3    3    0    0  0.15535298291E+02  0.29631905990E+02 -0.15374775710E+02  0.54367094611E+02  0.40000023784E+02 0.  0.
         12    1    3    3    0    0 -0.15535298291E+02 -0.29631905990E+02  0.15374775710E+02  0.36820905389E+02  0.00000000000E+00 0. -1.
         11    1    4    4    0    0 -0.30327853421E+00  0.18203689242E+01 -0.14971308436E+02  0.15084621222E+02  0.51100000000E-03 0. -1.
        -11    1    4    4    0    0  0.80759227579E+01  0.21619707628E+02 -0.10291271978E+02  0.25269399785E+02  0.51100000000E-03 0.  1.
         12    1    4    4    0    0  0.77626540673E+01  0.61918294374E+01  0.98878047039E+01  0.14013073603E+02  0.00000000000E+00 0. -1.
</event>
<event>
 8    1  0.1212194E-006  0.9118800E+02  0.7816164E-02  0.1184000E+00
        -11   -1    0    0    0    0  0.00000000000E+00  0.00000000000E+00  0.45593999997E+02  0.45594000000E+02  0.51100000000E-03 0. -1.
         11   -1    0    0    0    0 -0.00000000000E+00 -0.00000000000E+00 -0.45593999997E+02  0.45594000000E+02  0.51100000000E-03 0.  1.
         23    2    1    2    0    0  0.11657341759E-14 -0.35527136788E-14  0.35527136788E-14  0.91188000000E+02  0.91188000000E+02 0.  0.
    9900012    2    3    3    0    0 -0.46941772759E+00 -0.29033003819E+02  0.22641683477E+02  0.54367061739E+02  0.39999948846E+02 0.  0.
        -12    1    3    3    0    0  0.46941772759E+00  0.29033003819E+02 -0.22641683477E+02  0.36820938261E+02  0.00000000000E+00 0.  1.
         11    1    4    4    0    0  0.11457708211E+02 -0.25013501081E+01  0.20667899342E+02  0.23763372936E+02  0.51100000000E-03 0. -1.
        -11    1    4    4    0    0 -0.12754912252E+02 -0.19098202519E+02  0.25238472841E+01  0.23104089062E+02  0.51100000000E-03 0.  1.
         12    1    4    4    0    0  0.82778631321E+00 -0.74334511922E+01 -0.55006314967E+00  0.74995997410E+01  0.00000000000E+00 0. -1.
</event>
<event>
 8    1  0.1212194E-006  0.9118800E+02  0.7816164E-02  0.1184000E+00
        -11   -1    0    0    0    0  0.00000000000E+00  0.00000000000E+00  0.45593999997E+02  0.45594000000E+02  0.51100000000E-03 0.  1.
         11   -1    0    0    0    0 -0.00000000000E+00 -0.00000000000E+00 -0.45593999997E+02  0.45594000000E+02  0.51100000000E-03 0. -1.
         23    2    1    2    0    0  0.17763568394E-14  0.00000000000E+00  0.35527136788E-14  0.91188000000E+02  0.91188000000E+02 0.  0.
    9900012    2    3    3    0    0  0.12247157453E+02 -0.14183251877E+02 -0.31695698499E+02  0.54367152606E+02  0.40000155995E+02 0.  0.
        -12    1    3    3    0    0 -0.12247157453E+02  0.14183251877E+02  0.31695698499E+02  0.36820847394E+02  0.00000000000E+00 0.  1.
         11    1    4    4    0    0 -0.92689666237E+00 -0.65476314291E+01 -0.15020572203E+02  0.16411831230E+02  0.51100000000E-03 0. -1.
        -11    1    4    4    0    0 -0.43684186987E+01 -0.13285241564E+02 -0.13139947548E+02  0.19189553073E+02  0.51100000000E-03 0.  1.
        -12    1    4    4    0    0  0.17542472814E+02  0.56496211159E+01 -0.35351787482E+01  0.18765768302E+02  0.00000000000E+00 0.  1.
</event>
<event>
 8    1  0.1212194E-006  0.9118800E+02  0.7816164E-02  0.1184000E+00
        -11   -1    0    0    0    0  0.00000000000E+00  0.00000000000E+00  0.45593999997E+02  0.45594000000E+02  0.51100000000E-03 0.  1.
         11   -1    0    0    0    0 -0.00000000000E+00 -0.00000000000E+00 -0.45593999997E+02  0.45594000000E+02  0.51100000000E-03 0. -1.
         23    2    1    2    0    0  0.35527136788E-14 -0.71054273576E-14 -0.17763568394E-14  0.91188000000E+02  0.91188000000E+02 0.  0.
    9900012    2    3    3    0    0  0.12620749321E+02 -0.32117053807E+02 -0.12844883116E+02  0.54367089080E+02  0.40000011176E+02 0.  0.
        -12    1    3    3    0    0 -0.12620749321E+02  0.32117053807E+02  0.12844883116E+02  0.36820910920E+02  0.00000000000E+00 0.  1.
         11    1    4    4    0    0  0.10823159792E+02 -0.30140736571E+02 -0.15709532921E+02  0.35670635175E+02  0.51100000000E-03 0. -1.
        -11    1    4    4    0    0  0.68626251228E+00 -0.10176872140E+02  0.15391456937E+01  0.10315456971E+02  0.51100000000E-03 0.  1.
         12    1    4    4    0    0  0.11113270173E+01  0.82005549036E+01  0.13255041114E+01  0.83809969345E+01  0.00000000000E+00 0. -1.
</event>
<event>
 8    1  0.1212194E-006  0.9118800E+02  0.7816164E-02  0.1184000E+00
        -11   -1    0    0    0    0  0.00000000000E+00  0.00000000000E+00  0.45593999997E+02  0.45594000000E+02  0.51100000000E-03 0. -1.
         11   -1    0    0    0    0 -0.00000000000E+00 -0.00000000000E+00 -0.45593999997E+02  0.45594000000E+02  0.51100000000E-03 0.  1.
         23    2    1    2    0    0 -0.35527136788E-14 -0.13322676296E-14 -0.35527136788E-14  0.91188000000E+02  0.91188000000E+02 0.  0.
    9900012    2    3    3    0    0 -0.20715955569E+02 -0.25625300948E+01 -0.30332523928E+02  0.54367090404E+02  0.40000014194E+02 0.  0.
         12    1    3    3    0    0  0.20715955569E+02  0.25625300948E+01  0.30332523928E+02  0.36820909596E+02  0.00000000000E+00 0. -1.
         11    1    4    4    0    0 -0.18813292030E+02  0.59066698525E+01 -0.12921728530E+02  0.23575406130E+02  0.51100000000E-03 0. -1.
        -11    1    4    4    0    0 -0.35244603252E+01  0.59233062773E+01 -0.14448403703E+02  0.16008239993E+02  0.51100000000E-03 0.  1.
        -12    1    4    4    0    0  0.16217967866E+01 -0.14392506225E+02 -0.29623916952E+01  0.14783444281E+02  0.00000000000E+00 0.  1.
</event>
<event>
 8    1  0.1212194E-006  0.9118800E+02  0.7816164E-02  0.1184000E+00
        -11   -1    0    0    0    0  0.00000000000E+00  0.00000000000E+00  0.45593999997E+02  0.45594000000E+02  0.51100000000E-03 0. -1.
         11   -1    0    0    0    0 -0.00000000000E+00 -0.00000000000E+00 -0.45593999997E+02  0.45594000000E+02  0.51100000000E-03 0.  1.
         23    2    1    2    0    0  0.00000000000E+00 -0.35527136788E-14  0.35527136788E-14  0.91188000000E+02  0.91188000000E+02 0.  0.
    9900012    2    3    3    0    0  0.24346980166E+02  0.21047553854E+02  0.17889161114E+02  0.54366850482E+02  0.39999467241E+02 0.  0.
        -12    1    3    3    0    0 -0.24346980166E+02 -0.21047553854E+02 -0.17889161114E+02  0.36821149518E+02  0.00000000000E+00 0.  1.
         11    1    4    4    0    0  0.26420800988E+00  0.15105530419E+02  0.23469072216E+01  0.15289042772E+02  0.51100000000E-03 0. -1.
        -11    1    4    4    0    0  0.69415012563E+01  0.44764358607E+00 -0.72417087088E+01  0.10041273314E+02  0.51100000000E-03 0.  1.
        -12    1    4    4    0    0  0.17141270900E+02  0.54943798490E+01  0.22783962601E+02  0.29036534397E+02  0.00000000000E+00 0.  1.
</event>
<event>
 8    1  0.1212194E-006  0.9118800E+02  0.7816164E-02  0.1184000E+00
        -11   -1    0    0    0    0  0.00000000000E+00  0.00000000000E+00  0.45593999997E+02  0.45594000000E+02  0.51100000000E-03 0.  1.
         11   -1    0    0    0    0 -0.00000000000E+00 -0.00000000000E+00 -0.45593999997E+02  0.45594000000E+02  0.51100000000E-03 0. -1.
         23    2    1    2    0    0  0.35527136788E-14 -0.17763568394E-14  0.00000000000E+00  0.91188000000E+02  0.91188000000E+02 0.  0.
    9900012    2    3    3    0    0 -0.25670128314E+02 -0.62901126355E+01 -0.25637069788E+02  0.54367077253E+02  0.39999984214E+02 0.  0.
        -12    1    3    3    0    0  0.25670128314E+02  0.62901126355E+01  0.25637069788E+02  0.36820922747E+02  0.00000000000E+00 0.  1.
         11    1    4    4    0    0 -0.20205245829E+02  0.50314257046E+01 -0.27599666935E+02  0.34573238477E+02  0.51100000000E-03 0. -1.
        -11    1    4    4    0    0  0.51620142699E+01 -0.53403910096E+01  0.15787694952E+01  0.75933313400E+01  0.51100000000E-03 0.  1.
         12    1    4    4    0    0 -0.10626896755E+02 -0.59811473305E+01  0.38382765143E+00  0.12200507436E+02  0.00000000000E+00 0. -1.
</event>
<event>
 8    1  0.1212194E-006  0.9118800E+02  0.7816164E-02  0.1184000E+00
        -11   -1    0    0    0    0  0.00000000000E+00  0.00000000000E+00  0.45593999997E+02  0.45594000000E+02  0.51100000000E-03 0. -1.
         11   -1    0    0    0    0 -0.00000000000E+00 -0.00000000000E+00 -0.45593999997E+02  0.45594000000E+02  0.51100000000E-03 0.  1.
         23    2    1    2    0    0  0.00000000000E+00  0.00000000000E+00 -0.35527136788E-14  0.91188000000E+02  0.91188000000E+02 0.  0.
    9900012    2    3    3    0    0 -0.24009036177E+02  0.20072981672E+02 -0.19401585174E+02  0.54367083137E+02  0.39999997628E+02 0.  0.
        -12    1    3    3    0    0  0.24009036177E+02 -0.20072981672E+02  0.19401585174E+02  0.36820916863E+02  0.00000000000E+00 0.  1.
         11    1    4    4    0    0 -0.15030128415E+02  0.10183329059E+02 -0.57954752095E+01  0.19057609610E+02  0.51100000000E-03 0. -1.
        -11    1    4    4    0    0 -0.25146514737E+01  0.22453785386E+01 -0.21992799786E+02  0.22249684032E+02  0.51100000000E-03 0.  1.
        -12    1    4    4    0    0 -0.64642562892E+01  0.76442740735E+01  0.83866898223E+01  0.13059789495E+02  0.00000000000E+00 0.  1.
</event>
<event>
 8    1  0.1212194E-006  0.9118800E+02  0.7816164E-02  0.1184000E+00
        -11   -1    0    0    0    0  0.00000000000E+00  0.00000000000E+00  0.45593999997E+02  0.45594000000E+02  0.51100000000E-03 0. -1.
         11   -1    0    0    0    0 -0.00000000000E+00 -0.00000000000E+00 -0.45593999997E+02  0.45594000000E+02  0.51100000000E-03 0.  1.
         23    2    1    2    0    0  0.22204460493E-15  0.17763568394E-14  0.00000000000E+00  0.91188000000E+02  0.91188000000E+02 0.  0.
    9900012    2    3    3    0    0 -0.64022597188E+00 -0.13370757655E+02  0.34301484089E+02  0.54367097509E+02  0.40000030390E+02 0.  0.
        -12    1    3    3    0    0  0.64022597188E+00  0.13370757655E+02 -0.34301484089E+02  0.36820902491E+02  0.00000000000E+00 0.  1.
         11    1    4    4    0    0  0.78948002103E+00 -0.88554061496E+00  0.21742683155E+02  0.21775025417E+02  0.51100000000E-03 0. -1.
        -11    1    4    4    0    0  0.12556117556E+02 -0.22862673938E+01  0.55606286501E+01  0.13921339660E+02  0.51100000000E-03 0.  1.
         12    1    4    4    0    0 -0.13985823549E+02 -0.10198949646E+02  0.69981722845E+01  0.18670732432E+02  0.00000000000E+00 0. -1.
</event>
<event>
 8    1  0.1212194E-006  0.9118800E+02  0.7816164E-02  0.1184000E+00
        -11   -1    0    0    0    0  0.00000000000E+00  0.00000000000E+00  0.45593999997E+02  0.45594000000E+02  0.51100000000E-03 0.  1.
         11   -1    0    0    0    0 -0.00000000000E+00 -0.00000000000E+00 -0.45593999997E+02  0.45594000000E+02  0.51100000000E-03 0. -1.
         23    2    1    2    0    0  0.00000000000E+00  0.00000000000E+00  0.35527136788E-14  0.91188000000E+02  0.91188000000E+02 0.  0.
    9900012    2    3    3    0    0  0.23047094786E+02  0.16477759117E+02 -0.23517955571E+02  0.54367090752E+02  0.40000014988E+02 0.  0.
        -12    1    3    3    0    0 -0.23047094786E+02 -0.16477759117E+02  0.23517955571E+02  0.36820909248E+02  0.00000000000E+00 0.  1.
         11    1    4    4    0    0  0.16754487876E+02 -0.19311165853E+01 -0.20700322770E+02  0.26701038150E+02  0.51100000000E-03 0. -1.
        -11    1    4    4    0    0  0.12210769944E+02  0.89431290024E+01 -0.56384728878E+01  0.16151620221E+02  0.51100000000E-03 0.  1.
         12    1    4    4    0    0 -0.59181630340E+01  0.94657466998E+01  0.28208400861E+01  0.11514432382E+02  0.00000000000E+00 0. -1.
</event>
<event>
 8    1  0.1212194E-006  0.9118800E+02  0.7816164E-02  0.1184000E+00
        -11   -1    0    0    0    0  0.00000000000E+00  0.00000000000E+00  0.45593999997E+02  0.45594000000E+02  0.51100000000E-03 0.  1.
         11   -1    0    0    0    0 -0.00000000000E+00 -0.00000000000E+00 -0.45593999997E+02  0.45594000000E+02  0.51100000000E-03 0. -1.
         23    2    1    2    0    0 -0.35527136788E-14 -0.35527136788E-14 -0.44408920985E-15  0.91188000000E+02  0.91188000000E+02 0.  0.
    9900012    2    3    3    0    0  0.30280382419E+02  0.20925475136E+02  0.10012653720E+01  0.54367087444E+02  0.40000007447E+02 0.  0.
         12    1    3    3    0    0 -0.30280382419E+02 -0.20925475136E+02 -0.10012653720E+01  0.36820912556E+02  0.00000000000E+00 0. -1.
         11    1    4    4    0    0  0.83904105806E+01 -0.34731047376E+01  0.93349334890E+00  0.91286831648E+01  0.51100000000E-03 0. -1.
        -11    1    4    4    0    0  0.28862678028E+02  0.14731047791E+02 -0.39846123330E+01  0.32648661346E+02  0.51100000000E-03 0.  1.
         12    1    4    4    0    0 -0.69727061895E+01  0.96675320822E+01  0.40523843561E+01  0.12589742934E+02  0.00000000000E+00 0. -1.
</event>
<event>
 8    1  0.1212194E-006  0.9118800E+02  0.7816164E-02  0.1184000E+00
        -11   -1    0    0    0    0  0.00000000000E+00  0.00000000000E+00  0.45593999997E+02  0.45594000000E+02  0.51100000000E-03 0. -1.
         11   -1    0    0    0    0 -0.00000000000E+00 -0.00000000000E+00 -0.45593999997E+02  0.45594000000E+02  0.51100000000E-03 0.  1.
         23    2    1    2    0    0  0.00000000000E+00  0.00000000000E+00 -0.35527136788E-14  0.91188000000E+02  0.91188000000E+02 0.  0.
    9900012    2    3    3    0    0  0.22422593394E+02 -0.17518322216E+02 -0.23368928493E+02  0.54367202526E+02  0.40000269797E+02 0.  0.
         12    1    3    3    0    0 -0.22422593394E+02  0.17518322216E+02  0.23368928493E+02  0.36820797474E+02  0.00000000000E+00 0. -1.
         11    1    4    4    0    0 -0.13405478310E+01 -0.97373411133E+01 -0.59576835615E+01  0.11493775451E+02  0.51100000000E-03 0. -1.
        -11    1    4    4    0    0  0.68378450589E+01 -0.17462979485E+01 -0.22997640299E+02  0.24056124816E+02  0.51100000000E-03 0.  1.
         12    1    4    4    0    0  0.16925296166E+02 -0.60346831540E+01  0.55863953681E+01  0.18817302258E+02  0.00000000000E+00 0. -1.
</event>
<event>
 8    1  0.1212194E-006  0.9118800E+02  0.7816164E-02  0.1184000E+00
        -11   -1    0    0    0    0  0.00000000000E+00  0.00000000000E+00  0.45593999997E+02  0.45594000000E+02  0.51100000000E-03 0.  1.
         11   -1    0    0    0    0 -0.00000000000E+00 -0.00000000000E+00 -0.45593999997E+02  0.45594000000E+02  0.51100000000E-03 0. -1.
         23    2    1    2    0    0  0.00000000000E+00  0.35527136788E-14 -0.88817841970E-15  0.91188000000E+02  0.91188000000E+02 0.  0.
    9900012    2    3    3    0    0  0.27599890302E+02  0.24104998046E+02  0.36019337213E+01  0.54367098300E+02  0.40000032194E+02 0.  0.
         12    1    3    3    0    0 -0.27599890302E+02 -0.24104998046E+02 -0.36019337213E+01  0.36820901700E+02  0.00000000000E+00 0. -1.
         11    1    4    4    0    0  0.26767708704E+02  0.40697123505E+01 -0.44557338727E+01  0.27439503503E+02  0.51100000000E-03 0. -1.
        -11    1    4    4    0    0  0.64538057709E+01  0.10809288869E+02 -0.12713611741E+01  0.12653406430E+02  0.51100000000E-03 0.  1.
         12    1    4    4    0    0 -0.56216241726E+01  0.92259968269E+01  0.93290287682E+01  0.14274188367E+02  0.00000000000E+00 0. -1.
</event>
<event>
 8    1  0.1212194E-006  0.9118800E+02  0.7816164E-02  0.1184000E+00
        -11   -1    0    0    0    0  0.00000000000E+00  0.00000000000E+00  0.45593999997E+02  0.45594000000E+02  0.51100000000E-03 0.  1.
         11   -1    0    0    0    0 -0.00000000000E+00 -0.00000000000E+00 -0.45593999997E+02  0.45594000000E+02  0.51100000000E-03 0. -1.
         23    2    1    2    0    0 -0.35527136788E-14  0.00000000000E+00  0.00000000000E+00  0.91188000000E+02  0.91188000000E+02 0.  0.
    9900012    2    3    3    0    0  0.26975967098E+02 -0.43638633811E+01 -0.24678608888E+02  0.54367084190E+02  0.40000000027E+02 0.  0.
        -12    1    3    3    0    0 -0.26975967098E+02  0.43638633811E+01  0.24678608888E+02  0.36820915810E+02  0.00000000000E+00 0.  1.
         11    1    4    4    0    0  0.13756942281E+01 -0.83095147029E+01 -0.10192183749E+02  0.13221996031E+02  0.51100000000E-03 0. -1.
        -11    1    4    4    0    0 -0.41169519327E+01  0.72385340564E+01 -0.11498547598E+01  0.84064162836E+01  0.51100000000E-03 0.  1.
         12    1    4    4    0    0  0.29717224802E+02 -0.32928827346E+01 -0.13336570379E+02  0.32738671875E+02  0.00000000000E+00 0. -1.
</event>
<event>
 8    1  0.1212194E-006  0.9118800E+02  0.7816164E-02  0.1184000E+00
        -11   -1    0    0    0    0  0.00000000000E+00  0.00000000000E+00  0.45593999997E+02  0.45594000000E+02  0.51100000000E-03 0. -1.
         11   -1    0    0    0    0 -0.00000000000E+00 -0.00000000000E+00 -0.45593999997E+02  0.45594000000E+02  0.51100000000E-03 0.  1.
         23    2    1    2    0    0  0.00000000000E+00 -0.13322676296E-14 -0.35527136788E-14  0.91188000000E+02  0.91188000000E+02 0.  0.
    9900012    2    3    3    0    0 -0.25589954608E+02 -0.39564653054E+01  0.26177858359E+02  0.54367086611E+02  0.40000005546E+02 0.  0.
        -12    1    3    3    0    0  0.25589954608E+02  0.39564653054E+01 -0.26177858359E+02  0.36820913389E+02  0.00000000000E+00 0.  1.
         11    1    4    4    0    0 -0.23964116803E+01 -0.51296585481E+01  0.17011765723E+01  0.59118683809E+01  0.51100000000E-03 0. -1.
        -11    1    4    4    0    0 -0.17746307986E+02  0.16446481461E+02  0.83765266062E+01  0.25604382395E+02  0.51100000000E-03 0.  1.
        -12    1    4    4    0    0 -0.54472349416E+01 -0.15273288218E+02  0.16100155181E+02  0.22850835835E+02  0.00000000000E+00 0.  1.
</event>
<event>
 8    1  0.1212194E-006  0.9118800E+02  0.7816164E-02  0.1184000E+00
        -11   -1    0    0    0    0  0.00000000000E+00  0.00000000000E+00  0.45593999997E+02  0.45594000000E+02  0.51100000000E-03 0.  1.
         11   -1    0    0    0    0 -0.00000000000E+00 -0.00000000000E+00 -0.45593999997E+02  0.45594000000E+02  0.51100000000E-03 0. -1.
         23    2    1    2    0    0  0.00000000000E+00  0.35527136788E-14  0.88817841970E-15  0.91188000000E+02  0.91188000000E+02 0.  0.
    9900012    2    3    3    0    0 -0.32498897641E+02  0.17051272680E+02  0.29758028850E+01  0.54367086775E+02  0.40000005922E+02 0.  0.
        -12    1    3    3    0    0  0.32498897641E+02 -0.17051272680E+02 -0.29758028850E+01  0.36820913225E+02  0.00000000000E+00 0.  1.
         11    1    4    4    0    0 -0.18503097609E+02  0.44118123109E+01  0.18532483208E+02  0.26557139211E+02  0.51100000000E-03 0. -1.
        -11    1    4    4    0    0  0.87646131790E+00 -0.10795510312E+01 -0.45889961540E+01  0.47950496174E+01  0.51100000000E-03 0.  1.
         12    1    4    4    0    0 -0.14872261350E+02  0.13719011400E+02 -0.10967684169E+02  0.23014897947E+02  0.00000000000E+00 0. -1.
</event>
<event>
 8    1  0.1212194E-006  0.9118800E+02  0.7816164E-02  0.1184000E+00
        -11   -1    0    0    0    0  0.00000000000E+00  0.00000000000E+00  0.45593999997E+02  0.45594000000E+02  0.51100000000E-03 0. -1.
         11   -1    0    0    0    0 -0.00000000000E+00 -0.00000000000E+00 -0.45593999997E+02  0.45594000000E+02  0.51100000000E-03 0.  1.
         23    2    1    2    0    0  0.00000000000E+00  0.00000000000E+00 -0.17763568394E-14  0.91188000000E+02  0.91188000000E+02 0.  0.
    9900012    2    3    3    0    0  0.35323371963E+02 -0.49620867550E+01  0.91332810511E+01  0.54367085637E+02  0.40000003326E+02 0.  0.
        -12    1    3    3    0    0 -0.35323371963E+02  0.49620867550E+01 -0.91332810511E+01  0.36820914363E+02  0.00000000000E+00 0.  1.
         11    1    4    4    0    0 -0.28707997738E+01 -0.11440660602E+02 -0.15495377673E+01  0.11896691721E+02  0.51100000000E-03 0.  1.
        -11    1    4    4    0    0  0.14647497173E+02 -0.31099068635E+01  0.77989560859E+01  0.16883258288E+02  0.51100000000E-03 0. -1.
        -12    1    4    4    0    0  0.23546674564E+02  0.95884807107E+01  0.28838627325E+01  0.25587135628E+02  0.00000000000E+00 0.  1.
</event>
<event>
 8    1  0.1212194E-006  0.9118800E+02  0.7816164E-02  0.1184000E+00
        -11   -1    0    0    0    0  0.00000000000E+00  0.00000000000E+00  0.45593999997E+02  0.45594000000E+02  0.51100000000E-03 0.  1.
         11   -1    0    0    0    0 -0.00000000000E+00 -0.00000000000E+00 -0.45593999997E+02  0.45594000000E+02  0.51100000000E-03 0. -1.
         23    2    1    2    0    0  0.35527136788E-14 -0.17763568394E-14  0.14210854715E-13  0.91188000000E+02  0.91188000000E+02 0.  0.
    9900012    2    3    3    0    0  0.17494243825E+02 -0.13001214734E+02  0.29676576220E+02  0.54367091161E+02  0.40000015921E+02 0.  0.
         12    1    3    3    0    0 -0.17494243825E+02  0.13001214734E+02 -0.29676576220E+02  0.36820908839E+02  0.00000000000E+00 0. -1.
         11    1    4    4    0    0  0.26524611592E+01 -0.14872210993E+02  0.32963373535E+01  0.15462342974E+02  0.51100000000E-03 0. -1.
        -11    1    4    4    0    0 -0.26164572588E+01 -0.80775851976E+01  0.73664759992E+01  0.11240916338E+02  0.51100000000E-03 0.  1.
        -12    1    4    4    0    0  0.17458239925E+02  0.99485814564E+01  0.19013762867E+02  0.27663831850E+02  0.00000000000E+00 0.  1.
</event>
<event>
 8    1  0.1212194E-006  0.9118800E+02  0.7816164E-02  0.1184000E+00
        -11   -1    0    0    0    0  0.00000000000E+00  0.00000000000E+00  0.45593999997E+02  0.45594000000E+02  0.51100000000E-03 0. -1.
         11   -1    0    0    0    0 -0.00000000000E+00 -0.00000000000E+00 -0.45593999997E+02  0.45594000000E+02  0.51100000000E-03 0.  1.
         23    2    1    2    0    0  0.00000000000E+00  0.00000000000E+00  0.35527136788E-14  0.91188000000E+02  0.91188000000E+02 0.  0.
    9900012    2    3    3    0    0 -0.30779995626E+02 -0.89512712107E+01 -0.18117728923E+02  0.54367007504E+02  0.39999825207E+02 0.  0.
         12    1    3    3    0    0  0.30779995626E+02  0.89512712107E+01  0.18117728923E+02  0.36820992496E+02  0.00000000000E+00 0. -1.
         11    1    4    4    0    0  0.81141363601E+01  0.39358169604E+01 -0.32566293731E+01  0.95883001179E+01  0.51100000000E-03 0. -1.
        -11    1    4    4    0    0 -0.21854932566E+02 -0.11326046386E+02 -0.53052479970E+01  0.25180608825E+02  0.51100000000E-03 0.  1.
         12    1    4    4    0    0 -0.17039199420E+02 -0.15610417852E+01 -0.95558515529E+01  0.19598098562E+02  0.00000000000E+00 0. -1.
</event>
<event>
 8    1  0.1212194E-006  0.9118800E+02  0.7816164E-02  0.1184000E+00
        -11   -1    0    0    0    0  0.00000000000E+00  0.00000000000E+00  0.45593999997E+02  0.45594000000E+02  0.51100000000E-03 0.  1.
         11   -1    0    0    0    0 -0.00000000000E+00 -0.00000000000E+00 -0.45593999997E+02  0.45594000000E+02  0.51100000000E-03 0. -1.
         23    2    1    2    0    0  0.35527136788E-14  0.00000000000E+00 -0.33306690739E-15  0.91188000000E+02  0.91188000000E+02 0.  0.
    9900012    2    3    3    0    0  0.21059446653E+02 -0.30201680000E+02 -0.37649605254E+00  0.54367034268E+02  0.39999886221E+02 0.  0.
         12    1    3    3    0    0 -0.21059446653E+02  0.30201680000E+02  0.37649605254E+00  0.36820965732E+02  0.00000000000E+00 0. -1.
         11    1    4    4    0    0  0.13056773000E+01 -0.51944922993E+01  0.72784463777E+01  0.90367762722E+01  0.51100000000E-03 0. -1.
        -11    1    4    4    0    0 -0.81176043686E+01 -0.59644340194E+01  0.18946350599E+01  0.10249859322E+02  0.51100000000E-03 0.  1.
        -12    1    4    4    0    0  0.27871373721E+02 -0.19042753681E+02 -0.95495774902E+01  0.35080398674E+02  0.00000000000E+00 0.  1.
</event>
<event>
 8    1  0.1212194E-006  0.9118800E+02  0.7816164E-02  0.1184000E+00
        -11   -1    0    0    0    0  0.00000000000E+00  0.00000000000E+00  0.45593999997E+02  0.45594000000E+02  0.51100000000E-03 0.  1.
         11   -1    0    0    0    0 -0.00000000000E+00 -0.00000000000E+00 -0.45593999997E+02  0.45594000000E+02  0.51100000000E-03 0. -1.
         23    2    1    2    0    0  0.00000000000E+00  0.71054273576E-14  0.17763568394E-14  0.91188000000E+02  0.91188000000E+02 0.  0.
    9900012    2    3    3    0    0  0.17737065852E+02  0.28632637833E+02  0.14877776733E+02  0.54367086176E+02  0.40000004556E+02 0.  0.
         12    1    3    3    0    0 -0.17737065852E+02 -0.28632637833E+02 -0.14877776733E+02  0.36820913824E+02  0.00000000000E+00 0. -1.
         11    1    4    4    0    0  0.52500432501E+00 -0.30229929729E+00 -0.89025903001E+01  0.89231792943E+01  0.51100000000E-03 0. -1.
        -11    1    4    4    0    0 -0.27220827511E+01  0.89283753604E+01  0.11050693138E+02  0.14465249399E+02  0.51100000000E-03 0.  1.
         12    1    4    4    0    0  0.19934144278E+02  0.20006561770E+02  0.12729673895E+02  0.30978657483E+02  0.00000000000E+00 0. -1.
</event>
<event>
 8    1  0.1212194E-006  0.9118800E+02  0.7816164E-02  0.1184000E+00
        -11   -1    0    0    0    0  0.00000000000E+00  0.00000000000E+00  0.45593999997E+02  0.45594000000E+02  0.51100000000E-03 0. -1.
         11   -1    0    0    0    0 -0.00000000000E+00 -0.00000000000E+00 -0.45593999997E+02  0.45594000000E+02  0.51100000000E-03 0.  1.
         23    2    1    2    0    0  0.00000000000E+00  0.00000000000E+00 -0.17763568394E-14  0.91188000000E+02  0.91188000000E+02 0.  0.
    9900012    2    3    3    0    0  0.22537640577E+02  0.27101376174E+02  0.10646629983E+02  0.54367074382E+02  0.39999977669E+02 0.  0.
         12    1    3    3    0    0 -0.22537640577E+02 -0.27101376174E+02 -0.10646629983E+02  0.36820925618E+02  0.00000000000E+00 0. -1.
         11    1    4    4    0    0 -0.19748444742E+01 -0.20463792312E+01 -0.27139365443E+01  0.39310469958E+01  0.51100000000E-03 0. -1.
        -11    1    4    4    0    0  0.39055489334E+00  0.59518251382E+01 -0.85581848326E+01  0.10431648167E+02  0.51100000000E-03 0.  1.
        -12    1    4    4    0    0  0.24121930158E+02  0.23195930267E+02  0.21918751360E+02  0.40004379219E+02  0.00000000000E+00 0.  1.
</event>
<event>
 8    1  0.1212194E-006  0.9118800E+02  0.7816164E-02  0.1184000E+00
        -11   -1    0    0    0    0  0.00000000000E+00  0.00000000000E+00  0.45593999997E+02  0.45594000000E+02  0.51100000000E-03 0. -1.
         11   -1    0    0    0    0 -0.00000000000E+00 -0.00000000000E+00 -0.45593999997E+02  0.45594000000E+02  0.51100000000E-03 0.  1.
         23    2    1    2    0    0  0.17763568394E-14  0.00000000000E+00  0.22204460493E-15  0.91188000000E+02  0.91188000000E+02 0.  0.
    9900012    2    3    3    0    0  0.89997989206E+01  0.35648424351E+02  0.19930577256E+01  0.54367098077E+02  0.40000031686E+02 0.  0.
        -12    1    3    3    0    0 -0.89997989206E+01 -0.35648424351E+02 -0.19930577256E+01  0.36820901923E+02  0.00000000000E+00 0.  1.
         11    1    4    4    0    0 -0.68566491120E+00  0.49949654800E+01  0.64231786172E+01  0.81656010389E+01  0.51100000000E-03 0.  1.
        -11    1    4    4    0    0 -0.91754192333E+01  0.14124961256E+02  0.74907463665E+01  0.18434048117E+02  0.51100000000E-03 0. -1.
         12    1    4    4    0    0  0.18860883065E+02  0.16528497615E+02 -0.11920867258E+02  0.27767448921E+02  0.00000000000E+00 0. -1.
</event>
<event>
 8    1  0.1212194E-006  0.9118800E+02  0.7816164E-02  0.1184000E+00
        -11   -1    0    0    0    0  0.00000000000E+00  0.00000000000E+00  0.45593999997E+02  0.45594000000E+02  0.51100000000E-03 0.  1.
         11   -1    0    0    0    0 -0.00000000000E+00 -0.00000000000E+00 -0.45593999997E+02  0.45594000000E+02  0.51100000000E-03 0. -1.
         23    2    1    2    0    0  0.35527136788E-14 -0.17763568394E-14  0.17763568394E-14  0.91188000000E+02  0.91188000000E+02 0.  0.
    9900012    2    3    3    0    0 -0.29990849258E+02  0.15967058261E+02 -0.14190949048E+02  0.54367068132E+02  0.39999963420E+02 0.  0.
        -12    1    3    3    0    0  0.29990849258E+02 -0.15967058261E+02  0.14190949048E+02  0.36820931868E+02  0.00000000000E+00 0.  1.
         11    1    4    4    0    0 -0.27861004191E+02  0.17710665965E+01  0.71385472120E+00  0.27926364251E+02  0.51100000000E-03 0. -1.
        -11    1    4    4    0    0 -0.63565817267E+01  0.77398444819E+01 -0.41493683414E+00  0.10024145684E+02  0.51100000000E-03 0.  1.
         12    1    4    4    0    0  0.42267366599E+01  0.64561471831E+01 -0.14489866935E+02  0.16416558197E+02  0.00000000000E+00 0. -1.
</event>
<event>
 8    1  0.1212194E-006  0.9118800E+02  0.7816164E-02  0.1184000E+00
        -11   -1    0    0    0    0  0.00000000000E+00  0.00000000000E+00  0.45593999997E+02  0.45594000000E+02  0.51100000000E-03 0.  1.
         11   -1    0    0    0    0 -0.00000000000E+00 -0.00000000000E+00 -0.45593999997E+02  0.45594000000E+02  0.51100000000E-03 0. -1.
         23    2    1    2    0    0 -0.44408920985E-15  0.00000000000E+00  0.35527136788E-14  0.91188000000E+02  0.91188000000E+02 0.  0.
    9900012    2    3    3    0    0  0.28170399271E+00  0.27705014403E+02 -0.24251458121E+02  0.54367076584E+02  0.39999982689E+02 0.  0.
        -12    1    3    3    0    0 -0.28170399271E+00 -0.27705014403E+02  0.24251458121E+02  0.36820923416E+02  0.00000000000E+00 0.  1.
         11    1    4    4    0    0  0.15387990209E+01 -0.13668190202E+01 -0.28289225881E+01  0.34984139166E+01  0.51100000000E-03 0. -1.
        -11    1    4    4    0    0  0.16916743912E+02  0.16247576807E+02 -0.74897101861E+01  0.24622260977E+02  0.51100000000E-03 0.  1.
         12    1    4    4    0    0 -0.18173838940E+02  0.12824256615E+02 -0.13932825347E+02  0.26246401691E+02  0.00000000000E+00 0. -1.
</event>
<event>
 8    1  0.1212194E-006  0.9118800E+02  0.7816164E-02  0.1184000E+00
        -11   -1    0    0    0    0  0.00000000000E+00  0.00000000000E+00  0.45593999997E+02  0.45594000000E+02  0.51100000000E-03 0. -1.
         11   -1    0    0    0    0 -0.00000000000E+00 -0.00000000000E+00 -0.45593999997E+02  0.45594000000E+02  0.51100000000E-03 0.  1.
         23    2    1    2    0    0  0.00000000000E+00  0.17763568394E-14  0.00000000000E+00  0.91188000000E+02  0.91188000000E+02 0.  0.
    9900012    2    3    3    0    0 -0.31257970049E+01  0.14130591030E+02 -0.33857568056E+02  0.54367093921E+02  0.40000022212E+02 0.  0.
         12    1    3    3    0    0  0.31257970049E+01 -0.14130591030E+02  0.33857568056E+02  0.36820906079E+02  0.00000000000E+00 0. -1.
         11    1    4    4    0    0  0.34084975000E+01 -0.23598711510E+01 -0.15374616697E+01  0.44216100805E+01  0.51100000000E-03 0. -1.
        -11    1    4    4    0    0  0.87217234691E+01  0.18167971007E+02 -0.27020463604E+02  0.33708294001E+02  0.51100000000E-03 0.  1.
        -12    1    4    4    0    0 -0.15256017974E+02 -0.16775088266E+01 -0.52996427827E+01  0.16237189840E+02  0.00000000000E+00 0.  1.
</event>
<event>
 8    1  0.1212194E-006  0.9118800E+02  0.7816164E-02  0.1184000E+00
        -11   -1    0    0    0    0  0.00000000000E+00  0.00000000000E+00  0.45593999997E+02  0.45594000000E+02  0.51100000000E-03 0.  1.
         11   -1    0    0    0    0 -0.00000000000E+00 -0.00000000000E+00 -0.45593999997E+02  0.45594000000E+02  0.51100000000E-03 0. -1.
         23    2    1    2    0    0  0.00000000000E+00  0.35527136788E-14 -0.33306690739E-15  0.91188000000E+02  0.91188000000E+02 0.  0.
    9900012    2    3    3    0    0 -0.29033296303E+02 -0.22628101436E+02  0.90337327126E+00  0.54367090830E+02  0.40000015166E+02 0.  0.
        -12    1    3    3    0    0  0.29033296303E+02  0.22628101436E+02 -0.90337327126E+00  0.36820909170E+02  0.00000000000E+00 0.  1.
         11    1    4    4    0    0 -0.13599730076E+01 -0.16080631328E+02 -0.68169044353E+01  0.17518744727E+02  0.51100000000E-03 0. -1.
        -11    1    4    4    0    0  0.49313935484E+00  0.31910935751E+01 -0.37196095637E+01  0.49256228231E+01  0.51100000000E-03 0.  1.
        -12    1    4    4    0    0 -0.28166462650E+02 -0.97385636833E+01  0.11439887270E+02  0.31922723280E+02  0.00000000000E+00 0.  1.
</event>
<event>
 8    1  0.1212194E-006  0.9118800E+02  0.7816164E-02  0.1184000E+00
        -11   -1    0    0    0    0  0.00000000000E+00  0.00000000000E+00  0.45593999997E+02  0.45594000000E+02  0.51100000000E-03 0.  1.
         11   -1    0    0    0    0 -0.00000000000E+00 -0.00000000000E+00 -0.45593999997E+02  0.45594000000E+02  0.51100000000E-03 0. -1.
         23    2    1    2    0    0  0.00000000000E+00  0.00000000000E+00  0.35527136788E-14  0.91188000000E+02  0.91188000000E+02 0.  0.
    9900012    2    3    3    0    0  0.92092710243E+01  0.27072323644E+02  0.23196103100E+02  0.54367074166E+02  0.39999977176E+02 0.  0.
         12    1    3    3    0    0 -0.92092710243E+01 -0.27072323644E+02 -0.23196103100E+02  0.36820925834E+02  0.00000000000E+00 0. -1.
         11    1    4    4    0    0  0.50641873721E+01  0.18391973448E+02 -0.23031462356E+01  0.19214972389E+02  0.51100000000E-03 0. -1.
        -11    1    4    4    0    0  0.57533021328E+01  0.17243566154E+01 -0.23144842070E+01  0.64366706125E+01  0.51100000000E-03 0.  1.
        -12    1    4    4    0    0 -0.16082184807E+01  0.69559935799E+01  0.27813733543E+02  0.28715431164E+02  0.00000000000E+00 0.  1.
</event>
<event>
 8    1  0.1212194E-006  0.9118800E+02  0.7816164E-02  0.1184000E+00
        -11   -1    0    0    0    0  0.00000000000E+00  0.00000000000E+00  0.45593999997E+02  0.45594000000E+02  0.51100000000E-03 0. -1.
         11   -1    0    0    0    0 -0.00000000000E+00 -0.00000000000E+00 -0.45593999997E+02  0.45594000000E+02  0.51100000000E-03 0.  1.
         23    2    1    2    0    0 -0.35527136788E-14  0.00000000000E+00  0.00000000000E+00  0.91188000000E+02  0.91188000000E+02 0.  0.
    9900012    2    3    3    0    0 -0.25544575726E+02 -0.15881111837E+02  0.21237841464E+02  0.54367068829E+02  0.39999965010E+02 0.  0.
        -12    1    3    3    0    0  0.25544575726E+02  0.15881111837E+02 -0.21237841464E+02  0.36820931171E+02  0.00000000000E+00 0.  1.
         11    1    4    4    0    0 -0.10994953669E+02  0.29350978406E+01  0.11743183180E+01  0.11440403371E+02  0.51100000000E-03 0. -1.
        -11    1    4    4    0    0 -0.43151172249E+01  0.80527900461E+01  0.58969181133E+01  0.10873881905E+02  0.51100000000E-03 0.  1.
         12    1    4    4    0    0 -0.10234504832E+02 -0.26868999724E+02  0.14166605033E+02  0.32052783553E+02  0.00000000000E+00 0. -1.
</event>
<event>
 8    1  0.1212194E-006  0.9118800E+02  0.7816164E-02  0.1184000E+00
        -11   -1    0    0    0    0  0.00000000000E+00  0.00000000000E+00  0.45593999997E+02  0.45594000000E+02  0.51100000000E-03 0. -1.
         11   -1    0    0    0    0 -0.00000000000E+00 -0.00000000000E+00 -0.45593999997E+02  0.45594000000E+02  0.51100000000E-03 0.  1.
         23    2    1    2    0    0  0.00000000000E+00  0.17763568394E-14  0.00000000000E+00  0.91188000000E+02  0.91188000000E+02 0.  0.
    9900012    2    3    3    0    0  0.59403296159E+00  0.14840957101E+02  0.33692329091E+02  0.54367083086E+02  0.39999997511E+02 0.  0.
        -12    1    3    3    0    0 -0.59403296159E+00 -0.14840957101E+02 -0.33692329091E+02  0.36820916914E+02  0.00000000000E+00 0.  1.
         11    1    4    4    0    0  0.12048344617E+00 -0.41660480286E+01  0.22597769149E+02  0.22978895604E+02  0.51100000000E-03 0. -1.
        -11    1    4    4    0    0 -0.63513026055E+01 -0.15285310978E+01 -0.98278144050E+00  0.66061571072E+01  0.51100000000E-03 0.  1.
        -12    1    4    4    0    0  0.68248521209E+01  0.20535536228E+02  0.12077341382E+02  0.24782030375E+02  0.00000000000E+00 0.  1.
</event>
<event>
 8    1  0.1212194E-006  0.9118800E+02  0.7816164E-02  0.1184000E+00
        -11   -1    0    0    0    0  0.00000000000E+00  0.00000000000E+00  0.45593999997E+02  0.45594000000E+02  0.51100000000E-03 0.  1.
         11   -1    0    0    0    0 -0.00000000000E+00 -0.00000000000E+00 -0.45593999997E+02  0.45594000000E+02  0.51100000000E-03 0. -1.
         23    2    1    2    0    0  0.00000000000E+00  0.00000000000E+00  0.00000000000E+00  0.91188000000E+02  0.91188000000E+02 0.  0.
    9900012    2    3    3    0    0 -0.26482481762E+02 -0.16785059660E+02  0.19305957412E+02  0.54367081222E+02  0.39999993262E+02 0.  0.
         12    1    3    3    0    0  0.26482481762E+02  0.16785059660E+02 -0.19305957412E+02  0.36820918778E+02  0.00000000000E+00 0. -1.
         11    1    4    4    0    0 -0.30093715996E+01 -0.16504303771E+02 -0.32246389100E-01  0.16776453752E+02  0.51100000000E-03 0. -1.
        -11    1    4    4    0    0 -0.50825758781E+01 -0.10125109309E+02  0.77745785436E+01  0.13740250648E+02  0.51100000000E-03 0.  1.
        -12    1    4    4    0    0 -0.18390534284E+02  0.98443534192E+01  0.11563625257E+02  0.23850376823E+02  0.00000000000E+00 0.  1.
</event>
<event>
 8    1  0.1212194E-006  0.9118800E+02  0.7816164E-02  0.1184000E+00
        -11   -1    0    0    0    0  0.00000000000E+00  0.00000000000E+00  0.45593999997E+02  0.45594000000E+02  0.51100000000E-03 0.  1.
         11   -1    0    0    0    0 -0.00000000000E+00 -0.00000000000E+00 -0.45593999997E+02  0.45594000000E+02  0.51100000000E-03 0. -1.
         23    2    1    2    0    0  0.00000000000E+00 -0.44408920985E-15  0.00000000000E+00  0.91188000000E+02  0.91188000000E+02 0.  0.
    9900012    2    3    3    0    0 -0.52612191169E+01  0.36423287201E+01 -0.36260613747E+02  0.54367094329E+02  0.40000023142E+02 0.  0.
        -12    1    3    3    0    0  0.52612191169E+01 -0.36423287201E+01  0.36260613747E+02  0.36820905671E+02  0.00000000000E+00 0.  1.
         11    1    4    4    0    0  0.64981247436E+00 -0.10016264464E+02 -0.15136708801E+02  0.18162262074E+02  0.51100000000E-03 0. -1.
        -11    1    4    4    0    0 -0.10738503315E+01  0.25999823247E+01 -0.23696981322E+02  0.23863360758E+02  0.51100000000E-03 0.  1.
        -12    1    4    4    0    0 -0.48371812598E+01  0.11058610860E+02  0.25730763756E+01  0.12341471497E+02  0.00000000000E+00 0.  1.
</event>
<event>
 8    1  0.1212194E-006  0.9118800E+02  0.7816164E-02  0.1184000E+00
        -11   -1    0    0    0    0  0.00000000000E+00  0.00000000000E+00  0.45593999997E+02  0.45594000000E+02  0.51100000000E-03 0.  1.
         11   -1    0    0    0    0 -0.00000000000E+00 -0.00000000000E+00 -0.45593999997E+02  0.45594000000E+02  0.51100000000E-03 0. -1.
         23    2    1    2    0    0  0.00000000000E+00 -0.17763568394E-14  0.00000000000E+00  0.91188000000E+02  0.91188000000E+02 0.  0.
    9900012    2    3    3    0    0  0.94432006250E+01  0.57452900493E+01 -0.35122607586E+02  0.54367082583E+02  0.39999996364E+02 0.  0.
        -12    1    3    3    0    0 -0.94432006250E+01 -0.57452900493E+01  0.35122607586E+02  0.36820917417E+02  0.00000000000E+00 0.  1.
         11    1    4    4    0    0  0.10811424041E+02 -0.11173524606E+02 -0.82807079189E+01  0.17615466665E+02  0.51100000000E-03 0.  1.
        -11    1    4    4    0    0 -0.17449899895E+00  0.13700236437E+02 -0.49128693057E+01  0.14555521749E+02  0.51100000000E-03 0. -1.
        -12    1    4    4    0    0 -0.11937244172E+01  0.32185782192E+01 -0.21929030362E+02  0.22196094169E+02  0.00000000000E+00 0.  1.
</event>
<event>
 8    1  0.1212194E-006  0.9118800E+02  0.7816164E-02  0.1184000E+00
        -11   -1    0    0    0    0  0.00000000000E+00  0.00000000000E+00  0.45593999997E+02  0.45594000000E+02  0.51100000000E-03 0.  1.
         11   -1    0    0    0    0 -0.00000000000E+00 -0.00000000000E+00 -0.45593999997E+02  0.45594000000E+02  0.51100000000E-03 0. -1.
         23    2    1    2    0    0  0.00000000000E+00  0.00000000000E+00  0.00000000000E+00  0.91188000000E+02  0.91188000000E+02 0.  0.
    9900012    2    3    3    0    0 -0.26946767716E+02  0.24646932608E+02 -0.47095633309E+01  0.54367087951E+02  0.40000008602E+02 0.  0.
        -12    1    3    3    0    0  0.26946767716E+02 -0.24646932608E+02  0.47095633309E+01  0.36820912049E+02  0.00000000000E+00 0.  1.
         11    1    4    4    0    0 -0.18359882980E+02  0.62769466989E+01  0.65728861680E+01  0.20486292875E+02  0.51100000000E-03 0. -1.
        -11    1    4    4    0    0 -0.32375835007E+00 -0.53171384358E+00  0.65701062933E+01  0.65995330174E+01  0.51100000000E-03 0.  1.
         12    1    4    4    0    0 -0.82631263855E+01  0.18901699753E+02 -0.17852555792E+02  0.27281262059E+02  0.00000000000E+00 0. -1.
</event>
<event>
 8    1  0.1212194E-006  0.9118800E+02  0.7816164E-02  0.1184000E+00
        -11   -1    0    0    0    0  0.00000000000E+00  0.00000000000E+00  0.45593999997E+02  0.45594000000E+02  0.51100000000E-03 0.  1.
         11   -1    0    0    0    0 -0.00000000000E+00 -0.00000000000E+00 -0.45593999997E+02  0.45594000000E+02  0.51100000000E-03 0. -1.
         23    2    1    2    0    0  0.00000000000E+00 -0.71054273576E-14  0.35527136788E-14  0.91188000000E+02  0.91188000000E+02 0.  0.
    9900012    2    3    3    0    0  0.10483346035E+02 -0.31355628360E+02  0.16208175341E+02  0.54367069514E+02  0.39999966572E+02 0.  0.
         12    1    3    3    0    0 -0.10483346035E+02  0.31355628360E+02 -0.16208175341E+02  0.36820930486E+02  0.00000000000E+00 0. -1.
         11    1    4    4    0    0 -0.97064425287E+01 -0.57335103200E+01  0.40338731335E+01  0.11973316160E+02  0.51100000000E-03 0. -1.
        -11    1    4    4    0    0  0.33747026404E+01  0.39685372462E+01 -0.19258477889E+01  0.55539891747E+01  0.51100000000E-03 0.  1.
        -12    1    4    4    0    0  0.16815085923E+02 -0.29590655286E+02  0.14100149996E+02  0.36839764180E+02  0.00000000000E+00 0.  1.
</event>
<event>
 8    1  0.1212194E-006  0.9118800E+02  0.7816164E-02  0.1184000E+00
        -11   -1    0    0    0    0  0.00000000000E+00  0.00000000000E+00  0.45593999997E+02  0.45594000000E+02  0.51100000000E-03 0. -1.
         11   -1    0    0    0    0 -0.00000000000E+00 -0.00000000000E+00 -0.45593999997E+02  0.45594000000E+02  0.51100000000E-03 0.  1.
         23    2    1    2    0    0  0.00000000000E+00  0.33306690739E-15  0.35527136788E-14  0.91188000000E+02  0.91188000000E+02 0.  0.
    9900012    2    3    3    0    0  0.24960899446E+02 -0.30041325572E+00 -0.27067427581E+02  0.54367049644E+02  0.39999921274E+02 0.  0.
         12    1    3    3    0    0 -0.24960899446E+02  0.30041325572E+00  0.27067427581E+02  0.36820950356E+02  0.00000000000E+00 0. -1.
         11    1    4    4    0    0 -0.22742648491E+01 -0.79528497032E+01  0.15704985401E+00  0.82731350722E+01  0.51100000000E-03 0. -1.
        -11    1    4    4    0    0 -0.37749626887E+01 -0.19918434417E+01 -0.10806403819E+01  0.44029044384E+01  0.51100000000E-03 0.  1.
        -12    1    4    4    0    0  0.31010126983E+02  0.96442798892E+01 -0.26143837053E+02  0.41691010134E+02  0.00000000000E+00 0.  1.
</event>
<event>
 8    1  0.1212194E-006  0.9118800E+02  0.7816164E-02  0.1184000E+00
        -11   -1    0    0    0    0  0.00000000000E+00  0.00000000000E+00  0.45593999997E+02  0.45594000000E+02  0.51100000000E-03 0. -1.
         11   -1    0    0    0    0 -0.00000000000E+00 -0.00000000000E+00 -0.45593999997E+02  0.45594000000E+02  0.51100000000E-03 0.  1.
         23    2    1    2    0    0 -0.35527136788E-14 -0.35527136788E-14  0.17763568394E-14  0.91188000000E+02  0.91188000000E+02 0.  0.
    9900012    2    3    3    0    0  0.17815339784E+02  0.30549326924E+02 -0.10253381207E+02  0.54367088369E+02  0.40000009555E+02 0.  0.
        -12    1    3    3    0    0 -0.17815339784E+02 -0.30549326924E+02  0.10253381207E+02  0.36820911631E+02  0.00000000000E+00 0.  1.
         11    1    4    4    0    0  0.26942310190E+01  0.25762644164E+02  0.13112770021E+01  0.25936309736E+02  0.51100000000E-03 0. -1.
        -11    1    4    4    0    0  0.61369398765E+01  0.31212097426E+01  0.56729944786E+01  0.89211461103E+01  0.51100000000E-03 0.  1.
        -12    1    4    4    0    0  0.89841688889E+01  0.16654730182E+01 -0.17237652688E+02  0.19509632523E+02  0.00000000000E+00 0.  1.
</event>
<event>
 8    1  0.1212194E-006  0.9118800E+02  0.7816164E-02  0.1184000E+00
        -11   -1    0    0    0    0  0.00000000000E+00  0.00000000000E+00  0.45593999997E+02  0.45594000000E+02  0.51100000000E-03 0.  1.
         11   -1    0    0    0    0 -0.00000000000E+00 -0.00000000000E+00 -0.45593999997E+02  0.45594000000E+02  0.51100000000E-03 0. -1.
         23    2    1    2    0    0  0.00000000000E+00  0.35527136788E-14  0.35527136788E-14  0.91188000000E+02  0.91188000000E+02 0.  0.
    9900012    2    3    3    0    0 -0.19069754910E+02  0.25404662119E+02  0.18620587777E+02  0.54367099700E+02  0.40000035387E+02 0.  0.
         12    1    3    3    0    0  0.19069754910E+02 -0.25404662119E+02 -0.18620587777E+02  0.36820900300E+02  0.00000000000E+00 0. -1.
         11    1    4    4    0    0 -0.62502910429E+01  0.72000710422E+01 -0.83051977687E+01  0.12644503603E+02  0.51100000000E-03 0. -1.
        -11    1    4    4    0    0 -0.97973201219E+01 -0.30301785662E-02  0.93040367310E+00  0.98413993928E+01  0.51100000000E-03 0.  1.
        -12    1    4    4    0    0 -0.30221437454E+01  0.18207621255E+02  0.25995381873E+02  0.31881196704E+02  0.00000000000E+00 0.  1.
</event>
<event>
 8    1  0.1212194E-006  0.9118800E+02  0.7816164E-02  0.1184000E+00
        -11   -1    0    0    0    0  0.00000000000E+00  0.00000000000E+00  0.45593999997E+02  0.45594000000E+02  0.51100000000E-03 0.  1.
         11   -1    0    0    0    0 -0.00000000000E+00 -0.00000000000E+00 -0.45593999997E+02  0.45594000000E+02  0.51100000000E-03 0. -1.
         23    2    1    2    0    0 -0.35527136788E-14  0.17763568394E-14 -0.35527136788E-14  0.91188000000E+02  0.91188000000E+02 0.  0.
    9900012    2    3    3    0    0  0.21408887129E+02 -0.32748152878E+01  0.29777754593E+02  0.54367088389E+02  0.40000009600E+02 0.  0.
         12    1    3    3    0    0 -0.21408887129E+02  0.32748152878E+01 -0.29777754593E+02  0.36820911611E+02  0.00000000000E+00 0. -1.
         11    1    4    4    0    0  0.33612439620E+01 -0.11794641473E+01 -0.11930945776E+01  0.37566702782E+01  0.51100000000E-03 0. -1.
        -11    1    4    4    0    0  0.19074490013E+02  0.10004379676E+02  0.52535187342E+01  0.22170323437E+02  0.51100000000E-03 0.  1.
         12    1    4    4    0    0 -0.10268468459E+01 -0.12099730816E+02  0.25717330436E+02  0.28440094674E+02  0.00000000000E+00 0. -1.
</event>
<event>
 8    1  0.1212194E-006  0.9118800E+02  0.7816164E-02  0.1184000E+00
        -11   -1    0    0    0    0  0.00000000000E+00  0.00000000000E+00  0.45593999997E+02  0.45594000000E+02  0.51100000000E-03 0.  1.
         11   -1    0    0    0    0 -0.00000000000E+00 -0.00000000000E+00 -0.45593999997E+02  0.45594000000E+02  0.51100000000E-03 0. -1.
         23    2    1    2    0    0  0.00000000000E+00  0.00000000000E+00 -0.35527136788E-14  0.91188000000E+02  0.91188000000E+02 0.  0.
    9900012    2    3    3    0    0 -0.16608415946E+02  0.14355327113E+02  0.29561187111E+02  0.54367099955E+02  0.40000035966E+02 0.  0.
         12    1    3    3    0    0  0.16608415946E+02 -0.14355327113E+02 -0.29561187111E+02  0.36820900045E+02  0.00000000000E+00 0. -1.
         11    1    4    4    0    0 -0.68628640960E+01 -0.27919608745E+01  0.77466037319E+01  0.10719319883E+02  0.51100000000E-03 0. -1.
        -11    1    4    4    0    0 -0.51843101373E+01  0.14074345461E+02 -0.53557949364E+01  0.15926355874E+02  0.51100000000E-03 0.  1.
        -12    1    4    4    0    0 -0.45612417126E+01  0.30729425268E+01  0.27170378315E+02  0.27721424197E+02  0.00000000000E+00 0.  1.
</event>
<event>
 8    1  0.1212194E-006  0.9118800E+02  0.7816164E-02  0.1184000E+00
        -11   -1    0    0    0    0  0.00000000000E+00  0.00000000000E+00  0.45593999997E+02  0.45594000000E+02  0.51100000000E-03 0.  1.
         11   -1    0    0    0    0 -0.00000000000E+00 -0.00000000000E+00 -0.45593999997E+02  0.45594000000E+02  0.51100000000E-03 0. -1.
         23    2    1    2    0    0  0.00000000000E+00  0.00000000000E+00  0.00000000000E+00  0.91188000000E+02  0.91188000000E+02 0.  0.
    9900012    2    3    3    0    0  0.14773715438E+02 -0.17051385053E+02  0.29099288169E+02  0.54367068833E+02  0.39999965018E+02 0.  0.
         12    1    3    3    0    0 -0.14773715438E+02  0.17051385053E+02 -0.29099288169E+02  0.36820931167E+02  0.00000000000E+00 0. -1.
         11    1    4    4    0    0  0.12366236716E+02  0.37930359914E+01  0.43581319234E+01  0.13649331364E+02  0.51100000000E-03 0. -1.
        -11    1    4    4    0    0  0.73627940357E+01 -0.28796408730E+01 -0.19705375283E+01  0.81477657048E+01  0.51100000000E-03 0.  1.
         12    1    4    4    0    0 -0.49553153135E+01 -0.17964780171E+02  0.26711693774E+02  0.32569971764E+02  0.00000000000E+00 0. -1.
</event>
<event>
 8    1  0.1212194E-006  0.9118800E+02  0.7816164E-02  0.1184000E+00
        -11   -1    0    0    0    0  0.00000000000E+00  0.00000000000E+00  0.45593999997E+02  0.45594000000E+02  0.51100000000E-03 0. -1.
         11   -1    0    0    0    0 -0.00000000000E+00 -0.00000000000E+00 -0.45593999997E+02  0.45594000000E+02  0.51100000000E-03 0.  1.
         23    2    1    2    0    0 -0.35527136788E-14  0.17763568394E-14  0.00000000000E+00  0.91188000000E+02  0.91188000000E+02 0.  0.
    9900012    2    3    3    0    0 -0.22567971631E+02  0.99718185586E+01  0.27331817460E+02  0.54367098944E+02  0.40000033663E+02 0.  0.
        -12    1    3    3    0    0  0.22567971631E+02 -0.99718185586E+01 -0.27331817460E+02  0.36820901056E+02  0.00000000000E+00 0.  1.
         11    1    4    4    0    0 -0.93162602310E+01  0.86391292496E+01  0.52321003031E+01  0.13740528837E+02  0.51100000000E-03 0. -1.
        -11    1    4    4    0    0 -0.10127521308E+02 -0.29964218806E+01  0.29595723941E+02  0.31423750695E+02  0.51100000000E-03 0.  1.
        -12    1    4    4    0    0 -0.31241900924E+01  0.43291111897E+01 -0.74960067838E+01  0.92028194120E+01  0.00000000000E+00 0.  1.
</event>
<event>
 8    1  0.1212194E-006  0.9118800E+02  0.7816164E-02  0.1184000E+00
        -11   -1    0    0    0    0  0.00000000000E+00  0.00000000000E+00  0.45593999997E+02  0.45594000000E+02  0.51100000000E-03 0.  1.
         11   -1    0    0    0    0 -0.00000000000E+00 -0.00000000000E+00 -0.45593999997E+02  0.45594000000E+02  0.51100000000E-03 0. -1.
         23    2    1    2    0    0 -0.71054273576E-14  0.88817841970E-15 -0.17763568394E-14  0.91188000000E+02  0.91188000000E+02 0.  0.
    9900012    2    3    3    0    0  0.33580167965E+02 -0.40938674710E+01  0.14539344932E+02  0.54367082270E+02  0.39999995651E+02 0.  0.
         12    1    3    3    0    0 -0.33580167965E+02  0.40938674710E+01 -0.14539344932E+02  0.36820917730E+02  0.00000000000E+00 0. -1.
         11    1    4    4    0    0 -0.84881652325E+00 -0.10574302307E+02 -0.26284216377E+01  0.10929087763E+02  0.51100000000E-03 0. -1.
        -11    1    4    4    0    0  0.11900246969E+02  0.58442942585E+01 -0.25399621112E+01  0.13499002225E+02  0.51100000000E-03 0.  1.
        -12    1    4    4    0    0  0.22528737520E+02  0.63614057746E+00  0.19707728681E+02  0.29938992281E+02  0.00000000000E+00 0.  1.
</event>
<event>
 8    1  0.1212194E-006  0.9118800E+02  0.7816164E-02  0.1184000E+00
        -11   -1    0    0    0    0  0.00000000000E+00  0.00000000000E+00  0.45593999997E+02  0.45594000000E+02  0.51100000000E-03 0. -1.
         11   -1    0    0    0    0 -0.00000000000E+00 -0.00000000000E+00 -0.45593999997E+02  0.45594000000E+02  0.51100000000E-03 0.  1.
         23    2    1    2    0    0 -0.71054273576E-14  0.00000000000E+00  0.26645352591E-14  0.91188000000E+02  0.91188000000E+02 0.  0.
    9900012    2    3    3    0    0  0.36741801688E+02 -0.11953172876E+01  0.20953532396E+01  0.54367091810E+02  0.40000017400E+02 0.  0.
         12    1    3    3    0    0 -0.36741801688E+02  0.11953172876E+01 -0.20953532396E+01  0.36820908190E+02  0.00000000000E+00 0. -1.
         11    1    4    4    0    0  0.12895547494E+02 -0.17213606449E+01  0.18170561666E+02  0.22347875495E+02  0.51100000000E-03 0. -1.
        -11    1    4    4    0    0  0.17404419708E+02 -0.48956216184E+01 -0.63662826504E+01  0.19167954806E+02  0.51100000000E-03 0.  1.
         12    1    4    4    0    0  0.64418344866E+01  0.54216649757E+01 -0.97089257757E+01  0.12851261509E+02  0.00000000000E+00 0. -1.
</event>
<event>
 8    1  0.1212194E-006  0.9118800E+02  0.7816164E-02  0.1184000E+00
        -11   -1    0    0    0    0  0.00000000000E+00  0.00000000000E+00  0.45593999997E+02  0.45594000000E+02  0.51100000000E-03 0.  1.
         11   -1    0    0    0    0 -0.00000000000E+00 -0.00000000000E+00 -0.45593999997E+02  0.45594000000E+02  0.51100000000E-03 0. -1.
         23    2    1    2    0    0  0.66613381478E-15  0.00000000000E+00 -0.14210854715E-13  0.91188000000E+02  0.91188000000E+02 0.  0.
    9900012    2    3    3    0    0  0.13076588457E+01 -0.12169417894E+02  0.34727138888E+02  0.54367097256E+02  0.40000029814E+02 0.  0.
         12    1    3    3    0    0 -0.13076588457E+01  0.12169417894E+02 -0.34727138888E+02  0.36820902744E+02  0.00000000000E+00 0. -1.
         11    1    4    4    0    0  0.34260247704E+01  0.22708169651E+01  0.27660344070E+02  0.27964064256E+02  0.51100000000E-03 0.  1.
        -11    1    4    4    0    0  0.31900241616E+01  0.40507103192E+01 -0.14621704281E+01  0.53593330615E+01  0.51100000000E-03 0. -1.
        -12    1    4    4    0    0 -0.53083900862E+01 -0.18490945179E+02  0.85289652462E+01  0.21043699938E+02  0.00000000000E+00 0.  1.
</event>
<event>
 8    1  0.1212194E-006  0.9118800E+02  0.7816164E-02  0.1184000E+00
        -11   -1    0    0    0    0  0.00000000000E+00  0.00000000000E+00  0.45593999997E+02  0.45594000000E+02  0.51100000000E-03 0. -1.
         11   -1    0    0    0    0 -0.00000000000E+00 -0.00000000000E+00 -0.45593999997E+02  0.45594000000E+02  0.51100000000E-03 0.  1.
         23    2    1    2    0    0  0.00000000000E+00 -0.35527136788E-14  0.17763568394E-14  0.91188000000E+02  0.91188000000E+02 0.  0.
    9900012    2    3    3    0    0 -0.25559604846E+02 -0.24987525773E+02  0.88379648297E+01  0.54367089278E+02  0.40000011626E+02 0.  0.
         12    1    3    3    0    0  0.25559604846E+02  0.24987525773E+02 -0.88379648297E+01  0.36820910722E+02  0.00000000000E+00 0. -1.
         11    1    4    4    0    0  0.11608106727E+01 -0.11891237395E+00  0.35617304984E+01  0.37480055996E+01  0.51100000000E-03 0. -1.
        -11    1    4    4    0    0  0.47354857838E+01  0.19766636763E+01 -0.58627749582E+01  0.77912871446E+01  0.51100000000E-03 0.  1.
        -12    1    4    4    0    0 -0.31455901302E+02 -0.26845277075E+02  0.11139009290E+02  0.42827796533E+02  0.00000000000E+00 0.  1.
</event>
<event>
 8    1  0.1212194E-006  0.9118800E+02  0.7816164E-02  0.1184000E+00
        -11   -1    0    0    0    0  0.00000000000E+00  0.00000000000E+00  0.45593999997E+02  0.45594000000E+02  0.51100000000E-03 0. -1.
         11   -1    0    0    0    0 -0.00000000000E+00 -0.00000000000E+00 -0.45593999997E+02  0.45594000000E+02  0.51100000000E-03 0.  1.
         23    2    1    2    0    0 -0.35527136788E-14 -0.17763568394E-14  0.35527136788E-14  0.91188000000E+02  0.91188000000E+02 0.  0.
    9900012    2    3    3    0    0  0.29332113303E+02  0.10384299293E+02 -0.19686896968E+02  0.54367075855E+02  0.39999981027E+02 0.  0.
         12    1    3    3    0    0 -0.29332113303E+02 -0.10384299293E+02  0.19686896968E+02  0.36820924145E+02  0.00000000000E+00 0. -1.
         11    1    4    4    0    0  0.15528503060E+02 -0.45289237459E+01  0.65918631792E+01  0.17467060943E+02  0.51100000000E-03 0. -1.
        -11    1    4    4    0    0  0.13406478134E+02  0.16802890533E+02 -0.27274805370E+02  0.34727306179E+02  0.51100000000E-03 0.  1.
        -12    1    4    4    0    0  0.39713211021E+00 -0.18896674937E+01  0.99604522324E+00  0.21727087326E+01  0.00000000000E+00 0.  1.
</event>
<event>
 8    1  0.1212194E-006  0.9118800E+02  0.7816164E-02  0.1184000E+00
        -11   -1    0    0    0    0  0.00000000000E+00  0.00000000000E+00  0.45593999997E+02  0.45594000000E+02  0.51100000000E-03 0.  1.
         11   -1    0    0    0    0 -0.00000000000E+00 -0.00000000000E+00 -0.45593999997E+02  0.45594000000E+02  0.51100000000E-03 0. -1.
         23    2    1    2    0    0  0.35527136788E-14  0.17763568394E-14 -0.35527136788E-14  0.91188000000E+02  0.91188000000E+02 0.  0.
    9900012    2    3    3    0    0  0.28483618982E+02  0.15907734047E+02  0.17070428284E+02  0.54367189653E+02  0.40000240450E+02 0.  0.
         12    1    3    3    0    0 -0.28483618982E+02 -0.15907734047E+02 -0.17070428284E+02  0.36820810347E+02  0.00000000000E+00 0. -1.
         11    1    4    4    0    0  0.22102830430E+02  0.23413530974E+02  0.86244364799E+01  0.33333308425E+02  0.51100000000E-03 0. -1.
        -11    1    4    4    0    0  0.26670994279E+01  0.29987480532E+01  0.90251024959E+01  0.98771648040E+01  0.51100000000E-03 0.  1.
         12    1    4    4    0    0  0.37136891250E+01 -0.10504544981E+02 -0.57911069225E+00  0.11156716424E+02  0.00000000000E+00 0. -1.
</event>
<event>
 8    1  0.1212194E-006  0.9118800E+02  0.7816164E-02  0.1184000E+00
        -11   -1    0    0    0    0  0.00000000000E+00  0.00000000000E+00  0.45593999997E+02  0.45594000000E+02  0.51100000000E-03 0.  1.
         11   -1    0    0    0    0 -0.00000000000E+00 -0.00000000000E+00 -0.45593999997E+02  0.45594000000E+02  0.51100000000E-03 0. -1.
         23    2    1    2    0    0  0.35527136788E-14  0.00000000000E+00 -0.35527136788E-14  0.91188000000E+02  0.91188000000E+02 0.  0.
    9900012    2    3    3    0    0 -0.23341381168E+02  0.73758273506E+01 -0.27505558249E+02  0.54367100520E+02  0.40000037256E+02 0.  0.
        -12    1    3    3    0    0  0.23341381168E+02 -0.73758273506E+01  0.27505558249E+02  0.36820899480E+02  0.00000000000E+00 0.  1.
         11    1    4    4    0    0 -0.45882364837E+01  0.55621960840E+01 -0.28748408950E+01  0.77623868584E+01  0.51100000000E-03 0. -1.
        -11    1    4    4    0    0  0.24987958481E+01  0.68592861401E+01  0.56758391781E+01  0.92471042861E+01  0.51100000000E-03 0.  1.
         12    1    4    4    0    0 -0.21251940532E+02 -0.50456548734E+01 -0.30306556532E+02  0.37357609376E+02  0.00000000000E+00 0. -1.
</event>
<event>
 8    1  0.1212194E-006  0.9118800E+02  0.7816164E-02  0.1184000E+00
        -11   -1    0    0    0    0  0.00000000000E+00  0.00000000000E+00  0.45593999997E+02  0.45594000000E+02  0.51100000000E-03 0. -1.
         11   -1    0    0    0    0 -0.00000000000E+00 -0.00000000000E+00 -0.45593999997E+02  0.45594000000E+02  0.51100000000E-03 0.  1.
         23    2    1    2    0    0  0.00000000000E+00  0.00000000000E+00 -0.99920072216E-15  0.91188000000E+02  0.91188000000E+02 0.  0.
    9900012    2    3    3    0    0  0.12284770349E+02 -0.34708496814E+02  0.42810387932E+00  0.54367100954E+02  0.40000038246E+02 0.  0.
        -12    1    3    3    0    0 -0.12284770349E+02  0.34708496814E+02 -0.42810387932E+00  0.36820899046E+02  0.00000000000E+00 0.  1.
         11    1    4    4    0    0  0.14602737000E+02 -0.10992422332E+02  0.44739145667E+01  0.18817257729E+02  0.51100000000E-03 0. -1.
        -11    1    4    4    0    0 -0.41816764998E+01 -0.73992370088E+01 -0.13976562004E+02  0.16357854761E+02  0.51100000000E-03 0.  1.
         12    1    4    4    0    0  0.18637098489E+01 -0.16316837473E+02  0.99307513171E+01  0.19191988465E+02  0.00000000000E+00 0. -1.
</event>
<event>
 8    1  0.1212194E-006  0.9118800E+02  0.7816164E-02  0.1184000E+00
        -11   -1    0    0    0    0  0.00000000000E+00  0.00000000000E+00  0.45593999997E+02  0.45594000000E+02  0.51100000000E-03 0.  1.
         11   -1    0    0    0    0 -0.00000000000E+00 -0.00000000000E+00 -0.45593999997E+02  0.45594000000E+02  0.51100000000E-03 0. -1.
         23    2    1    2    0    0  0.13322676296E-14 -0.35527136788E-14  0.35527136788E-14  0.91188000000E+02  0.91188000000E+02 0.  0.
    9900012    2    3    3    0    0 -0.15998783468E+01  0.29040362782E+02  0.22580612859E+02  0.54366995690E+02  0.39999798275E+02 0.  0.
         12    1    3    3    0    0  0.15998783468E+01 -0.29040362782E+02 -0.22580612859E+02  0.36821004310E+02  0.00000000000E+00 0. -1.
         11    1    4    4    0    0  0.72371622347E+01  0.38084554326E+01  0.10733631310E+02  0.13494135443E+02  0.51100000000E-03 0. -1.
        -11    1    4    4    0    0  0.18324694102E+01  0.20470641030E+02  0.18305743744E+02  0.27522814947E+02  0.51100000000E-03 0.  1.
         12    1    4    4    0    0 -0.10669509992E+02  0.47612663195E+01 -0.64587621948E+01  0.13350045300E+02  0.00000000000E+00 0. -1.
</event>
<event>
 8    1  0.1212194E-006  0.9118800E+02  0.7816164E-02  0.1184000E+00
        -11   -1    0    0    0    0  0.00000000000E+00  0.00000000000E+00  0.45593999997E+02  0.45594000000E+02  0.51100000000E-03 0.  1.
         11   -1    0    0    0    0 -0.00000000000E+00 -0.00000000000E+00 -0.45593999997E+02  0.45594000000E+02  0.51100000000E-03 0. -1.
         23    2    1    2    0    0  0.17763568394E-14  0.35527136788E-14  0.00000000000E+00  0.91188000000E+02  0.91188000000E+02 0.  0.
    9900012    2    3    3    0    0 -0.14268231815E+02  0.19019004621E+02  0.28115380311E+02  0.54367087655E+02  0.40000007926E+02 0.  0.
         12    1    3    3    0    0  0.14268231815E+02 -0.19019004621E+02 -0.28115380311E+02  0.36820912345E+02  0.00000000000E+00 0. -1.
         11    1    4    4    0    0 -0.98921829883E+01  0.24205325151E+02  0.75487442949E+00  0.26159565853E+02  0.51100000000E-03 0. -1.
        -11    1    4    4    0    0 -0.23279628120E+01 -0.20657671592E+01  0.13391342274E+02  0.13748267271E+02  0.51100000000E-03 0.  1.
         12    1    4    4    0    0 -0.20480860146E+01 -0.31205533711E+01  0.13969163608E+02  0.14459254530E+02  0.00000000000E+00 0. -1.
</event>
<event>
 8    1  0.1212194E-006  0.9118800E+02  0.7816164E-02  0.1184000E+00
        -11   -1    0    0    0    0  0.00000000000E+00  0.00000000000E+00  0.45593999997E+02  0.45594000000E+02  0.51100000000E-03 0.  1.
         11   -1    0    0    0    0 -0.00000000000E+00 -0.00000000000E+00 -0.45593999997E+02  0.45594000000E+02  0.51100000000E-03 0. -1.
         23    2    1    2    0    0 -0.35527136788E-14  0.00000000000E+00 -0.44408920985E-15  0.91188000000E+02  0.91188000000E+02 0.  0.
    9900012    2    3    3    0    0  0.26946165910E+02 -0.24967341212E+02  0.25131432344E+01  0.54367083752E+02  0.39999999029E+02 0.  0.
        -12    1    3    3    0    0 -0.26946165910E+02  0.24967341212E+02 -0.25131432344E+01  0.36820916248E+02  0.00000000000E+00 0.  1.
         11    1    4    4    0    0  0.18068290931E+02 -0.12803355072E+02  0.65333521523E+01  0.23088389482E+02  0.51100000000E-03 0. -1.
        -11    1    4    4    0    0  0.34620728886E+01 -0.20513537103E+02 -0.80189075446E+00  0.20819082165E+02  0.51100000000E-03 0.  1.
        -12    1    4    4    0    0  0.54158020898E+01  0.83495509633E+01 -0.32183181635E+01  0.10459612104E+02  0.00000000000E+00 0.  1.
</event>
<event>
 8    1  0.1212194E-006  0.9118800E+02  0.7816164E-02  0.1184000E+00
        -11   -1    0    0    0    0  0.00000000000E+00  0.00000000000E+00  0.45593999997E+02  0.45594000000E+02  0.51100000000E-03 0. -1.
         11   -1    0    0    0    0 -0.00000000000E+00 -0.00000000000E+00 -0.45593999997E+02  0.45594000000E+02  0.51100000000E-03 0.  1.
         23    2    1    2    0    0  0.00000000000E+00  0.35527136788E-14  0.00000000000E+00  0.91188000000E+02  0.91188000000E+02 0.  0.
    9900012    2    3    3    0    0  0.32932618468E+02  0.15912907631E+02  0.42429157500E+01  0.54367077653E+02  0.39999985125E+02 0.  0.
        -12    1    3    3    0    0 -0.32932618468E+02 -0.15912907631E+02 -0.42429157500E+01  0.36820922347E+02  0.00000000000E+00 0.  1.
         11    1    4    4    0    0  0.51010706982E+01 -0.32869167693E+01 -0.20524995886E+01  0.64060517434E+01  0.51100000000E-03 0. -1.
        -11    1    4    4    0    0  0.11012327314E+02 -0.90264779634E+01 -0.11007042038E+01  0.14281463766E+02  0.51100000000E-03 0.  1.
         12    1    4    4    0    0  0.16819220456E+02  0.28226302364E+02  0.73961195424E+01  0.33679562143E+02  0.00000000000E+00 0. -1.
</event>
<event>
 8    1  0.1212194E-006  0.9118800E+02  0.7816164E-02  0.1184000E+00
        -11   -1    0    0    0    0  0.00000000000E+00  0.00000000000E+00  0.45593999997E+02  0.45594000000E+02  0.51100000000E-03 0.  1.
         11   -1    0    0    0    0 -0.00000000000E+00 -0.00000000000E+00 -0.45593999997E+02  0.45594000000E+02  0.51100000000E-03 0. -1.
         23    2    1    2    0    0  0.00000000000E+00  0.00000000000E+00  0.00000000000E+00  0.91188000000E+02  0.91188000000E+02 0.  0.
    9900012    2    3    3    0    0 -0.15568226714E+02 -0.82519147527E+01 -0.32331298314E+02  0.54367127784E+02  0.40000099408E+02 0.  0.
        -12    1    3    3    0    0  0.15568226714E+02  0.82519147527E+01  0.32331298314E+02  0.36820872216E+02  0.00000000000E+00 0.  1.
         11    1    4    4    0    0 -0.19083507938E+01 -0.37745184412E+01 -0.97954883190E+01  0.10669600924E+02  0.51100000000E-03 0. -1.
        -11    1    4    4    0    0  0.82593668004E+01 -0.11697809584E+02 -0.76474025954E+01  0.16233873713E+02  0.51100000000E-03 0.  1.
         12    1    4    4    0    0 -0.21919242721E+02  0.72204132724E+01 -0.14888407400E+02  0.27463653147E+02  0.00000000000E+00 0. -1.
</event>
<event>
 8    1  0.1212194E-006  0.9118800E+02  0.7816164E-02  0.1184000E+00
        -11   -1    0    0    0    0  0.00000000000E+00  0.00000000000E+00  0.45593999997E+02  0.45594000000E+02  0.51100000000E-03 0.  1.
         11   -1    0    0    0    0 -0.00000000000E+00 -0.00000000000E+00 -0.45593999997E+02  0.45594000000E+02  0.51100000000E-03 0. -1.
         23    2    1    2    0    0  0.00000000000E+00  0.00000000000E+00  0.17763568394E-14  0.91188000000E+02  0.91188000000E+02 0.  0.
    9900012    2    3    3    0    0  0.32750213979E+02  0.10373432931E+02  0.13251141289E+02  0.54367117720E+02  0.40000076466E+02 0.  0.
         12    1    3    3    0    0 -0.32750213979E+02 -0.10373432931E+02 -0.13251141289E+02  0.36820882280E+02  0.00000000000E+00 0. -1.
         11    1    4    4    0    0  0.11880366083E+02 -0.53841590849E+01 -0.59914412238E+01  0.14353732459E+02  0.51100000000E-03 0. -1.
        -11    1    4    4    0    0  0.23047890395E+02  0.12899604676E+02  0.22847861422E+02  0.34923198941E+02  0.51100000000E-03 0.  1.
        -12    1    4    4    0    0 -0.21780424988E+01  0.28579873392E+01 -0.36052789092E+01  0.50901863198E+01  0.00000000000E+00 0.  1.
</event>
<event>
 8    1  0.1212194E-006  0.9118800E+02  0.7816164E-02  0.1184000E+00
        -11   -1    0    0    0    0  0.00000000000E+00  0.00000000000E+00  0.45593999997E+02  0.45594000000E+02  0.51100000000E-03 0. -1.
         11   -1    0    0    0    0 -0.00000000000E+00 -0.00000000000E+00 -0.45593999997E+02  0.45594000000E+02  0.51100000000E-03 0.  1.
         23    2    1    2    0    0 -0.35527136788E-14  0.00000000000E+00  0.17763568394E-14  0.91188000000E+02  0.91188000000E+02 0.  0.
    9900012    2    3    3    0    0  0.26268846762E+02 -0.23203017163E+02  0.11284831600E+02  0.54367085563E+02  0.40000003159E+02 0.  0.
         12    1    3    3    0    0 -0.26268846762E+02  0.23203017163E+02 -0.11284831600E+02  0.36820914437E+02  0.00000000000E+00 0. -1.
         11    1    4    4    0    0  0.14018024344E+02  0.56041631877E+01  0.12736779768E+02  0.19751891319E+02  0.51100000000E-03 0. -1.
        -11    1    4    4    0    0 -0.32544589174E+01 -0.27892116810E+01 -0.46557746994E+00  0.43113764957E+01  0.51100000000E-03 0.  1.
        -12    1    4    4    0    0  0.15505281336E+02 -0.26017968670E+02 -0.98637069793E+00  0.30303817749E+02  0.00000000000E+00 0.  1.
</event>
<event>
 8    1  0.1212194E-006  0.9118800E+02  0.7816164E-02  0.1184000E+00
        -11   -1    0    0    0    0  0.00000000000E+00  0.00000000000E+00  0.45593999997E+02  0.45594000000E+02  0.51100000000E-03 0. -1.
         11   -1    0    0    0    0 -0.00000000000E+00 -0.00000000000E+00 -0.45593999997E+02  0.45594000000E+02  0.51100000000E-03 0.  1.
         23    2    1    2    0    0 -0.22204460493E-15  0.35527136788E-14  0.35527136788E-14  0.91188000000E+02  0.91188000000E+02 0.  0.
    9900012    2    3    3    0    0 -0.17012310734E+01 -0.25281310248E+02  0.26715966448E+02  0.54367058971E+02  0.39999942536E+02 0.  0.
        -12    1    3    3    0    0  0.17012310734E+01  0.25281310248E+02 -0.26715966448E+02  0.36820941029E+02  0.00000000000E+00 0.  1.
         11    1    4    4    0    0 -0.17720562614E+01 -0.11347833310E+02  0.16708118906E+01  0.11606253351E+02  0.51100000000E-03 0. -1.
        -11    1    4    4    0    0 -0.66665006218E+01  0.20026494042E+01 -0.46653392789E+01  0.83796316163E+01  0.51100000000E-03 0.  1.
         12    1    4    4    0    0  0.67373258097E+01 -0.15936126342E+02  0.29710493836E+02  0.34381174003E+02  0.00000000000E+00 0. -1.
</event>
<event>
 8    1  0.1212194E-006  0.9118800E+02  0.7816164E-02  0.1184000E+00
        -11   -1    0    0    0    0  0.00000000000E+00  0.00000000000E+00  0.45593999997E+02  0.45594000000E+02  0.51100000000E-03 0. -1.
         11   -1    0    0    0    0 -0.00000000000E+00 -0.00000000000E+00 -0.45593999997E+02  0.45594000000E+02  0.51100000000E-03 0.  1.
         23    2    1    2    0    0  0.00000000000E+00  0.00000000000E+00  0.00000000000E+00  0.91188000000E+02  0.91188000000E+02 0.  0.
    9900012    2    3    3    0    0 -0.10044160591E+02 -0.24389947338E+02  0.25690966698E+02  0.54367075744E+02  0.39999980774E+02 0.  0.
        -12    1    3    3    0    0  0.10044160591E+02  0.24389947338E+02 -0.25690966698E+02  0.36820924256E+02  0.00000000000E+00 0.  1.
         11    1    4    4    0    0 -0.62754586856E+01  0.34441151453E+01  0.95462653213E+01  0.11932078306E+02  0.51100000000E-03 0. -1.
        -11    1    4    4    0    0 -0.49970427821E+01 -0.32966210436E+02  0.11119623292E+02  0.35148079457E+02  0.51100000000E-03 0.  1.
        -12    1    4    4    0    0  0.12283408762E+01  0.51321479525E+01  0.50250780847E+01  0.72869179817E+01  0.00000000000E+00 0.  1.
</event>
<event>
 8    1  0.1212194E-006  0.9118800E+02  0.7816164E-02  0.1184000E+00
        -11   -1    0    0    0    0  0.00000000000E+00  0.00000000000E+00  0.45593999997E+02  0.45594000000E+02  0.51100000000E-03 0. -1.
         11   -1    0    0    0    0 -0.00000000000E+00 -0.00000000000E+00 -0.45593999997E+02  0.45594000000E+02  0.51100000000E-03 0.  1.
         23    2    1    2    0    0 -0.17763568394E-14  0.17763568394E-14 -0.71054273576E-14  0.91188000000E+02  0.91188000000E+02 0.  0.
    9900012    2    3    3    0    0  0.14328756452E+02 -0.36651591712E+01  0.33719907940E+02  0.54367097720E+02  0.40000030873E+02 0.  0.
        -12    1    3    3    0    0 -0.14328756452E+02  0.36651591712E+01 -0.33719907940E+02  0.36820902280E+02  0.00000000000E+00 0.  1.
         11    1    4    4    0    0  0.14394019009E+02 -0.14037792779E+02  0.85811059443E+01  0.21860530387E+02  0.51100000000E-03 0.  1.
        -11    1    4    4    0    0  0.41534310836E+01  0.12904009079E+02  0.23829416739E+02  0.27415425265E+02  0.51100000000E-03 0. -1.
         12    1    4    4    0    0 -0.42186936404E+01 -0.25313754715E+01  0.13093852568E+01  0.50911420683E+01  0.00000000000E+00 0. -1.
</event>
<event>
 8    1  0.1212194E-006  0.9118800E+02  0.7816164E-02  0.1184000E+00
        -11   -1    0    0    0    0  0.00000000000E+00  0.00000000000E+00  0.45593999997E+02  0.45594000000E+02  0.51100000000E-03 0. -1.
         11   -1    0    0    0    0 -0.00000000000E+00 -0.00000000000E+00 -0.45593999997E+02  0.45594000000E+02  0.51100000000E-03 0.  1.
         23    2    1    2    0    0  0.00000000000E+00 -0.44408920985E-15  0.00000000000E+00  0.91188000000E+02  0.91188000000E+02 0.  0.
    9900012    2    3    3    0    0  0.61388127294E+01 -0.85637339681E+00  0.36295469365E+02  0.54367088910E+02  0.40000010788E+02 0.  0.
        -12    1    3    3    0    0 -0.61388127294E+01  0.85637339681E+00 -0.36295469365E+02  0.36820911090E+02  0.00000000000E+00 0.  1.
         11    1    4    4    0    0  0.13621316167E+02  0.69202003200E+00  0.10370843987E+02  0.17133988185E+02  0.51100000000E-03 0. -1.
        -11    1    4    4    0    0 -0.30215894575E+01  0.58649478598E+01 -0.28493074904E+01  0.71865269556E+01  0.51100000000E-03 0.  1.
         12    1    4    4    0    0 -0.44609139803E+01 -0.74133412886E+01  0.28773932867E+02  0.30046573769E+02  0.00000000000E+00 0. -1.
</event>
<event>
 8    1  0.1212194E-006  0.9118800E+02  0.7816164E-02  0.1184000E+00
        -11   -1    0    0    0    0  0.00000000000E+00  0.00000000000E+00  0.45593999997E+02  0.45594000000E+02  0.51100000000E-03 0.  1.
         11   -1    0    0    0    0 -0.00000000000E+00 -0.00000000000E+00 -0.45593999997E+02  0.45594000000E+02  0.51100000000E-03 0. -1.
         23    2    1    2    0    0 -0.88817841970E-15  0.00000000000E+00  0.00000000000E+00  0.91188000000E+02  0.91188000000E+02 0.  0.
    9900012    2    3    3    0    0 -0.24813887342E+01  0.34367348238E+02 -0.12981085371E+02  0.54367075346E+02  0.39999979866E+02 0.  0.
        -12    1    3    3    0    0  0.24813887342E+01 -0.34367348238E+02  0.12981085371E+02  0.36820924654E+02  0.00000000000E+00 0.  1.
         11    1    4    4    0    0 -0.12403948744E+02  0.19172844115E+02  0.29302778762E+01  0.23022650251E+02  0.51100000000E-03 0. -1.
        -11    1    4    4    0    0 -0.49689457106E+01  0.81179090232E+01 -0.10061219466E+02  0.13849873854E+02  0.51100000000E-03 0.  1.
        -12    1    4    4    0    0  0.14891505721E+02  0.70765951001E+01 -0.58501437818E+01  0.17494551241E+02  0.00000000000E+00 0.  1.
</event>
<event>
 8    1  0.1212194E-006  0.9118800E+02  0.7816164E-02  0.1184000E+00
        -11   -1    0    0    0    0  0.00000000000E+00  0.00000000000E+00  0.45593999997E+02  0.45594000000E+02  0.51100000000E-03 0.  1.
         11   -1    0    0    0    0 -0.00000000000E+00 -0.00000000000E+00 -0.45593999997E+02  0.45594000000E+02  0.51100000000E-03 0. -1.
         23    2    1    2    0    0  0.00000000000E+00 -0.88817841970E-15  0.00000000000E+00  0.91188000000E+02  0.91188000000E+02 0.  0.
    9900012    2    3    3    0    0  0.18933535992E+02 -0.59319031994E+01 -0.31017958803E+02  0.54367081638E+02  0.39999994211E+02 0.  0.
        -12    1    3    3    0    0 -0.18933535992E+02  0.59319031994E+01  0.31017958803E+02  0.36820918362E+02  0.00000000000E+00 0.  1.
         11    1    4    4    0    0  0.12766098326E+02 -0.64143456204E+00 -0.12829411347E+02  0.18110176712E+02  0.51100000000E-03 0. -1.
        -11    1    4    4    0    0  0.10930620740E+02 -0.13792591830E+02 -0.24823638893E+01  0.17772906062E+02  0.51100000000E-03 0.  1.
        -12    1    4    4    0    0 -0.47631830746E+01  0.85021231927E+01 -0.15706183566E+02  0.18483998864E+02  0.00000000000E+00 0.  1.
</event>
<event>
 8    1  0.1212194E-006  0.9118800E+02  0.7816164E-02  0.1184000E+00
        -11   -1    0    0    0    0  0.00000000000E+00  0.00000000000E+00  0.45593999997E+02  0.45594000000E+02  0.51100000000E-03 0. -1.
         11   -1    0    0    0    0 -0.00000000000E+00 -0.00000000000E+00 -0.45593999997E+02  0.45594000000E+02  0.51100000000E-03 0.  1.
         23    2    1    2    0    0  0.00000000000E+00  0.88817841970E-15 -0.17763568394E-14  0.91188000000E+02  0.91188000000E+02 0.  0.
    9900012    2    3    3    0    0  0.36322685415E+02  0.48815381327E+01 -0.35514568833E+01  0.54367085613E+02  0.40000003273E+02 0.  0.
         12    1    3    3    0    0 -0.36322685415E+02 -0.48815381327E+01  0.35514568833E+01  0.36820914387E+02  0.00000000000E+00 0. -1.
         11    1    4    4    0    0  0.58507713939E+01  0.30173681967E+01 -0.59453696890E+00  0.66098041731E+01  0.51100000000E-03 0. -1.
        -11    1    4    4    0    0  0.25901018916E+02 -0.67731113975E+01 -0.16205434763E+02  0.31294631089E+02  0.51100000000E-03 0.  1.
         12    1    4    4    0    0  0.45708951047E+01  0.86372813335E+01  0.13248514848E+02  0.16462650351E+02  0.00000000000E+00 0. -1.
</event>
<event>
 8    1  0.1212194E-006  0.9118800E+02  0.7816164E-02  0.1184000E+00
        -11   -1    0    0    0    0  0.00000000000E+00  0.00000000000E+00  0.45593999997E+02  0.45594000000E+02  0.51100000000E-03 0. -1.
         11   -1    0    0    0    0 -0.00000000000E+00 -0.00000000000E+00 -0.45593999997E+02  0.45594000000E+02  0.51100000000E-03 0.  1.
         23    2    1    2    0    0  0.00000000000E+00 -0.71054273576E-14 -0.35527136788E-14  0.91188000000E+02  0.91188000000E+02 0.  0.
    9900012    2    3    3    0    0  0.29594157490E+01 -0.34552442346E+02 -0.12375409463E+02  0.54367079683E+02  0.39999989752E+02 0.  0.
         12    1    3    3    0    0 -0.29594157490E+01  0.34552442346E+02  0.12375409463E+02  0.36820920317E+02  0.00000000000E+00 0. -1.
         11    1    4    4    0    0  0.11387270777E+02 -0.32930135855E+02 -0.16547961900E+02  0.38573291621E+02  0.51100000000E-03 0. -1.
        -11    1    4    4    0    0  0.43518205802E+00  0.43778844677E+01  0.21679335846E+01  0.49046092734E+01  0.51100000000E-03 0.  1.
        -12    1    4    4    0    0 -0.88630370863E+01 -0.60001909590E+01  0.20046188527E+01  0.10889178788E+02  0.00000000000E+00 0.  1.
</event>
<event>
 8    1  0.1212194E-006  0.9118800E+02  0.7816164E-02  0.1184000E+00
        -11   -1    0    0    0    0  0.00000000000E+00  0.00000000000E+00  0.45593999997E+02  0.45594000000E+02  0.51100000000E-03 0.  1.
         11   -1    0    0    0    0 -0.00000000000E+00 -0.00000000000E+00 -0.45593999997E+02  0.45594000000E+02  0.51100000000E-03 0. -1.
         23    2    1    2    0    0 -0.13322676296E-14  0.00000000000E+00  0.00000000000E+00  0.91188000000E+02  0.91188000000E+02 0.  0.
    9900012    2    3    3    0    0  0.30710654658E+01  0.10413810671E+02  0.35183730960E+02  0.54367165951E+02  0.40000186417E+02 0.  0.
         12    1    3    3    0    0 -0.30710654658E+01 -0.10413810671E+02 -0.35183730960E+02  0.36820834049E+02  0.00000000000E+00 0. -1.
         11    1    4    4    0    0  0.15926287853E+02  0.15070347332E+02  0.20710349309E+02  0.30160911496E+02  0.51100000000E-03 0. -1.
        -11    1    4    4    0    0 -0.30954589346E+01 -0.66651179230E+01  0.11780070248E+02  0.13884369567E+02  0.51100000000E-03 0.  1.
         12    1    4    4    0    0 -0.97597634526E+01  0.20085812627E+01  0.26933114026E+01  0.10321884889E+02  0.00000000000E+00 0. -1.
</event>
<event>
 8    1  0.1212194E-006  0.9118800E+02  0.7816164E-02  0.1184000E+00
        -11   -1    0    0    0    0  0.00000000000E+00  0.00000000000E+00  0.45593999997E+02  0.45594000000E+02  0.51100000000E-03 0.  1.
         11   -1    0    0    0    0 -0.00000000000E+00 -0.00000000000E+00 -0.45593999997E+02  0.45594000000E+02  0.51100000000E-03 0. -1.
         23    2    1    2    0    0  0.00000000000E+00 -0.35527136788E-14  0.35527136788E-14  0.91188000000E+02  0.91188000000E+02 0.  0.
    9900012    2    3    3    0    0 -0.81401266032E+01  0.22823260339E+02 -0.27723912212E+02  0.54367106720E+02  0.40000051389E+02 0.  0.
        -12    1    3    3    0    0  0.81401266032E+01 -0.22823260339E+02  0.27723912212E+02  0.36820893280E+02  0.00000000000E+00 0.  1.
         11    1    4    4    0    0 -0.33337516193E+01 -0.44897415548E+01 -0.87304008513E+01  0.10367814542E+02  0.51100000000E-03 0. -1.
        -11    1    4    4    0    0  0.61987457393E+00 -0.39172789933E+01 -0.10439105504E+02  0.11167105408E+02  0.51100000000E-03 0.  1.
        -12    1    4    4    0    0 -0.54262495578E+01  0.31230280887E+02 -0.85544058562E+01  0.32832186770E+02  0.00000000000E+00 0.  1.
</event>
<event>
 8    1  0.1212194E-006  0.9118800E+02  0.7816164E-02  0.1184000E+00
        -11   -1    0    0    0    0  0.00000000000E+00  0.00000000000E+00  0.45593999997E+02  0.45594000000E+02  0.51100000000E-03 0. -1.
         11   -1    0    0    0    0 -0.00000000000E+00 -0.00000000000E+00 -0.45593999997E+02  0.45594000000E+02  0.51100000000E-03 0.  1.
         23    2    1    2    0    0 -0.17763568394E-14 -0.35527136788E-14 -0.35527136788E-14  0.91188000000E+02  0.91188000000E+02 0.  0.
    9900012    2    3    3    0    0  0.14224558819E+02 -0.25491413823E+02 -0.22441676867E+02  0.54367094079E+02  0.40000022571E+02 0.  0.
        -12    1    3    3    0    0 -0.14224558819E+02  0.25491413823E+02  0.22441676867E+02  0.36820905921E+02  0.00000000000E+00 0.  1.
         11    1    4    4    0    0  0.45431811783E+01 -0.26395357244E+02 -0.14002517830E+02  0.30222936407E+02  0.51100000000E-03 0. -1.
        -11    1    4    4    0    0  0.11874425846E+02 -0.39572530184E+01 -0.12309141564E+02  0.17554965307E+02  0.51100000000E-03 0.  1.
         12    1    4    4    0    0 -0.21930482061E+01  0.48611964392E+01  0.38699825268E+01  0.65891923642E+01  0.00000000000E+00 0. -1.
</event>
<event>
 8    1  0.1212194E-006  0.9118800E+02  0.7816164E-02  0.1184000E+00
        -11   -1    0    0    0    0  0.00000000000E+00  0.00000000000E+00  0.45593999997E+02  0.45594000000E+02  0.51100000000E-03 0.  1.
         11   -1    0    0    0    0 -0.00000000000E+00 -0.00000000000E+00 -0.45593999997E+02  0.45594000000E+02  0.51100000000E-03 0. -1.
         23    2    1    2    0    0  0.00000000000E+00  0.00000000000E+00  0.88817841970E-15  0.91188000000E+02  0.91188000000E+02 0.  0.
    9900012    2    3    3    0    0  0.32427413791E+02 -0.16314394357E+02 -0.61711105007E+01  0.54367092445E+02  0.40000018846E+02 0.  0.
        -12    1    3    3    0    0 -0.32427413791E+02  0.16314394357E+02  0.61711105007E+01  0.36820907555E+02  0.00000000000E+00 0.  1.
         11    1    4    4    0    0  0.66151083055E+01 -0.13602573057E+01 -0.70754205672E+00  0.67904767030E+01  0.51100000000E-03 0. -1.
        -11    1    4    4    0    0  0.37802572265E+01 -0.62242274654E+01 -0.18955758219E+02  0.20306455185E+02  0.51100000000E-03 0.  1.
        -12    1    4    4    0    0  0.22032048259E+02 -0.87299095858E+01  0.13492189775E+02  0.27270160557E+02  0.00000000000E+00 0.  1.
</event>
<event>
 8    1  0.1212194E-006  0.9118800E+02  0.7816164E-02  0.1184000E+00
        -11   -1    0    0    0    0  0.00000000000E+00  0.00000000000E+00  0.45593999997E+02  0.45594000000E+02  0.51100000000E-03 0.  1.
         11   -1    0    0    0    0 -0.00000000000E+00 -0.00000000000E+00 -0.45593999997E+02  0.45594000000E+02  0.51100000000E-03 0. -1.
         23    2    1    2    0    0  0.00000000000E+00 -0.35527136788E-14  0.00000000000E+00  0.91188000000E+02  0.91188000000E+02 0.  0.
    9900012    2    3    3    0    0  0.21775765810E+02  0.12673971001E+02  0.26850823228E+02  0.54367078969E+02  0.39999988125E+02 0.  0.
         12    1    3    3    0    0 -0.21775765810E+02 -0.12673971001E+02 -0.26850823228E+02  0.36820921031E+02  0.00000000000E+00 0. -1.
         11    1    4    4    0    0  0.93017103359E+01  0.54906202589E+01 -0.74571890558E+01  0.13125486462E+02  0.51100000000E-03 0. -1.
        -11    1    4    4    0    0  0.11645798309E+02  0.10485454842E+02  0.15195522544E+02  0.21828268075E+02  0.51100000000E-03 0.  1.
        -12    1    4    4    0    0  0.82825716527E+00 -0.33021040995E+01  0.19112489740E+02  0.19413324431E+02  0.00000000000E+00 0.  1.
</event>
<event>
 8    1  0.1212194E-006  0.9118800E+02  0.7816164E-02  0.1184000E+00
        -11   -1    0    0    0    0  0.00000000000E+00  0.00000000000E+00  0.45593999997E+02  0.45594000000E+02  0.51100000000E-03 0. -1.
         11   -1    0    0    0    0 -0.00000000000E+00 -0.00000000000E+00 -0.45593999997E+02  0.45594000000E+02  0.51100000000E-03 0.  1.
         23    2    1    2    0    0  0.00000000000E+00  0.00000000000E+00  0.00000000000E+00  0.91188000000E+02  0.91188000000E+02 0.  0.
    9900012    2    3    3    0    0  0.17173819422E+02 -0.22207575458E+02  0.23825707853E+02  0.54367070680E+02  0.39999969230E+02 0.  0.
        -12    1    3    3    0    0 -0.17173819422E+02  0.22207575458E+02 -0.23825707853E+02  0.36820929320E+02  0.00000000000E+00 0.  1.
         11    1    4    4    0    0  0.28945693353E+01 -0.23144350470E+02  0.83142664549E+01  0.24762199362E+02  0.51100000000E-03 0. -1.
        -11    1    4    4    0    0 -0.18093647486E+01  0.87257390780E+00  0.13198774729E+02  0.13350761799E+02  0.51100000000E-03 0.  1.
        -12    1    4    4    0    0  0.16088614836E+02  0.64201104766E-01  0.23126666698E+01  0.16254109519E+02  0.00000000000E+00 0.  1.
</event>
<event>
 8    1  0.1212194E-006  0.9118800E+02  0.7816164E-02  0.1184000E+00
        -11   -1    0    0    0    0  0.00000000000E+00  0.00000000000E+00  0.45593999997E+02  0.45594000000E+02  0.51100000000E-03 0. -1.
         11   -1    0    0    0    0 -0.00000000000E+00 -0.00000000000E+00 -0.45593999997E+02  0.45594000000E+02  0.51100000000E-03 0.  1.
         23    2    1    2    0    0  0.35527136788E-14  0.00000000000E+00 -0.35527136788E-14  0.91188000000E+02  0.91188000000E+02 0.  0.
    9900012    2    3    3    0    0  0.31538019944E+02 -0.85120312486E+01  0.16990461194E+02  0.54367120739E+02  0.40000083349E+02 0.  0.
        -12    1    3    3    0    0 -0.31538019944E+02  0.85120312486E+01 -0.16990461194E+02  0.36820879261E+02  0.00000000000E+00 0.  1.
         11    1    4    4    0    0 -0.36519835921E+00 -0.10446918631E+01  0.22152828109E+00  0.11286389905E+01  0.51100000000E-03 0. -1.
        -11    1    4    4    0    0  0.69611001043E+00 -0.13948954682E+02  0.16160864468E+02  0.21359575054E+02  0.51100000000E-03 0.  1.
        -12    1    4    4    0    0  0.31207108293E+02  0.64816152965E+01  0.60806844464E+00  0.31878906695E+02  0.00000000000E+00 0.  1.
</event>
<event>
 8    1  0.1212194E-006  0.9118800E+02  0.7816164E-02  0.1184000E+00
        -11   -1    0    0    0    0  0.00000000000E+00  0.00000000000E+00  0.45593999997E+02  0.45594000000E+02  0.51100000000E-03 0. -1.
         11   -1    0    0    0    0 -0.00000000000E+00 -0.00000000000E+00 -0.45593999997E+02  0.45594000000E+02  0.51100000000E-03 0.  1.
         23    2    1    2    0    0 -0.71054273576E-14  0.35527136788E-14  0.53290705182E-14  0.91188000000E+02  0.91188000000E+02 0.  0.
    9900012    2    3    3    0    0 -0.28477647996E+02  0.18691190730E+02  0.13980080982E+02  0.54367085963E+02  0.40000004069E+02 0.  0.
        -12    1    3    3    0    0  0.28477647996E+02 -0.18691190730E+02 -0.13980080982E+02  0.36820914037E+02  0.00000000000E+00 0.  1.
         11    1    4    4    0    0 -0.16566731997E+01 -0.23105426070E+01 -0.29646977935E+01  0.41076278430E+01  0.51100000000E-03 0. -1.
        -11    1    4    4    0    0 -0.59996771927E+01 -0.85950185359E+01  0.74126243872E+01  0.12838125666E+02  0.51100000000E-03 0.  1.
         12    1    4    4    0    0 -0.20821297604E+02  0.29596751873E+02  0.95321543882E+01  0.37421332454E+02  0.00000000000E+00 0. -1.
</event>
<event>
 8    1  0.1212194E-006  0.9118800E+02  0.7816164E-02  0.1184000E+00
        -11   -1    0    0    0    0  0.00000000000E+00  0.00000000000E+00  0.45593999997E+02  0.45594000000E+02  0.51100000000E-03 0.  1.
         11   -1    0    0    0    0 -0.00000000000E+00 -0.00000000000E+00 -0.45593999997E+02  0.45594000000E+02  0.51100000000E-03 0. -1.
         23    2    1    2    0    0  0.00000000000E+00  0.71054273576E-14  0.17763568394E-14  0.91188000000E+02  0.91188000000E+02 0.  0.
    9900012    2    3    3    0    0 -0.89843866351E+01 -0.34005232881E+02 -0.10895169597E+02  0.54367084924E+02  0.40000001702E+02 0.  0.
        -12    1    3    3    0    0  0.89843866351E+01  0.34005232881E+02  0.10895169597E+02  0.36820915076E+02  0.00000000000E+00 0.  1.
         11    1    4    4    0    0 -0.34321571932E+01  0.24354843489E+01 -0.47679533841E+01  0.63596121538E+01  0.51100000000E-03 0. -1.
        -11    1    4    4    0    0  0.53412074347E+01 -0.25395561368E+02  0.78643850132E+01  0.27116629325E+02  0.51100000000E-03 0.  1.
         12    1    4    4    0    0 -0.10893436877E+02 -0.11045155862E+02 -0.13991601226E+02  0.20890843446E+02  0.00000000000E+00 0. -1.
</event>
<event>
 8    1  0.1212194E-006  0.9118800E+02  0.7816164E-02  0.1184000E+00
        -11   -1    0    0    0    0  0.00000000000E+00  0.00000000000E+00  0.45593999997E+02  0.45594000000E+02  0.51100000000E-03 0. -1.
         11   -1    0    0    0    0 -0.00000000000E+00 -0.00000000000E+00 -0.45593999997E+02  0.45594000000E+02  0.51100000000E-03 0.  1.
         23    2    1    2    0    0  0.00000000000E+00  0.61062266354E-15  0.00000000000E+00  0.91188000000E+02  0.91188000000E+02 0.  0.
    9900012    2    3    3    0    0  0.64314123555E+01 -0.35619972085E+00 -0.36253120984E+02  0.54367099356E+02  0.40000034602E+02 0.  0.
         12    1    3    3    0    0 -0.64314123555E+01  0.35619972085E+00  0.36253120984E+02  0.36820900644E+02  0.00000000000E+00 0. -1.
         11    1    4    4    0    0  0.31036140844E+01  0.12975475953E+02 -0.10043008555E+02  0.16699024453E+02  0.51100000000E-03 0. -1.
        -11    1    4    4    0    0 -0.52537600675E+01 -0.14201090609E+02 -0.71456764368E+01  0.16743167602E+02  0.51100000000E-03 0.  1.
        -12    1    4    4    0    0  0.85815583386E+01  0.86941493479E+00 -0.19064435993E+02  0.20924907301E+02  0.00000000000E+00 0.  1.
</event>
<event>
 8    1  0.1212194E-006  0.9118800E+02  0.7816164E-02  0.1184000E+00
        -11   -1    0    0    0    0  0.00000000000E+00  0.00000000000E+00  0.45593999997E+02  0.45594000000E+02  0.51100000000E-03 0. -1.
         11   -1    0    0    0    0 -0.00000000000E+00 -0.00000000000E+00 -0.45593999997E+02  0.45594000000E+02  0.51100000000E-03 0.  1.
         23    2    1    2    0    0  0.00000000000E+00  0.00000000000E+00  0.00000000000E+00  0.91188000000E+02  0.91188000000E+02 0.  0.
    9900012    2    3    3    0    0  0.21935338969E+01  0.19664834012E+02  0.31052574190E+02  0.54367086765E+02  0.40000005898E+02 0.  0.
        -12    1    3    3    0    0 -0.21935338969E+01 -0.19664834012E+02 -0.31052574190E+02  0.36820913235E+02  0.00000000000E+00 0.  1.
         11    1    4    4    0    0 -0.15027754912E+01  0.27195710716E+00  0.55333835321E+01  0.57402637936E+01  0.51100000000E-03 0. -1.
        -11    1    4    4    0    0  0.47565414596E+01 -0.97184279299E+01  0.16067221598E+01  0.10938650943E+02  0.51100000000E-03 0.  1.
        -12    1    4    4    0    0 -0.10602320715E+01  0.29111304835E+02  0.23912468498E+02  0.37688172029E+02  0.00000000000E+00 0.  1.
</event>
<event>
 8    1  0.1212194E-006  0.9118800E+02  0.7816164E-02  0.1184000E+00
        -11   -1    0    0    0    0  0.00000000000E+00  0.00000000000E+00  0.45593999997E+02  0.45594000000E+02  0.51100000000E-03 0.  1.
         11   -1    0    0    0    0 -0.00000000000E+00 -0.00000000000E+00 -0.45593999997E+02  0.45594000000E+02  0.51100000000E-03 0. -1.
         23    2    1    2    0    0  0.00000000000E+00 -0.17763568394E-14  0.00000000000E+00  0.91188000000E+02  0.91188000000E+02 0.  0.
    9900012    2    3    3    0    0 -0.32603150969E+02 -0.13608601432E+02  0.10374095187E+02  0.54367063877E+02  0.39999953720E+02 0.  0.
         12    1    3    3    0    0  0.32603150969E+02  0.13608601432E+02 -0.10374095187E+02  0.36820936123E+02  0.00000000000E+00 0. -1.
         11    1    4    4    0    0  0.18069042697E+01  0.43469364996E+01  0.52997416857E+01  0.70885839325E+01  0.51100000000E-03 0. -1.
        -11    1    4    4    0    0 -0.22209471711E+02 -0.22325697620E+02 -0.35811326843E+01  0.31694193782E+02  0.51100000000E-03 0.  1.
         12    1    4    4    0    0 -0.12200583527E+02  0.43701596880E+01  0.86554861852E+01  0.15584286163E+02  0.00000000000E+00 0. -1.
</event>
<event>
 8    1  0.1212194E-006  0.9118800E+02  0.7816164E-02  0.1184000E+00
        -11   -1    0    0    0    0  0.00000000000E+00  0.00000000000E+00  0.45593999997E+02  0.45594000000E+02  0.51100000000E-03 0. -1.
         11   -1    0    0    0    0 -0.00000000000E+00 -0.00000000000E+00 -0.45593999997E+02  0.45594000000E+02  0.51100000000E-03 0.  1.
         23    2    1    2    0    0  0.00000000000E+00 -0.35527136788E-14 -0.88817841970E-15  0.91188000000E+02  0.91188000000E+02 0.  0.
    9900012    2    3    3    0    0  0.19497725813E+02 -0.30830505728E+02 -0.50097045101E+01  0.54367101931E+02  0.40000040473E+02 0.  0.
         12    1    3    3    0    0 -0.19497725813E+02  0.30830505728E+02  0.50097045101E+01  0.36820898069E+02  0.00000000000E+00 0. -1.
         11    1    4    4    0    0  0.67340805265E+01  0.51699152325E+01  0.68409564979E+01  0.10902960612E+02  0.51100000000E-03 0. -1.
        -11    1    4    4    0    0  0.41090608600E+01 -0.30570447415E+02 -0.12371565768E+02  0.33233902511E+02  0.51100000000E-03 0.  1.
         12    1    4    4    0    0  0.86545844262E+01 -0.54299735454E+01  0.52090476019E+00  0.10230238808E+02  0.00000000000E+00 0. -1.
</event>
<event>
 8    1  0.1212194E-006  0.9118800E+02  0.7816164E-02  0.1184000E+00
        -11   -1    0    0    0    0  0.00000000000E+00  0.00000000000E+00  0.45593999997E+02  0.45594000000E+02  0.51100000000E-03 0. -1.
         11   -1    0    0    0    0 -0.00000000000E+00 -0.00000000000E+00 -0.45593999997E+02  0.45594000000E+02  0.51100000000E-03 0.  1.
         23    2    1    2    0    0  0.17763568394E-14  0.00000000000E+00  0.00000000000E+00  0.91188000000E+02  0.91188000000E+02 0.  0.
    9900012    2    3    3    0    0  0.61102867377E+01 -0.22483495287E+02  0.28512046713E+02  0.54367082411E+02  0.39999995972E+02 0.  0.
        -12    1    3    3    0    0 -0.61102867377E+01  0.22483495287E+02 -0.28512046713E+02  0.36820917589E+02  0.00000000000E+00 0.  1.
         11    1    4    4    0    0  0.76097329020E+01  0.64104098789E+01  0.86904909271E+01  0.13210829742E+02  0.51100000000E-03 0. -1.
        -11    1    4    4    0    0 -0.21047074621E+01 -0.24004046810E+02  0.37997019827E+01  0.24393888418E+02  0.51100000000E-03 0.  1.
        -12    1    4    4    0    0  0.60526129783E+00 -0.48898583560E+01  0.16021853803E+02  0.16762364251E+02  0.00000000000E+00 0.  1.
</event>
<event>
 8    1  0.1212194E-006  0.9118800E+02  0.7816164E-02  0.1184000E+00
        -11   -1    0    0    0    0  0.00000000000E+00  0.00000000000E+00  0.45593999997E+02  0.45594000000E+02  0.51100000000E-03 0. -1.
         11   -1    0    0    0    0 -0.00000000000E+00 -0.00000000000E+00 -0.45593999997E+02  0.45594000000E+02  0.51100000000E-03 0.  1.
         23    2    1    2    0    0  0.35527136788E-14  0.44408920985E-15 -0.35527136788E-14  0.91188000000E+02  0.91188000000E+02 0.  0.
    9900012    2    3    3    0    0  0.25330926927E+02  0.38886528599E+01 -0.26438609468E+02  0.54367115292E+02  0.40000070932E+02 0.  0.
         12    1    3    3    0    0 -0.25330926927E+02 -0.38886528599E+01  0.26438609468E+02  0.36820884708E+02  0.00000000000E+00 0. -1.
         11    1    4    4    0    0  0.15394827018E+01 -0.10799710379E+02  0.38018200507E+01  0.11552384482E+02  0.51100000000E-03 0. -1.
        -11    1    4    4    0    0  0.28075574464E+01 -0.17178800336E+01 -0.57786630639E+01  0.66502960605E+01  0.51100000000E-03 0.  1.
        -12    1    4    4    0    0  0.20983886779E+02  0.16406243273E+02 -0.24461766455E+02  0.36164434750E+02  0.00000000000E+00 0.  1.
</event>
<event>
 8    1  0.1212194E-006  0.9118800E+02  0.7816164E-02  0.1184000E+00
        -11   -1    0    0    0    0  0.00000000000E+00  0.00000000000E+00  0.45593999997E+02  0.45594000000E+02  0.51100000000E-03 0.  1.
         11   -1    0    0    0    0 -0.00000000000E+00 -0.00000000000E+00 -0.45593999997E+02  0.45594000000E+02  0.51100000000E-03 0. -1.
         23    2    1    2    0    0  0.00000000000E+00  0.17763568394E-14  0.00000000000E+00  0.91188000000E+02  0.91188000000E+02 0.  0.
    9900012    2    3    3    0    0  0.11536157636E+02 -0.53712643000E+01 -0.34552080929E+02  0.54367085974E+02  0.40000004095E+02 0.  0.
        -12    1    3    3    0    0 -0.11536157636E+02  0.53712643000E+01  0.34552080929E+02  0.36820914026E+02  0.00000000000E+00 0.  1.
         11    1    4    4    0    0  0.29808942211E+01  0.70422911575E+01 -0.12604781237E+02  0.14743137570E+02  0.51100000000E-03 0. -1.
        -11    1    4    4    0    0  0.11730541507E+02  0.56329625025E+01 -0.31822556622E+01  0.13396365998E+02  0.51100000000E-03 0.  1.
         12    1    4    4    0    0 -0.31752780921E+01 -0.18046517960E+02 -0.18765044029E+02  0.26227582406E+02  0.00000000000E+00 0. -1.
</event>
<event>
 8    1  0.1212194E-006  0.9118800E+02  0.7816164E-02  0.1184000E+00
        -11   -1    0    0    0    0  0.00000000000E+00  0.00000000000E+00  0.45593999997E+02  0.45594000000E+02  0.51100000000E-03 0. -1.
         11   -1    0    0    0    0 -0.00000000000E+00 -0.00000000000E+00 -0.45593999997E+02  0.45594000000E+02  0.51100000000E-03 0.  1.
         23    2    1    2    0    0  0.00000000000E+00 -0.88817841970E-15  0.71054273576E-14  0.91188000000E+02  0.91188000000E+02 0.  0.
    9900012    2    3    3    0    0  0.12253670215E+02  0.40714519700E+01 -0.34482609228E+02  0.54367088903E+02  0.40000010771E+02 0.  0.
         12    1    3    3    0    0 -0.12253670215E+02 -0.40714519700E+01  0.34482609228E+02  0.36820911097E+02  0.00000000000E+00 0. -1.
         11    1    4    4    0    0 -0.83849327441E+01 -0.10668075901E+02 -0.85707607243E+01  0.16049077239E+02  0.51100000000E-03 0. -1.
        -11    1    4    4    0    0  0.14708802068E+01 -0.16128799555E+01 -0.54150275728E+01  0.58384410770E+01  0.51100000000E-03 0.  1.
        -12    1    4    4    0    0  0.19167722753E+02  0.16352407827E+02 -0.20496820931E+02  0.32479570587E+02  0.00000000000E+00 0.  1.
</event>
<event>
 8    1  0.1212194E-006  0.9118800E+02  0.7816164E-02  0.1184000E+00
        -11   -1    0    0    0    0  0.00000000000E+00  0.00000000000E+00  0.45593999997E+02  0.45594000000E+02  0.51100000000E-03 0.  1.
         11   -1    0    0    0    0 -0.00000000000E+00 -0.00000000000E+00 -0.45593999997E+02  0.45594000000E+02  0.51100000000E-03 0. -1.
         23    2    1    2    0    0  0.35527136788E-14 -0.44408920985E-15  0.35527136788E-14  0.91188000000E+02  0.91188000000E+02 0.  0.
    9900012    2    3    3    0    0  0.29676634990E+02 -0.16294153072E+01 -0.21735592397E+02  0.54366896873E+02  0.39999573000E+02 0.  0.
        -12    1    3    3    0    0 -0.29676634990E+02  0.16294153072E+01  0.21735592397E+02  0.36821103127E+02  0.00000000000E+00 0.  1.
         11    1    4    4    0    0  0.28205194496E+02  0.36262322381E+01 -0.26079381222E+02  0.38585187340E+02  0.51100000000E-03 0. -1.
        -11    1    4    4    0    0  0.17055999411E+01 -0.12514518471E+01  0.92246884610E+01  0.94641471010E+01  0.51100000000E-03 0.  1.
         12    1    4    4    0    0 -0.23415944702E+00 -0.40041956982E+01 -0.48808996360E+01  0.63175624329E+01  0.00000000000E+00 0. -1.
</event>
<event>
 8    1  0.1212194E-006  0.9118800E+02  0.7816164E-02  0.1184000E+00
        -11   -1    0    0    0    0  0.00000000000E+00  0.00000000000E+00  0.45593999997E+02  0.45594000000E+02  0.51100000000E-03 0.  1.
         11   -1    0    0    0    0 -0.00000000000E+00 -0.00000000000E+00 -0.45593999997E+02  0.45594000000E+02  0.51100000000E-03 0. -1.
         23    2    1    2    0    0  0.17763568394E-14 -0.35527136788E-14  0.00000000000E+00  0.91188000000E+02  0.91188000000E+02 0.  0.
    9900012    2    3    3    0    0  0.41024872858E+01  0.18019229263E+02 -0.31847400564E+02  0.54367082740E+02  0.39999996722E+02 0.  0.
        -12    1    3    3    0    0 -0.41024872858E+01 -0.18019229263E+02  0.31847400564E+02  0.36820917260E+02  0.00000000000E+00 0.  1.
         11    1    4    4    0    0  0.15198936079E+02 -0.23254965598E+01 -0.10843698794E+02  0.18814924820E+02  0.51100000000E-03 0. -1.
        -11    1    4    4    0    0 -0.63569553415E+01  0.37694981451E+00 -0.11025544221E+02  0.12732462371E+02  0.51100000000E-03 0.  1.
         12    1    4    4    0    0 -0.47394934521E+01  0.19967776008E+02 -0.99781575493E+01  0.22819695549E+02  0.00000000000E+00 0. -1.
</event>
<event>
 8    1  0.1212194E-006  0.9118800E+02  0.7816164E-02  0.1184000E+00
        -11   -1    0    0    0    0  0.00000000000E+00  0.00000000000E+00  0.45593999997E+02  0.45594000000E+02  0.51100000000E-03 0.  1.
         11   -1    0    0    0    0 -0.00000000000E+00 -0.00000000000E+00 -0.45593999997E+02  0.45594000000E+02  0.51100000000E-03 0. -1.
         23    2    1    2    0    0  0.00000000000E+00  0.00000000000E+00 -0.35527136788E-14  0.91188000000E+02  0.91188000000E+02 0.  0.
    9900012    2    3    3    0    0 -0.20985106691E+02 -0.26287151948E+02 -0.14979668594E+02  0.54367088393E+02  0.40000009609E+02 0.  0.
        -12    1    3    3    0    0  0.20985106691E+02  0.26287151948E+02  0.14979668594E+02  0.36820911607E+02  0.00000000000E+00 0.  1.
         11    1    4    4    0    0  0.52811884369E+01 -0.13813548538E+02 -0.11355177472E+02  0.18645244171E+02  0.51100000000E-03 0.  1.
        -11    1    4    4    0    0 -0.16768044894E+02 -0.64166772228E+01  0.78919768882E+01  0.19611842739E+02  0.51100000000E-03 0. -1.
        -12    1    4    4    0    0 -0.94982502341E+01 -0.60569261871E+01 -0.11516468010E+02  0.16110001483E+02  0.00000000000E+00 0.  1.
</event>
<event>
 8    1  0.1212194E-006  0.9118800E+02  0.7816164E-02  0.1184000E+00
        -11   -1    0    0    0    0  0.00000000000E+00  0.00000000000E+00  0.45593999997E+02  0.45594000000E+02  0.51100000000E-03 0. -1.
         11   -1    0    0    0    0 -0.00000000000E+00 -0.00000000000E+00 -0.45593999997E+02  0.45594000000E+02  0.51100000000E-03 0.  1.
         23    2    1    2    0    0  0.00000000000E+00  0.35527136788E-14 -0.17763568394E-14  0.91188000000E+02  0.91188000000E+02 0.  0.
    9900012    2    3    3    0    0 -0.21606233957E+02 -0.25535252137E+02  0.15391602109E+02  0.54367083893E+02  0.39999999350E+02 0.  0.
        -12    1    3    3    0    0  0.21606233957E+02  0.25535252137E+02 -0.15391602109E+02  0.36820916107E+02  0.00000000000E+00 0.  1.
         11    1    4    4    0    0 -0.15115819029E+02 -0.11132960427E+02  0.25211059754E+02  0.31432917888E+02  0.51100000000E-03 0. -1.
        -11    1    4    4    0    0  0.40241451180E+01 -0.59703509862E+01 -0.41683587244E+01  0.83194981547E+01  0.51100000000E-03 0.  1.
         12    1    4    4    0    0 -0.10514560046E+02 -0.84319407236E+01 -0.56510989210E+01  0.14614667849E+02  0.00000000000E+00 0. -1.
</event>
<event>
 8    1  0.1212194E-006  0.9118800E+02  0.7816164E-02  0.1184000E+00
        -11   -1    0    0    0    0  0.00000000000E+00  0.00000000000E+00  0.45593999997E+02  0.45594000000E+02  0.51100000000E-03 0. -1.
         11   -1    0    0    0    0 -0.00000000000E+00 -0.00000000000E+00 -0.45593999997E+02  0.45594000000E+02  0.51100000000E-03 0.  1.
         23    2    1    2    0    0 -0.17763568394E-14  0.00000000000E+00  0.88817841970E-15  0.91188000000E+02  0.91188000000E+02 0.  0.
    9900012    2    3    3    0    0 -0.88525179337E+01  0.35617746100E+02 -0.29645613921E+01  0.54367088343E+02  0.40000009495E+02 0.  0.
        -12    1    3    3    0    0  0.88525179337E+01 -0.35617746100E+02  0.29645613921E+01  0.36820911657E+02  0.00000000000E+00 0.  1.
         11    1    4    4    0    0 -0.17824669457E+02  0.23217150102E+02 -0.17199306287E+01  0.29320863932E+02  0.51100000000E-03 0. -1.
        -11    1    4    4    0    0 -0.80418551903E+00  0.75463463007E+01 -0.89133163993E+01  0.11706462588E+02  0.51100000000E-03 0.  1.
        -12    1    4    4    0    0  0.97763370424E+01  0.48542496975E+01  0.76686856359E+01  0.13339761822E+02  0.00000000000E+00 0.  1.
</event>
<event>
 8    1  0.1212194E-006  0.9118800E+02  0.7816164E-02  0.1184000E+00
        -11   -1    0    0    0    0  0.00000000000E+00  0.00000000000E+00  0.45593999997E+02  0.45594000000E+02  0.51100000000E-03 0.  1.
         11   -1    0    0    0    0 -0.00000000000E+00 -0.00000000000E+00 -0.45593999997E+02  0.45594000000E+02  0.51100000000E-03 0. -1.
         23    2    1    2    0    0  0.17763568394E-14 -0.35527136788E-14  0.00000000000E+00  0.91188000000E+02  0.91188000000E+02 0.  0.
    9900012    2    3    3    0    0 -0.14607504098E+02  0.16152667777E+02  0.29689924332E+02  0.54367089376E+02  0.40000011851E+02 0.  0.
         12    1    3    3    0    0  0.14607504098E+02 -0.16152667777E+02 -0.29689924332E+02  0.36820910624E+02  0.00000000000E+00 0. -1.
         11    1    4    4    0    0  0.88713963760E+01  0.83969443205E+01  0.15356907753E+01  0.12311323812E+02  0.51100000000E-03 0. -1.
        -11    1    4    4    0    0  0.26272817038E+01  0.12061473590E+01 -0.27830054786E+00  0.29042816769E+01  0.51100000000E-03 0.  1.
        -12    1    4    4    0    0 -0.26106182178E+02  0.65495760980E+01  0.28432534105E+02  0.39151483888E+02  0.00000000000E+00 0.  1.
</event>
<event>
 8    1  0.1212194E-006  0.9118800E+02  0.7816164E-02  0.1184000E+00
        -11   -1    0    0    0    0  0.00000000000E+00  0.00000000000E+00  0.45593999997E+02  0.45594000000E+02  0.51100000000E-03 0.  1.
         11   -1    0    0    0    0 -0.00000000000E+00 -0.00000000000E+00 -0.45593999997E+02  0.45594000000E+02  0.51100000000E-03 0. -1.
         23    2    1    2    0    0  0.00000000000E+00  0.17763568394E-14 -0.35527136788E-14  0.91188000000E+02  0.91188000000E+02 0.  0.
    9900012    2    3    3    0    0 -0.16531581596E+02  0.15707634088E+02  0.28909429788E+02  0.54367107977E+02  0.40000054256E+02 0.  0.
         12    1    3    3    0    0  0.16531581596E+02 -0.15707634088E+02 -0.28909429788E+02  0.36820892023E+02  0.00000000000E+00 0. -1.
         11    1    4    4    0    0 -0.26070411226E+01  0.21743796447E+02  0.32432361831E+01  0.22138381345E+02  0.51100000000E-03 0. -1.
        -11    1    4    4    0    0 -0.99676809630E+01  0.54501548277E+00  0.74375972605E+01  0.12448676995E+02  0.51100000000E-03 0.  1.
         12    1    4    4    0    0 -0.39568595099E+01 -0.65811778423E+01  0.18228596344E+02  0.19780049637E+02  0.00000000000E+00 0. -1.
</event>
<event>
 8    1  0.1212194E-006  0.9118800E+02  0.7816164E-02  0.1184000E+00
        -11   -1    0    0    0    0  0.00000000000E+00  0.00000000000E+00  0.45593999997E+02  0.45594000000E+02  0.51100000000E-03 0. -1.
         11   -1    0    0    0    0 -0.00000000000E+00 -0.00000000000E+00 -0.45593999997E+02  0.45594000000E+02  0.51100000000E-03 0.  1.
         23    2    1    2    0    0  0.17763568394E-14  0.35527136788E-14  0.00000000000E+00  0.91188000000E+02  0.91188000000E+02 0.  0.
    9900012    2    3    3    0    0 -0.14763239303E+02  0.18446449730E+02 -0.28241060209E+02  0.54367051830E+02  0.39999926258E+02 0.  0.
         12    1    3    3    0    0  0.14763239303E+02 -0.18446449730E+02  0.28241060209E+02  0.36820948170E+02  0.00000000000E+00 0. -1.
         11    1    4    4    0    0 -0.34669543039E+01 -0.33738366164E+01  0.39684086886E+01  0.62570610866E+01  0.51100000000E-03 0. -1.
        -11    1    4    4    0    0  0.48804249224E+01  0.64755328194E+01  0.93638129867E+00  0.81625904537E+01  0.51100000000E-03 0.  1.
        -12    1    4    4    0    0 -0.16176709922E+02  0.15344753527E+02 -0.33145850196E+02  0.39947400290E+02  0.00000000000E+00 0.  1.
</event>
<event>
 8    1  0.1212194E-006  0.9118800E+02  0.7816164E-02  0.1184000E+00
        -11   -1    0    0    0    0  0.00000000000E+00  0.00000000000E+00  0.45593999997E+02  0.45594000000E+02  0.51100000000E-03 0. -1.
         11   -1    0    0    0    0 -0.00000000000E+00 -0.00000000000E+00 -0.45593999997E+02  0.45594000000E+02  0.51100000000E-03 0.  1.
         23    2    1    2    0    0 -0.17763568394E-14  0.00000000000E+00 -0.17763568394E-14  0.91188000000E+02  0.91188000000E+02 0.  0.
    9900012    2    3    3    0    0  0.14305517664E+02  0.30735639200E+02  0.14368400827E+02  0.54367105185E+02  0.40000047890E+02 0.  0.
        -12    1    3    3    0    0 -0.14305517664E+02 -0.30735639200E+02 -0.14368400827E+02  0.36820894815E+02  0.00000000000E+00 0.  1.
         11    1    4    4    0    0  0.11772109890E+00  0.30556928303E+01  0.49798782175E+01  0.58438261655E+01  0.51100000000E-03 0. -1.
        -11    1    4    4    0    0 -0.22188259717E+00  0.92984362257E+01 -0.13122617040E+02  0.16084564849E+02  0.51100000000E-03 0.  1.
        -12    1    4    4    0    0  0.14409679162E+02  0.18381510144E+02  0.22511139650E+02  0.32438714171E+02  0.00000000000E+00 0.  1.
</event>
<event>
 8    1  0.1212194E-006  0.9118800E+02  0.7816164E-02  0.1184000E+00
        -11   -1    0    0    0    0  0.00000000000E+00  0.00000000000E+00  0.45593999997E+02  0.45594000000E+02  0.51100000000E-03 0.  1.
         11   -1    0    0    0    0 -0.00000000000E+00 -0.00000000000E+00 -0.45593999997E+02  0.45594000000E+02  0.51100000000E-03 0. -1.
         23    2    1    2    0    0  0.35527136788E-14  0.00000000000E+00  0.44408920985E-15  0.91188000000E+02  0.91188000000E+02 0.  0.
    9900012    2    3    3    0    0  0.27467741382E+02  0.24437194403E+02 -0.20313775423E+01  0.54367084998E+02  0.40000001869E+02 0.  0.
        -12    1    3    3    0    0 -0.27467741382E+02 -0.24437194403E+02  0.20313775423E+01  0.36820915002E+02  0.00000000000E+00 0.  1.
         11    1    4    4    0    0  0.11764384865E+02  0.55663367843E+01 -0.84565300464E+01  0.15520881326E+02  0.51100000000E-03 0. -1.
        -11    1    4    4    0    0  0.20895416935E+02  0.54456122526E+01  0.10322283779E+02  0.23933714387E+02  0.51100000000E-03 0.  1.
        -12    1    4    4    0    0 -0.51920604173E+01  0.13425245366E+02 -0.38971312746E+01  0.14912489285E+02  0.00000000000E+00 0.  1.
</event>
<event>
 8    1  0.1212194E-006  0.9118800E+02  0.7816164E-02  0.1184000E+00
        -11   -1    0    0    0    0  0.00000000000E+00  0.00000000000E+00  0.45593999997E+02  0.45594000000E+02  0.51100000000E-03 0.  1.
         11   -1    0    0    0    0 -0.00000000000E+00 -0.00000000000E+00 -0.45593999997E+02  0.45594000000E+02  0.51100000000E-03 0. -1.
         23    2    1    2    0    0  0.35527136788E-14  0.88817841970E-15  0.00000000000E+00  0.91188000000E+02  0.91188000000E+02 0.  0.
    9900012    2    3    3    0    0  0.30347334770E+02  0.72537308641E+00 -0.20839955718E+02  0.54366937440E+02  0.39999665480E+02 0.  0.
         12    1    3    3    0    0 -0.30347334770E+02 -0.72537308641E+00  0.20839955718E+02  0.36821062560E+02  0.00000000000E+00 0. -1.
         11    1    4    4    0    0  0.16200698312E+02  0.38876913640E+01 -0.11431491874E+02  0.20205340300E+02  0.51100000000E-03 0. -1.
        -11    1    4    4    0    0  0.17531150948E+02 -0.10500155265E+02  0.16090135586E+01  0.20498376498E+02  0.51100000000E-03 0.  1.
         12    1    4    4    0    0 -0.33845144898E+01  0.73378369874E+01 -0.11017477403E+02  0.13663220642E+02  0.00000000000E+00 0. -1.
</event>
<event>
 8    1  0.1212194E-006  0.9118800E+02  0.7816164E-02  0.1184000E+00
        -11   -1    0    0    0    0  0.00000000000E+00  0.00000000000E+00  0.45593999997E+02  0.45594000000E+02  0.51100000000E-03 0.  1.
         11   -1    0    0    0    0 -0.00000000000E+00 -0.00000000000E+00 -0.45593999997E+02  0.45594000000E+02  0.51100000000E-03 0. -1.
         23    2    1    2    0    0  0.00000000000E+00  0.00000000000E+00  0.00000000000E+00  0.91188000000E+02  0.91188000000E+02 0.  0.
    9900012    2    3    3    0    0  0.14082858697E+02 -0.25547311235E+02 -0.22467478231E+02  0.54367087485E+02  0.40000007539E+02 0.  0.
        -12    1    3    3    0    0 -0.14082858697E+02  0.25547311235E+02  0.22467478231E+02  0.36820912515E+02  0.00000000000E+00 0.  1.
         11    1    4    4    0    0  0.15195852181E+02 -0.21311766486E+02 -0.21351468479E+02  0.33778551194E+02  0.51100000000E-03 0. -1.
        -11    1    4    4    0    0  0.91301281575E+01 -0.43119191434E+01  0.94016385887E+00  0.10140798549E+02  0.51100000000E-03 0.  1.
        -12    1    4    4    0    0 -0.10243121641E+02  0.76374394269E-01 -0.20561736103E+01  0.10447737742E+02  0.00000000000E+00 0.  1.
</event>
<event>
 8    1  0.1212194E-006  0.9118800E+02  0.7816164E-02  0.1184000E+00
        -11   -1    0    0    0    0  0.00000000000E+00  0.00000000000E+00  0.45593999997E+02  0.45594000000E+02  0.51100000000E-03 0.  1.
         11   -1    0    0    0    0 -0.00000000000E+00 -0.00000000000E+00 -0.45593999997E+02  0.45594000000E+02  0.51100000000E-03 0. -1.
         23    2    1    2    0    0  0.00000000000E+00 -0.35527136788E-14 -0.13322676296E-14  0.91188000000E+02  0.91188000000E+02 0.  0.
    9900012    2    3    3    0    0 -0.22289458689E+02  0.29208106835E+02  0.24179384866E+01  0.54367083389E+02  0.39999998201E+02 0.  0.
        -12    1    3    3    0    0  0.22289458689E+02 -0.29208106835E+02 -0.24179384866E+01  0.36820916611E+02  0.00000000000E+00 0.  1.
         11    1    4    4    0    0 -0.15469503316E+02  0.15973022482E+02  0.95873703047E+00  0.22256732847E+02  0.51100000000E-03 0. -1.
        -11    1    4    4    0    0 -0.11895223544E+02  0.63236374852E+01  0.12331638289E+02  0.18263461812E+02  0.51100000000E-03 0.  1.
        -12    1    4    4    0    0  0.50752681706E+01  0.69114468680E+01 -0.10872436833E+02  0.13846888730E+02  0.00000000000E+00 0.  1.
</event>
<event>
 8    1  0.1212194E-006  0.9118800E+02  0.7816164E-02  0.1184000E+00
        -11   -1    0    0    0    0  0.00000000000E+00  0.00000000000E+00  0.45593999997E+02  0.45594000000E+02  0.51100000000E-03 0. -1.
         11   -1    0    0    0    0 -0.00000000000E+00 -0.00000000000E+00 -0.45593999997E+02  0.45594000000E+02  0.51100000000E-03 0.  1.
         23    2    1    2    0    0  0.00000000000E+00  0.00000000000E+00  0.17763568394E-14  0.91188000000E+02  0.91188000000E+02 0.  0.
    9900012    2    3    3    0    0 -0.33415674649E+02  0.84200179073E+01  0.12972263936E+02  0.54367032530E+02  0.39999882259E+02 0.  0.
        -12    1    3    3    0    0  0.33415674649E+02 -0.84200179073E+01 -0.12972263936E+02  0.36820967470E+02  0.00000000000E+00 0.  1.
         11    1    4    4    0    0 -0.16803789972E+01  0.26313408711E+01  0.66711290868E+01  0.73655679962E+01  0.51100000000E-03 0.  1.
        -11    1    4    4    0    0 -0.56379486183E+00  0.85717062557E+01  0.12431959820E+02  0.15111109755E+02  0.51100000000E-03 0. -1.
        -12    1    4    4    0    0 -0.31171500790E+02 -0.27830292195E+01 -0.61308249713E+01  0.31890354779E+02  0.00000000000E+00 0.  1.
</event>
<event>
 8    1  0.1212194E-006  0.9118800E+02  0.7816164E-02  0.1184000E+00
        -11   -1    0    0    0    0  0.00000000000E+00  0.00000000000E+00  0.45593999997E+02  0.45594000000E+02  0.51100000000E-03 0.  1.
         11   -1    0    0    0    0 -0.00000000000E+00 -0.00000000000E+00 -0.45593999997E+02  0.45594000000E+02  0.51100000000E-03 0. -1.
         23    2    1    2    0    0  0.17763568394E-14  0.00000000000E+00  0.00000000000E+00  0.91188000000E+02  0.91188000000E+02 0.  0.
    9900012    2    3    3    0    0 -0.82678189757E+01  0.23683907541E+02 -0.26953576223E+02  0.54367087759E+02  0.40000008165E+02 0.  0.
        -12    1    3    3    0    0  0.82678189757E+01 -0.23683907541E+02  0.26953576223E+02  0.36820912241E+02  0.00000000000E+00 0.  1.
         11    1    4    4    0    0 -0.17824284858E+02  0.15542849953E+02 -0.24242166413E+02  0.33866915242E+02  0.51100000000E-03 0. -1.
        -11    1    4    4    0    0  0.32372733454E+00 -0.28518802819E+01  0.37789778994E+01  0.47453866812E+01  0.51100000000E-03 0.  1.
         12    1    4    4    0    0  0.92327385480E+01  0.10992937870E+02 -0.64903877092E+01  0.15754785836E+02  0.00000000000E+00 0. -1.
</event>
<event>
 8    1  0.1212194E-006  0.9118800E+02  0.7816164E-02  0.1184000E+00
        -11   -1    0    0    0    0  0.00000000000E+00  0.00000000000E+00  0.45593999997E+02  0.45594000000E+02  0.51100000000E-03 0. -1.
         11   -1    0    0    0    0 -0.00000000000E+00 -0.00000000000E+00 -0.45593999997E+02  0.45594000000E+02  0.51100000000E-03 0.  1.
         23    2    1    2    0    0  0.00000000000E+00  0.00000000000E+00  0.00000000000E+00  0.91188000000E+02  0.91188000000E+02 0.  0.
    9900012    2    3    3    0    0 -0.22059521963E+02  0.27963862985E+02 -0.93369639496E+01  0.54367095095E+02  0.40000024887E+02 0.  0.
         12    1    3    3    0    0  0.22059521963E+02 -0.27963862985E+02  0.93369639496E+01  0.36820904905E+02  0.00000000000E+00 0. -1.
         11    1    4    4    0    0 -0.63282701472E+01  0.20861570372E+02 -0.98443347708E+01  0.23919929950E+02  0.51100000000E-03 0.  1.
        -11    1    4    4    0    0 -0.21737208615E+02  0.13545323877E+01  0.24302402480E+01  0.21914540020E+02  0.51100000000E-03 0. -1.
         12    1    4    4    0    0  0.60059568000E+01  0.57477602247E+01 -0.19228694269E+01  0.85326251246E+01  0.00000000000E+00 0. -1.
</event>
<event>
 8    1  0.1212194E-006  0.9118800E+02  0.7816164E-02  0.1184000E+00
        -11   -1    0    0    0    0  0.00000000000E+00  0.00000000000E+00  0.45593999997E+02  0.45594000000E+02  0.51100000000E-03 0. -1.
         11   -1    0    0    0    0 -0.00000000000E+00 -0.00000000000E+00 -0.45593999997E+02  0.45594000000E+02  0.51100000000E-03 0.  1.
         23    2    1    2    0    0  0.17763568394E-14  0.00000000000E+00 -0.35527136788E-14  0.91188000000E+02  0.91188000000E+02 0.  0.
    9900012    2    3    3    0    0 -0.50145031063E+01  0.29576576359E+02 -0.21350873633E+02  0.54367096759E+02  0.40000028682E+02 0.  0.
         12    1    3    3    0    0  0.50145031063E+01 -0.29576576359E+02  0.21350873633E+02  0.36820903241E+02  0.00000000000E+00 0. -1.
         11    1    4    4    0    0 -0.19692122270E+02  0.95381831849E+01 -0.17920202593E+02  0.28282331573E+02  0.51100000000E-03 0. -1.
        -11    1    4    4    0    0  0.10069534769E+02  0.11810676691E+02 -0.54335099119E+01  0.16444167495E+02  0.51100000000E-03 0.  1.
         12    1    4    4    0    0  0.46080843944E+01  0.82277164831E+01  0.20028388713E+01  0.96405976919E+01  0.00000000000E+00 0. -1.
</event>
<event>
 8    1  0.1212194E-006  0.9118800E+02  0.7816164E-02  0.1184000E+00
        -11   -1    0    0    0    0  0.00000000000E+00  0.00000000000E+00  0.45593999997E+02  0.45594000000E+02  0.51100000000E-03 0.  1.
         11   -1    0    0    0    0 -0.00000000000E+00 -0.00000000000E+00 -0.45593999997E+02  0.45594000000E+02  0.51100000000E-03 0. -1.
         23    2    1    2    0    0  0.00000000000E+00  0.00000000000E+00  0.17763568394E-14  0.91188000000E+02  0.91188000000E+02 0.  0.
    9900012    2    3    3    0    0  0.16887719197E+02 -0.31604222334E+02  0.84710044672E+01  0.54367084127E+02  0.39999999884E+02 0.  0.
        -12    1    3    3    0    0 -0.16887719197E+02  0.31604222334E+02 -0.84710044672E+01  0.36820915873E+02  0.00000000000E+00 0.  1.
         11    1    4    4    0    0  0.19885006029E+02 -0.23194696182E+01 -0.14036744703E+00  0.20020317364E+02  0.51100000000E-03 0. -1.
        -11    1    4    4    0    0  0.27322844043E+01  0.48595592532E+00  0.16914593526E+01  0.32500101892E+01  0.51100000000E-03 0.  1.
         12    1    4    4    0    0 -0.57295712357E+01 -0.29770708641E+02  0.69199125616E+01  0.31096756574E+02  0.00000000000E+00 0. -1.
</event>
<event>
 8    1  0.1212194E-006  0.9118800E+02  0.7816164E-02  0.1184000E+00
        -11   -1    0    0    0    0  0.00000000000E+00  0.00000000000E+00  0.45593999997E+02  0.45594000000E+02  0.51100000000E-03 0.  1.
         11   -1    0    0    0    0 -0.00000000000E+00 -0.00000000000E+00 -0.45593999997E+02  0.45594000000E+02  0.51100000000E-03 0. -1.
         23    2    1    2    0    0  0.00000000000E+00  0.00000000000E+00  0.00000000000E+00  0.91188000000E+02  0.91188000000E+02 0.  0.
    9900012    2    3    3    0    0 -0.20177359541E+02 -0.11248650060E+02  0.28672671667E+02  0.54367081126E+02  0.39999993043E+02 0.  0.
         12    1    3    3    0    0  0.20177359541E+02  0.11248650060E+02 -0.28672671667E+02  0.36820918874E+02  0.00000000000E+00 0. -1.
         11    1    4    4    0    0 -0.25901367705E+01 -0.10137718785E+02 -0.29383580012E+01  0.10868123051E+02  0.51100000000E-03 0. -1.
        -11    1    4    4    0    0 -0.20808839912E+02 -0.78431470581E+01  0.21499851987E+02  0.30931640920E+02  0.51100000000E-03 0.  1.
         12    1    4    4    0    0  0.32216171424E+01  0.67322157829E+01  0.10111177682E+02  0.12567317155E+02  0.00000000000E+00 0. -1.
</event>
<event>
 8    1  0.1212194E-006  0.9118800E+02  0.7816164E-02  0.1184000E+00
        -11   -1    0    0    0    0  0.00000000000E+00  0.00000000000E+00  0.45593999997E+02  0.45594000000E+02  0.51100000000E-03 0. -1.
         11   -1    0    0    0    0 -0.00000000000E+00 -0.00000000000E+00 -0.45593999997E+02  0.45594000000E+02  0.51100000000E-03 0.  1.
         23    2    1    2    0    0  0.71054273576E-14  0.00000000000E+00  0.00000000000E+00  0.91188000000E+02  0.91188000000E+02 0.  0.
    9900012    2    3    3    0    0 -0.36065959449E+02  0.44910517183E+01  0.59039927394E+01  0.54367080582E+02  0.39999991803E+02 0.  0.
        -12    1    3    3    0    0  0.36065959449E+02 -0.44910517183E+01 -0.59039927394E+01  0.36820919418E+02  0.00000000000E+00 0.  1.
         11    1    4    4    0    0 -0.84678582663E+01 -0.26746640405E+00 -0.78923634100E+01  0.11578668419E+02  0.51100000000E-03 0. -1.
        -11    1    4    4    0    0  0.32939936854E+01 -0.67341606169E+00  0.10763173225E+02  0.11276071201E+02  0.51100000000E-03 0.  1.
        -12    1    4    4    0    0 -0.30892094868E+02  0.54319341840E+01  0.30331829246E+01  0.31512340963E+02  0.00000000000E+00 0.  1.
</event>
<event>
 8    1  0.1212194E-006  0.9118800E+02  0.7816164E-02  0.1184000E+00
        -11   -1    0    0    0    0  0.00000000000E+00  0.00000000000E+00  0.45593999997E+02  0.45594000000E+02  0.51100000000E-03 0. -1.
         11   -1    0    0    0    0 -0.00000000000E+00 -0.00000000000E+00 -0.45593999997E+02  0.45594000000E+02  0.51100000000E-03 0.  1.
         23    2    1    2    0    0  0.00000000000E+00  0.17763568394E-14 -0.35527136788E-14  0.91188000000E+02  0.91188000000E+02 0.  0.
    9900012    2    3    3    0    0  0.32734408766E+02  0.97790781565E+01 -0.13733487799E+02  0.54367074238E+02  0.39999977341E+02 0.  0.
         12    1    3    3    0    0 -0.32734408766E+02 -0.97790781565E+01  0.13733487799E+02  0.36820925762E+02  0.00000000000E+00 0. -1.
         11    1    4    4    0    0  0.40561956628E+01 -0.63108207697E+01 -0.42727972169E+01  0.86334221697E+01  0.51100000000E-03 0. -1.
        -11    1    4    4    0    0 -0.63069508216E+00 -0.43753493704E+00  0.78546161992E+01  0.78920345290E+01  0.51100000000E-03 0.  1.
        -12    1    4    4    0    0  0.29308908185E+02  0.16527433863E+02 -0.17315306781E+02  0.37841617540E+02  0.00000000000E+00 0.  1.
</event>
<event>
 8    1  0.1212194E-006  0.9118800E+02  0.7816164E-02  0.1184000E+00
        -11   -1    0    0    0    0  0.00000000000E+00  0.00000000000E+00  0.45593999997E+02  0.45594000000E+02  0.51100000000E-03 0. -1.
         11   -1    0    0    0    0 -0.00000000000E+00 -0.00000000000E+00 -0.45593999997E+02  0.45594000000E+02  0.51100000000E-03 0.  1.
         23    2    1    2    0    0  0.00000000000E+00 -0.17763568394E-14  0.44408920985E-15  0.91188000000E+02  0.91188000000E+02 0.  0.
    9900012    2    3    3    0    0  0.34130527130E+02 -0.13339295202E+02 -0.35989545823E+01  0.54367052800E+02  0.39999928467E+02 0.  0.
         12    1    3    3    0    0 -0.34130527130E+02  0.13339295202E+02  0.35989545823E+01  0.36820947200E+02  0.00000000000E+00 0. -1.
         11    1    4    4    0    0  0.66823679695E+01  0.66804958978E+01  0.15395914056E+01  0.95735786976E+01  0.51100000000E-03 0. -1.
        -11    1    4    4    0    0  0.32499570612E+02 -0.19720549748E+02 -0.81863708533E+01  0.38886229444E+02  0.51100000000E-03 0.  1.
         12    1    4    4    0    0 -0.50514114519E+01 -0.29924135181E+00  0.30478248654E+01  0.59072446584E+01  0.00000000000E+00 0. -1.
</event>
<event>
 8    1  0.1212194E-006  0.9118800E+02  0.7816164E-02  0.1184000E+00
        -11   -1    0    0    0    0  0.00000000000E+00  0.00000000000E+00  0.45593999997E+02  0.45594000000E+02  0.51100000000E-03 0.  1.
         11   -1    0    0    0    0 -0.00000000000E+00 -0.00000000000E+00 -0.45593999997E+02  0.45594000000E+02  0.51100000000E-03 0. -1.
         23    2    1    2    0    0  0.00000000000E+00  0.00000000000E+00  0.00000000000E+00  0.91188000000E+02  0.91188000000E+02 0.  0.
    9900012    2    3    3    0    0  0.13442832449E+02  0.27676746094E+02  0.20225435035E+02  0.54367078760E+02  0.39999987648E+02 0.  0.
         12    1    3    3    0    0 -0.13442832449E+02 -0.27676746094E+02 -0.20225435035E+02  0.36820921240E+02  0.00000000000E+00 0. -1.
         11    1    4    4    0    0  0.18319924414E+02  0.18515843302E+02  0.18639828726E+02  0.32029662797E+02  0.51100000000E-03 0.  1.
        -11    1    4    4    0    0  0.11454600776E+01 -0.94149982859E+00  0.85440683007E+01  0.86717705288E+01  0.51100000000E-03 0. -1.
         12    1    4    4    0    0 -0.60225520427E+01  0.10102402621E+02 -0.69584619913E+01  0.13665645433E+02  0.00000000000E+00 0. -1.
</event>
<event>
 8    1  0.1212194E-006  0.9118800E+02  0.7816164E-02  0.1184000E+00
        -11   -1    0    0    0    0  0.00000000000E+00  0.00000000000E+00  0.45593999997E+02  0.45594000000E+02  0.51100000000E-03 0.  1.
         11   -1    0    0    0    0 -0.00000000000E+00 -0.00000000000E+00 -0.45593999997E+02  0.45594000000E+02  0.51100000000E-03 0. -1.
         23    2    1    2    0    0  0.17763568394E-14  0.00000000000E+00 -0.35527136788E-14  0.91188000000E+02  0.91188000000E+02 0.  0.
    9900012    2    3    3    0    0 -0.11929691653E+02 -0.18669019066E+02  0.29409682068E+02  0.54367092689E+02  0.40000019404E+02 0.  0.
         12    1    3    3    0    0  0.11929691653E+02  0.18669019066E+02 -0.29409682068E+02  0.36820907311E+02  0.00000000000E+00 0. -1.
         11    1    4    4    0    0 -0.11474357140E+01  0.54808595216E+01  0.53754311739E+01  0.77621962343E+01  0.51100000000E-03 0. -1.
        -11    1    4    4    0    0  0.74321619102E+01 -0.19875466097E+02  0.12630628873E+02  0.24694209224E+02  0.51100000000E-03 0.  1.
        -12    1    4    4    0    0 -0.18214417849E+02 -0.42744124911E+01  0.11403622021E+02  0.21910687231E+02  0.00000000000E+00 0.  1.
</event>
<event>
 8    1  0.1212194E-006  0.9118800E+02  0.7816164E-02  0.1184000E+00
        -11   -1    0    0    0    0  0.00000000000E+00  0.00000000000E+00  0.45593999997E+02  0.45594000000E+02  0.51100000000E-03 0. -1.
         11   -1    0    0    0    0 -0.00000000000E+00 -0.00000000000E+00 -0.45593999997E+02  0.45594000000E+02  0.51100000000E-03 0.  1.
         23    2    1    2    0    0  0.00000000000E+00  0.00000000000E+00 -0.71054273576E-14  0.91188000000E+02  0.91188000000E+02 0.  0.
    9900012    2    3    3    0    0  0.10759558201E+02  0.16825836354E+02 -0.30933844812E+02  0.54367087239E+02  0.40000006978E+02 0.  0.
         12    1    3    3    0    0 -0.10759558201E+02 -0.16825836354E+02  0.30933844812E+02  0.36820912761E+02  0.00000000000E+00 0. -1.
         11    1    4    4    0    0 -0.57662228580E+01  0.22847930429E+01 -0.11734398674E+02  0.13272743417E+02  0.51100000000E-03 0. -1.
        -11    1    4    4    0    0  0.69298248044E+01 -0.86684789331E+01 -0.43656362348E+01  0.11925761143E+02  0.51100000000E-03 0.  1.
        -12    1    4    4    0    0  0.95959562550E+01  0.23209522245E+02 -0.14833809903E+02  0.29168582679E+02  0.00000000000E+00 0.  1.
</event>
<event>
 8    1  0.1212194E-006  0.9118800E+02  0.7816164E-02  0.1184000E+00
        -11   -1    0    0    0    0  0.00000000000E+00  0.00000000000E+00  0.45593999997E+02  0.45594000000E+02  0.51100000000E-03 0. -1.
         11   -1    0    0    0    0 -0.00000000000E+00 -0.00000000000E+00 -0.45593999997E+02  0.45594000000E+02  0.51100000000E-03 0.  1.
         23    2    1    2    0    0  0.00000000000E+00  0.00000000000E+00  0.00000000000E+00  0.91188000000E+02  0.91188000000E+02 0.  0.
    9900012    2    3    3    0    0 -0.16894926022E+02  0.21781890874E+02  0.24410900430E+02  0.54367063630E+02  0.39999953157E+02 0.  0.
        -12    1    3    3    0    0  0.16894926022E+02 -0.21781890874E+02 -0.24410900430E+02  0.36820936370E+02  0.00000000000E+00 0.  1.
         11    1    4    4    0    0 -0.97311712704E+01  0.15825265807E+02  0.17825024613E+02  0.25746188745E+02  0.51100000000E-03 0. -1.
        -11    1    4    4    0    0 -0.33995411822E+01  0.83357876394E+01  0.15914309251E+02  0.18284077089E+02  0.51100000000E-03 0.  1.
        -12    1    4    4    0    0 -0.37642135698E+01 -0.23791625729E+01 -0.93284334336E+01  0.10336797796E+02  0.00000000000E+00 0.  1.
</event>
<event>
 8    1  0.1212194E-006  0.9118800E+02  0.7816164E-02  0.1184000E+00
        -11   -1    0    0    0    0  0.00000000000E+00  0.00000000000E+00  0.45593999997E+02  0.45594000000E+02  0.51100000000E-03 0.  1.
         11   -1    0    0    0    0 -0.00000000000E+00 -0.00000000000E+00 -0.45593999997E+02  0.45594000000E+02  0.51100000000E-03 0. -1.
         23    2    1    2    0    0  0.00000000000E+00 -0.35527136788E-14 -0.17763568394E-14  0.91188000000E+02  0.91188000000E+02 0.  0.
    9900012    2    3    3    0    0 -0.29627340642E+02 -0.20770985864E+02  0.68240570885E+01  0.54367069506E+02  0.39999966552E+02 0.  0.
        -12    1    3    3    0    0  0.29627340642E+02  0.20770985864E+02 -0.68240570885E+01  0.36820930494E+02  0.00000000000E+00 0.  1.
         11    1    4    4    0    0 -0.21380515641E+02 -0.18887578684E+02  0.18293631781E+02  0.33889881109E+02  0.51100000000E-03 0. -1.
        -11    1    4    4    0    0 -0.99828985535E+01 -0.50342721208E+01 -0.34710009998E+01  0.11706835931E+02  0.51100000000E-03 0.  1.
        -12    1    4    4    0    0  0.17360735518E+01  0.31508649399E+01 -0.79985736929E+01  0.87703524654E+01  0.00000000000E+00 0.  1.
</event>
<event>
 8    1  0.1212194E-006  0.9118800E+02  0.7816164E-02  0.1184000E+00
        -11   -1    0    0    0    0  0.00000000000E+00  0.00000000000E+00  0.45593999997E+02  0.45594000000E+02  0.51100000000E-03 0. -1.
         11   -1    0    0    0    0 -0.00000000000E+00 -0.00000000000E+00 -0.45593999997E+02  0.45594000000E+02  0.51100000000E-03 0.  1.
         23    2    1    2    0    0  0.00000000000E+00 -0.35527136788E-14  0.00000000000E+00  0.91188000000E+02  0.91188000000E+02 0.  0.
    9900012    2    3    3    0    0 -0.16180272898E+02 -0.23542040056E+02 -0.23232749597E+02  0.54366952556E+02  0.39999699940E+02 0.  0.
         12    1    3    3    0    0  0.16180272898E+02  0.23542040056E+02  0.23232749597E+02  0.36821047444E+02  0.00000000000E+00 0. -1.
         11    1    4    4    0    0 -0.38248395714E+01 -0.17340477330E+02 -0.30626651782E+01  0.18019474744E+02  0.51100000000E-03 0. -1.
        -11    1    4    4    0    0 -0.17052173394E+01  0.23059296666E+01  0.61061058518E+01  0.67460808427E+01  0.51100000000E-03 0.  1.
        -12    1    4    4    0    0 -0.10650215988E+02 -0.85074923921E+01 -0.26276190271E+02  0.29601396969E+02  0.00000000000E+00 0.  1.
</event>
<event>
 8    1  0.1212194E-006  0.9118800E+02  0.7816164E-02  0.1184000E+00
        -11   -1    0    0    0    0  0.00000000000E+00  0.00000000000E+00  0.45593999997E+02  0.45594000000E+02  0.51100000000E-03 0. -1.
         11   -1    0    0    0    0 -0.00000000000E+00 -0.00000000000E+00 -0.45593999997E+02  0.45594000000E+02  0.51100000000E-03 0.  1.
         23    2    1    2    0    0  0.00000000000E+00 -0.17763568394E-14 -0.35527136788E-14  0.91188000000E+02  0.91188000000E+02 0.  0.
    9900012    2    3    3    0    0 -0.18969822632E+02 -0.14416560893E+02  0.28072954408E+02  0.54367052594E+02  0.39999927999E+02 0.  0.
        -12    1    3    3    0    0  0.18969822632E+02  0.14416560893E+02 -0.28072954408E+02  0.36820947406E+02  0.00000000000E+00 0.  1.
         11    1    4    4    0    0 -0.55207082414E+01 -0.36435984702E+01  0.18550131569E+01  0.68698692398E+01  0.51100000000E-03 0. -1.
        -11    1    4    4    0    0 -0.17372998786E+02  0.13389031295E+01 -0.99535503613E+00  0.17452921828E+02  0.51100000000E-03 0.  1.
         12    1    4    4    0    0  0.39238843952E+01 -0.12111865552E+02  0.27213296287E+02  0.30044261527E+02  0.00000000000E+00 0. -1.
</event>
<event>
 8    1  0.1212194E-006  0.9118800E+02  0.7816164E-02  0.1184000E+00
        -11   -1    0    0    0    0  0.00000000000E+00  0.00000000000E+00  0.45593999997E+02  0.45594000000E+02  0.51100000000E-03 0.  1.
         11   -1    0    0    0    0 -0.00000000000E+00 -0.00000000000E+00 -0.45593999997E+02  0.45594000000E+02  0.51100000000E-03 0. -1.
         23    2    1    2    0    0  0.35527136788E-14  0.00000000000E+00  0.00000000000E+00  0.91188000000E+02  0.91188000000E+02 0.  0.
    9900012    2    3    3    0    0  0.22746566546E+02 -0.26694696254E+02 -0.11214280706E+02  0.54367174514E+02  0.40000205940E+02 0.  0.
        -12    1    3    3    0    0 -0.22746566546E+02  0.26694696254E+02  0.11214280706E+02  0.36820825486E+02  0.00000000000E+00 0.  1.
         11    1    4    4    0    0 -0.88687328753E+01 -0.99939593533E+01 -0.63833786164E+01  0.14808145366E+02  0.51100000000E-03 0. -1.
        -11    1    4    4    0    0  0.18292722116E+02 -0.11230169810E+02  0.51032310618E+01  0.22063167586E+02  0.51100000000E-03 0.  1.
         12    1    4    4    0    0  0.13322577304E+02 -0.54705670901E+01 -0.99341331515E+01  0.17495861562E+02  0.00000000000E+00 0. -1.
</event>
<event>
 8    1  0.1212194E-006  0.9118800E+02  0.7816164E-02  0.1184000E+00
        -11   -1    0    0    0    0  0.00000000000E+00  0.00000000000E+00  0.45593999997E+02  0.45594000000E+02  0.51100000000E-03 0.  1.
         11   -1    0    0    0    0 -0.00000000000E+00 -0.00000000000E+00 -0.45593999997E+02  0.45594000000E+02  0.51100000000E-03 0. -1.
         23    2    1    2    0    0  0.00000000000E+00  0.00000000000E+00  0.35527136788E-14  0.91188000000E+02  0.91188000000E+02 0.  0.
    9900012    2    3    3    0    0 -0.30934537840E+02 -0.12603682972E+02  0.15491371007E+02  0.54367068025E+02  0.39999963175E+02 0.  0.
         12    1    3    3    0    0  0.30934537840E+02  0.12603682972E+02 -0.15491371007E+02  0.36820931975E+02  0.00000000000E+00 0. -1.
         11    1    4    4    0    0  0.75452296935E+01 -0.58522104306E+01 -0.34039724857E+01  0.10137351084E+02  0.51100000000E-03 0. -1.
        -11    1    4    4    0    0 -0.13547297257E+01  0.13841694991E+01  0.14023618262E+01  0.23911998630E+01  0.51100000000E-03 0.  1.
         12    1    4    4    0    0 -0.37125037808E+02 -0.81356420408E+01  0.17492981667E+02  0.41838517078E+02  0.00000000000E+00 0. -1.
</event>
<event>
 8    1  0.1212194E-006  0.9118800E+02  0.7816164E-02  0.1184000E+00
        -11   -1    0    0    0    0  0.00000000000E+00  0.00000000000E+00  0.45593999997E+02  0.45594000000E+02  0.51100000000E-03 0. -1.
         11   -1    0    0    0    0 -0.00000000000E+00 -0.00000000000E+00 -0.45593999997E+02  0.45594000000E+02  0.51100000000E-03 0.  1.
         23    2    1    2    0    0 -0.35527136788E-14  0.00000000000E+00  0.00000000000E+00  0.91188000000E+02  0.91188000000E+02 0.  0.
    9900012    2    3    3    0    0 -0.31294830516E+02  0.12354185186E+02  0.14959559741E+02  0.54367072034E+02  0.39999972316E+02 0.  0.
        -12    1    3    3    0    0  0.31294830516E+02 -0.12354185186E+02 -0.14959559741E+02  0.36820927966E+02  0.00000000000E+00 0.  1.
         11    1    4    4    0    0 -0.23078257989E+01 -0.28136359067E+01  0.10460216567E+02  0.11075140533E+02  0.51100000000E-03 0. -1.
        -11    1    4    4    0    0 -0.34550976887E+02  0.14433343685E+02  0.39980452681E+01  0.37657346959E+02  0.51100000000E-03 0.  1.
         12    1    4    4    0    0  0.55639721701E+01  0.73447740856E+00  0.50129790626E+00  0.56345845423E+01  0.00000000000E+00 0. -1.
</event>
<event>
 8    1  0.1418398E-006  0.9118800E+02  0.7816164E-02  0.1184000E+00
        -11   -1    0    0    0    0  0.00000000000E+00  0.00000000000E+00  0.45593999997E+02  0.45594000000E+02  0.51100000000E-03 0.  1.
         11   -1    0    0    0    0 -0.00000000000E+00 -0.00000000000E+00 -0.45593999997E+02  0.45594000000E+02  0.51100000000E-03 0. -1.
         23    2    1    2    0    0  0.00000000000E+00  0.35527136788E-14  0.00000000000E+00  0.91188000000E+02  0.91188000000E+02 0.  0.
    9900012    2    3    3    0    0  0.64715579502E+00 -0.26275718886E+02 -0.25786586696E+02  0.54367078406E+02  0.39999986842E+02 0.  0.
        -12    1    3    3    0    0 -0.64715579502E+00  0.26275718886E+02  0.25786586696E+02  0.36820921594E+02  0.00000000000E+00 0.  1.
         11    1    4    4    0    0 -0.25380048972E+01 -0.17922469717E+02 -0.20541725759E+02  0.27379168852E+02  0.51100000000E-03 0. -1.
        -11    1    4    4    0    0  0.66061613151E+01 -0.16251912836E+02 -0.54731684735E+01  0.18377203583E+02  0.51100000000E-03 0.  1.
        -12    1    4    4    0    0 -0.34210006228E+01  0.78986636665E+01  0.22830753674E+00  0.86107059704E+01  0.00000000000E+00 0.  1.
</event>
<event>
 8    1  0.1212194E-006  0.9118800E+02  0.7816164E-02  0.1184000E+00
        -11   -1    0    0    0    0  0.00000000000E+00  0.00000000000E+00  0.45593999997E+02  0.45594000000E+02  0.51100000000E-03 0.  1.
         11   -1    0    0    0    0 -0.00000000000E+00 -0.00000000000E+00 -0.45593999997E+02  0.45594000000E+02  0.51100000000E-03 0. -1.
         23    2    1    2    0    0  0.00000000000E+00  0.35527136788E-14  0.00000000000E+00  0.91188000000E+02  0.91188000000E+02 0.  0.
    9900012    2    3    3    0    0 -0.16029903516E+02  0.22039960941E+02 -0.24760106328E+02  0.54367074558E+02  0.39999978071E+02 0.  0.
        -12    1    3    3    0    0  0.16029903516E+02 -0.22039960941E+02  0.24760106328E+02  0.36820925442E+02  0.00000000000E+00 0.  1.
         11    1    4    4    0    0 -0.18516528007E+01  0.21654912692E+02 -0.16212354145E+02  0.27114650818E+02  0.51100000000E-03 0.  1.
        -11    1    4    4    0    0 -0.25846075882E+01  0.95806280343E+01  0.45102549647E+00  0.99333808029E+01  0.51100000000E-03 0. -1.
        -12    1    4    4    0    0 -0.11593643127E+02 -0.91955797854E+01 -0.89987776788E+01  0.17319042937E+02  0.00000000000E+00 0.  1.
</event>
<event>
 8    1  0.1212194E-006  0.9118800E+02  0.7816164E-02  0.1184000E+00
        -11   -1    0    0    0    0  0.00000000000E+00  0.00000000000E+00  0.45593999997E+02  0.45594000000E+02  0.51100000000E-03 0.  1.
         11   -1    0    0    0    0 -0.00000000000E+00 -0.00000000000E+00 -0.45593999997E+02  0.45594000000E+02  0.51100000000E-03 0. -1.
         23    2    1    2    0    0  0.17763568394E-14 -0.17763568394E-14  0.00000000000E+00  0.91188000000E+02  0.91188000000E+02 0.  0.
    9900012    2    3    3    0    0  0.82668158634E+01 -0.13526927822E+02  0.33233390699E+02  0.54367132572E+02  0.40000110324E+02 0.  0.
         12    1    3    3    0    0 -0.82668158634E+01  0.13526927822E+02 -0.33233390699E+02  0.36820867428E+02  0.00000000000E+00 0. -1.
         11    1    4    4    0    0  0.11854523639E+02  0.77760453494E+00  0.17598800103E+01  0.12009645183E+02  0.51100000000E-03 0. -1.
        -11    1    4    4    0    0 -0.48835877579E+01 -0.11305733997E+01  0.28305767871E+02  0.28746201847E+02  0.51100000000E-03 0.  1.
        -12    1    4    4    0    0  0.12958799827E+01 -0.13173958957E+02  0.31677428175E+01  0.13611285541E+02  0.00000000000E+00 0.  1.
</event>
<event>
 8    1  0.1212194E-006  0.9118800E+02  0.7816164E-02  0.1184000E+00
        -11   -1    0    0    0    0  0.00000000000E+00  0.00000000000E+00  0.45593999997E+02  0.45594000000E+02  0.51100000000E-03 0. -1.
         11   -1    0    0    0    0 -0.00000000000E+00 -0.00000000000E+00 -0.45593999997E+02  0.45594000000E+02  0.51100000000E-03 0.  1.
         23    2    1    2    0    0 -0.35527136788E-14  0.00000000000E+00  0.00000000000E+00  0.91188000000E+02  0.91188000000E+02 0.  0.
    9900012    2    3    3    0    0 -0.25469969361E+02  0.10301200619E+02  0.24514190439E+02  0.54367087378E+02  0.40000007295E+02 0.  0.
        -12    1    3    3    0    0  0.25469969361E+02 -0.10301200619E+02 -0.24514190439E+02  0.36820912622E+02  0.00000000000E+00 0.  1.
         11    1    4    4    0    0 -0.26904634992E+02  0.56121613732E+01  0.14164649976E+02  0.30919137254E+02  0.51100000000E-03 0. -1.
        -11    1    4    4    0    0 -0.72940468245E+01  0.59954024708E+01  0.11120835970E+02  0.14588384516E+02  0.51100000000E-03 0.  1.
        -12    1    4    4    0    0  0.87287124553E+01 -0.13063632246E+01 -0.77129550636E+00  0.88595656079E+01  0.00000000000E+00 0.  1.
</event>
<event>
 8    1  0.1212194E-006  0.9118800E+02  0.7816164E-02  0.1184000E+00
        -11   -1    0    0    0    0  0.00000000000E+00  0.00000000000E+00  0.45593999997E+02  0.45594000000E+02  0.51100000000E-03 0.  1.
         11   -1    0    0    0    0 -0.00000000000E+00 -0.00000000000E+00 -0.45593999997E+02  0.45594000000E+02  0.51100000000E-03 0. -1.
         23    2    1    2    0    0  0.17763568394E-14  0.00000000000E+00  0.00000000000E+00  0.91188000000E+02  0.91188000000E+02 0.  0.
    9900012    2    3    3    0    0  0.12857293585E+02 -0.18190950216E+02  0.29318240736E+02  0.54367083282E+02  0.39999997958E+02 0.  0.
         12    1    3    3    0    0 -0.12857293585E+02  0.18190950216E+02 -0.29318240736E+02  0.36820916718E+02  0.00000000000E+00 0. -1.
         11    1    4    4    0    0  0.77439377470E+01 -0.78579476172E+01  0.13063853611E+01  0.11109570449E+02  0.51100000000E-03 0. -1.
        -11    1    4    4    0    0 -0.73448832764E+01  0.27849378086E+01 -0.20982116381E+01  0.81305400362E+01  0.51100000000E-03 0.  1.
        -12    1    4    4    0    0  0.12458239114E+02 -0.13117940407E+02  0.30110067013E+02  0.35126972797E+02  0.00000000000E+00 0.  1.
</event>
<event>
 8    1  0.1212194E-006  0.9118800E+02  0.7816164E-02  0.1184000E+00
        -11   -1    0    0    0    0  0.00000000000E+00  0.00000000000E+00  0.45593999997E+02  0.45594000000E+02  0.51100000000E-03 0. -1.
         11   -1    0    0    0    0 -0.00000000000E+00 -0.00000000000E+00 -0.45593999997E+02  0.45594000000E+02  0.51100000000E-03 0.  1.
         23    2    1    2    0    0  0.17763568394E-14 -0.17763568394E-14  0.00000000000E+00  0.91188000000E+02  0.91188000000E+02 0.  0.
    9900012    2    3    3    0    0 -0.10148632946E+02  0.44811042736E+01  0.35109884623E+02  0.54367095008E+02  0.40000024690E+02 0.  0.
        -12    1    3    3    0    0  0.10148632946E+02 -0.44811042736E+01 -0.35109884623E+02  0.36820904992E+02  0.00000000000E+00 0.  1.
         11    1    4    4    0    0  0.31083560018E+01 -0.77027922045E+01  0.88191141475E+01  0.12114935385E+02  0.51100000000E-03 0. -1.
        -11    1    4    4    0    0  0.34557816686E+01  0.65235290022E+00 -0.42880746446E+01  0.55457709713E+01  0.51100000000E-03 0.  1.
         12    1    4    4    0    0 -0.16712770616E+02  0.11531543578E+02  0.30578845120E+02  0.36706388652E+02  0.00000000000E+00 0. -1.
</event>
<event>
 8    1  0.1212194E-006  0.9118800E+02  0.7816164E-02  0.1184000E+00
        -11   -1    0    0    0    0  0.00000000000E+00  0.00000000000E+00  0.45593999997E+02  0.45594000000E+02  0.51100000000E-03 0. -1.
         11   -1    0    0    0    0 -0.00000000000E+00 -0.00000000000E+00 -0.45593999997E+02  0.45594000000E+02  0.51100000000E-03 0.  1.
         23    2    1    2    0    0  0.13322676296E-14  0.17763568394E-14  0.00000000000E+00  0.91188000000E+02  0.91188000000E+02 0.  0.
    9900012    2    3    3    0    0 -0.21347241798E+01  0.12709400606E+02 -0.34491942347E+02  0.54367082060E+02  0.39999995173E+02 0.  0.
         12    1    3    3    0    0  0.21347241798E+01 -0.12709400606E+02  0.34491942347E+02  0.36820917940E+02  0.00000000000E+00 0. -1.
         11    1    4    4    0    0 -0.17286359162E+02  0.10876755985E+01 -0.21640786773E+02  0.27718674278E+02  0.51100000000E-03 0. -1.
        -11    1    4    4    0    0 -0.22570316814E+01  0.29555581124E+01 -0.33492384915E+01  0.50046892511E+01  0.51100000000E-03 0.  1.
         12    1    4    4    0    0  0.17408666663E+02  0.86661668951E+01 -0.95019170817E+01  0.21643718531E+02  0.00000000000E+00 0. -1.
</event>
<event>
 8    1  0.1212194E-006  0.9118800E+02  0.7816164E-02  0.1184000E+00
        -11   -1    0    0    0    0  0.00000000000E+00  0.00000000000E+00  0.45593999997E+02  0.45594000000E+02  0.51100000000E-03 0. -1.
         11   -1    0    0    0    0 -0.00000000000E+00 -0.00000000000E+00 -0.45593999997E+02  0.45594000000E+02  0.51100000000E-03 0.  1.
         23    2    1    2    0    0 -0.35527136788E-14  0.35527136788E-14  0.00000000000E+00  0.91188000000E+02  0.91188000000E+02 0.  0.
    9900012    2    3    3    0    0 -0.22345644111E+02  0.16744087002E+02  0.24001825589E+02  0.54367083501E+02  0.39999998456E+02 0.  0.
        -12    1    3    3    0    0  0.22345644111E+02 -0.16744087002E+02 -0.24001825589E+02  0.36820916499E+02  0.00000000000E+00 0.  1.
         11    1    4    4    0    0 -0.24669888977E+02  0.78614946560E+01  0.14524073425E+02  0.29687627548E+02  0.51100000000E-03 0. -1.
        -11    1    4    4    0    0 -0.44304213633E+01  0.29547794526E+01 -0.52166822544E+01  0.74547386993E+01  0.51100000000E-03 0.  1.
        -12    1    4    4    0    0  0.67546662290E+01  0.59278128933E+01  0.14694434419E+02  0.17224717253E+02  0.00000000000E+00 0.  1.
</event>
<event>
 8    1  0.1212194E-006  0.9118800E+02  0.7816164E-02  0.1184000E+00
        -11   -1    0    0    0    0  0.00000000000E+00  0.00000000000E+00  0.45593999997E+02  0.45594000000E+02  0.51100000000E-03 0.  1.
         11   -1    0    0    0    0 -0.00000000000E+00 -0.00000000000E+00 -0.45593999997E+02  0.45594000000E+02  0.51100000000E-03 0. -1.
         23    2    1    2    0    0  0.44408920985E-15  0.35527136788E-14 -0.71054273576E-14  0.91188000000E+02  0.91188000000E+02 0.  0.
    9900012    2    3    3    0    0  0.24933552608E+01 -0.20410688068E+02  0.30544506109E+02  0.54367083915E+02  0.39999999401E+02 0.  0.
         12    1    3    3    0    0 -0.24933552608E+01  0.20410688068E+02 -0.30544506109E+02  0.36820916085E+02  0.00000000000E+00 0. -1.
         11    1    4    4    0    0  0.93544672558E+01 -0.10884537288E+02  0.86162721188E+01  0.16739753735E+02  0.51100000000E-03 0. -1.
        -11    1    4    4    0    0 -0.87325012552E+01 -0.15327651341E+02  0.25159712744E+02  0.30727912709E+02  0.51100000000E-03 0.  1.
         12    1    4    4    0    0  0.18713892602E+01  0.58015005604E+01 -0.32314787536E+01  0.68994174718E+01  0.00000000000E+00 0. -1.
</event>
<event>
 8    1  0.1212194E-006  0.9118800E+02  0.7816164E-02  0.1184000E+00
        -11   -1    0    0    0    0  0.00000000000E+00  0.00000000000E+00  0.45593999997E+02  0.45594000000E+02  0.51100000000E-03 0.  1.
         11   -1    0    0    0    0 -0.00000000000E+00 -0.00000000000E+00 -0.45593999997E+02  0.45594000000E+02  0.51100000000E-03 0. -1.
         23    2    1    2    0    0  0.00000000000E+00  0.88817841970E-15 -0.35527136788E-14  0.91188000000E+02  0.91188000000E+02 0.  0.
    9900012    2    3    3    0    0  0.31204879747E+02 -0.73825826470E+01  0.18097831754E+02  0.54367101576E+02  0.40000039663E+02 0.  0.
         12    1    3    3    0    0 -0.31204879747E+02  0.73825826470E+01 -0.18097831754E+02  0.36820898424E+02  0.00000000000E+00 0. -1.
         11    1    4    4    0    0 -0.25047773449E+01  0.89953354585E+00 -0.74446863178E+01  0.79061004787E+01  0.51100000000E-03 0. -1.
        -11    1    4    4    0    0 -0.38968726334E+00  0.23786122412E+00  0.64430192185E+01  0.64591741760E+01  0.51100000000E-03 0.  1.
         12    1    4    4    0    0  0.34099344355E+02 -0.85199774170E+01  0.19099498853E+02  0.40001826922E+02  0.00000000000E+00 0. -1.
</event>
<event>
 8    1  0.1212194E-006  0.9118800E+02  0.7816164E-02  0.1184000E+00
        -11   -1    0    0    0    0  0.00000000000E+00  0.00000000000E+00  0.45593999997E+02  0.45594000000E+02  0.51100000000E-03 0. -1.
         11   -1    0    0    0    0 -0.00000000000E+00 -0.00000000000E+00 -0.45593999997E+02  0.45594000000E+02  0.51100000000E-03 0.  1.
         23    2    1    2    0    0  0.00000000000E+00  0.00000000000E+00  0.17763568394E-14  0.91188000000E+02  0.91188000000E+02 0.  0.
    9900012    2    3    3    0    0 -0.32033523557E+02  0.15880827308E+02  0.87994021279E+01  0.54367125686E+02  0.40000094626E+02 0.  0.
        -12    1    3    3    0    0  0.32033523557E+02 -0.15880827308E+02 -0.87994021279E+01  0.36820874314E+02  0.00000000000E+00 0.  1.
         11    1    4    4    0    0 -0.33156321012E+02  0.26014834973E+02  0.84928256024E+01  0.42991177568E+02  0.51100000000E-03 0. -1.
        -11    1    4    4    0    0  0.11371384758E+01 -0.62987459416E+01 -0.22297794717E+01  0.67778463470E+01  0.51100000000E-03 0.  1.
         12    1    4    4    0    0 -0.14341020043E-01 -0.38352617231E+01  0.25363559972E+01  0.45981017707E+01  0.00000000000E+00 0. -1.
</event>
<event>
 8    1  0.1212194E-006  0.9118800E+02  0.7816164E-02  0.1184000E+00
        -11   -1    0    0    0    0  0.00000000000E+00  0.00000000000E+00  0.45593999997E+02  0.45594000000E+02  0.51100000000E-03 0.  1.
         11   -1    0    0    0    0 -0.00000000000E+00 -0.00000000000E+00 -0.45593999997E+02  0.45594000000E+02  0.51100000000E-03 0. -1.
         23    2    1    2    0    0  0.00000000000E+00 -0.35527136788E-14  0.00000000000E+00  0.91188000000E+02  0.91188000000E+02 0.  0.
    9900012    2    3    3    0    0  0.23871512207E+02 -0.26811494511E+02  0.81898968294E+01  0.54367085521E+02  0.40000003063E+02 0.  0.
        -12    1    3    3    0    0 -0.23871512207E+02  0.26811494511E+02 -0.81898968294E+01  0.36820914479E+02  0.00000000000E+00 0.  1.
         11    1    4    4    0    0  0.19973101226E+02 -0.12900691319E+02 -0.30544213972E+01  0.23972528015E+02  0.51100000000E-03 0. -1.
        -11    1    4    4    0    0  0.13454071711E+02 -0.36412955220E+01  0.34984938184E+01  0.14370474520E+02  0.51100000000E-03 0.  1.
        -12    1    4    4    0    0 -0.95556607298E+01 -0.10269507670E+02  0.77458244083E+01  0.16024082986E+02  0.00000000000E+00 0.  1.
</event>
<event>
 8    1  0.1212194E-006  0.9118800E+02  0.7816164E-02  0.1184000E+00
        -11   -1    0    0    0    0  0.00000000000E+00  0.00000000000E+00  0.45593999997E+02  0.45594000000E+02  0.51100000000E-03 0.  1.
         11   -1    0    0    0    0 -0.00000000000E+00 -0.00000000000E+00 -0.45593999997E+02  0.45594000000E+02  0.51100000000E-03 0. -1.
         23    2    1    2    0    0  0.00000000000E+00  0.00000000000E+00 -0.35527136788E-14  0.91188000000E+02  0.91188000000E+02 0.  0.
    9900012    2    3    3    0    0 -0.13457646075E+02 -0.25644270795E+02 -0.22738576484E+02  0.54367085794E+02  0.40000003684E+02 0.  0.
        -12    1    3    3    0    0  0.13457646075E+02  0.25644270795E+02  0.22738576484E+02  0.36820914206E+02  0.00000000000E+00 0.  1.
         11    1    4    4    0    0  0.36082914971E+01 -0.26872944961E+02 -0.21491170231E+02  0.34598342974E+02  0.51100000000E-03 0.  1.
        -11    1    4    4    0    0  0.92466139280E+00 -0.37770918441E+00 -0.13831035731E+01  0.17060593994E+01  0.51100000000E-03 0. -1.
        -12    1    4    4    0    0 -0.17990598965E+02  0.16063833505E+01  0.13569732019E+00  0.18062683420E+02  0.00000000000E+00 0.  1.
</event>
<event>
 8    1  0.1212194E-006  0.9118800E+02  0.7816164E-02  0.1184000E+00
        -11   -1    0    0    0    0  0.00000000000E+00  0.00000000000E+00  0.45593999997E+02  0.45594000000E+02  0.51100000000E-03 0.  1.
         11   -1    0    0    0    0 -0.00000000000E+00 -0.00000000000E+00 -0.45593999997E+02  0.45594000000E+02  0.51100000000E-03 0. -1.
         23    2    1    2    0    0  0.00000000000E+00 -0.35527136788E-14 -0.17763568394E-14  0.91188000000E+02  0.91188000000E+02 0.  0.
    9900012    2    3    3    0    0 -0.22056284906E+02  0.28755667094E+02  0.65124173840E+01  0.54367086458E+02  0.40000005199E+02 0.  0.
         12    1    3    3    0    0  0.22056284906E+02 -0.28755667094E+02 -0.65124173840E+01  0.36820913542E+02  0.00000000000E+00 0. -1.
         11    1    4    4    0    0 -0.10753760041E+02 -0.64721650932E+00 -0.10118784103E+02  0.14780123011E+02  0.51100000000E-03 0. -1.
        -11    1    4    4    0    0 -0.72320988509E+01  0.10826982086E+01  0.33572716876E+01  0.80465373078E+01  0.51100000000E-03 0.  1.
         12    1    4    4    0    0 -0.40704260138E+01  0.28320185395E+02  0.13273929800E+02  0.31540426139E+02  0.00000000000E+00 0. -1.
</event>
<event>
 8    1  0.1212194E-006  0.9118800E+02  0.7816164E-02  0.1184000E+00
        -11   -1    0    0    0    0  0.00000000000E+00  0.00000000000E+00  0.45593999997E+02  0.45594000000E+02  0.51100000000E-03 0.  1.
         11   -1    0    0    0    0 -0.00000000000E+00 -0.00000000000E+00 -0.45593999997E+02  0.45594000000E+02  0.51100000000E-03 0. -1.
         23    2    1    2    0    0  0.00000000000E+00  0.00000000000E+00  0.00000000000E+00  0.91188000000E+02  0.91188000000E+02 0.  0.
    9900012    2    3    3    0    0 -0.28440685048E+02 -0.14804535156E+02 -0.18103442920E+02  0.54367062033E+02  0.39999949517E+02 0.  0.
        -12    1    3    3    0    0  0.28440685048E+02  0.14804535156E+02  0.18103442920E+02  0.36820937967E+02  0.00000000000E+00 0.  1.
         11    1    4    4    0    0 -0.27032589182E+02 -0.52489153003E+01 -0.93041627201E+01  0.29066809833E+02  0.51100000000E-03 0. -1.
        -11    1    4    4    0    0  0.30585955374E+01  0.54246196592E+01  0.17173186916E+01  0.64599294778E+01  0.51100000000E-03 0.  1.
        -12    1    4    4    0    0 -0.44666914042E+01 -0.14980239515E+02 -0.10516598892E+02  0.18840322722E+02  0.00000000000E+00 0.  1.
</event>
<event>
 8    1  0.1212194E-006  0.9118800E+02  0.7816164E-02  0.1184000E+00
        -11   -1    0    0    0    0  0.00000000000E+00  0.00000000000E+00  0.45593999997E+02  0.45594000000E+02  0.51100000000E-03 0.  1.
         11   -1    0    0    0    0 -0.00000000000E+00 -0.00000000000E+00 -0.45593999997E+02  0.45594000000E+02  0.51100000000E-03 0. -1.
         23    2    1    2    0    0 -0.88817841970E-15 -0.35527136788E-14 -0.35527136788E-14  0.91188000000E+02  0.91188000000E+02 0.  0.
    9900012    2    3    3    0    0  0.57871962264E+01  0.26997024176E+02  0.24360779266E+02  0.54367102116E+02  0.40000040894E+02 0.  0.
         12    1    3    3    0    0 -0.57871962264E+01 -0.26997024176E+02 -0.24360779266E+02  0.36820897884E+02  0.00000000000E+00 0. -1.
         11    1    4    4    0    0  0.46456653476E+01 -0.56401549415E+01  0.15701838430E+02  0.17318813026E+02  0.51100000000E-03 0.  1.
        -11    1    4    4    0    0  0.37411480181E+01  0.19902919103E+01  0.42061518730E+01  0.59706921057E+01  0.51100000000E-03 0. -1.
        -12    1    4    4    0    0 -0.25996171393E+01  0.30646887208E+02  0.44527889627E+01  0.31077596984E+02  0.00000000000E+00 0.  1.
</event>
<event>
 8    1  0.1212194E-006  0.9118800E+02  0.7816164E-02  0.1184000E+00
        -11   -1    0    0    0    0  0.00000000000E+00  0.00000000000E+00  0.45593999997E+02  0.45594000000E+02  0.51100000000E-03 0.  1.
         11   -1    0    0    0    0 -0.00000000000E+00 -0.00000000000E+00 -0.45593999997E+02  0.45594000000E+02  0.51100000000E-03 0. -1.
         23    2    1    2    0    0  0.71054273576E-14  0.00000000000E+00  0.00000000000E+00  0.91188000000E+02  0.91188000000E+02 0.  0.
    9900012    2    3    3    0    0  0.35391661472E+02  0.91972543401E+01 -0.43152635296E+01  0.54367072683E+02  0.39999973795E+02 0.  0.
        -12    1    3    3    0    0 -0.35391661472E+02 -0.91972543401E+01  0.43152635296E+01  0.36820927317E+02  0.00000000000E+00 0.  1.
         11    1    4    4    0    0 -0.22068570207E+01  0.38931341101E+01 -0.43636600738E+01  0.62504592319E+01  0.51100000000E-03 0. -1.
        -11    1    4    4    0    0 -0.49342359919E+01  0.10602239781E+01  0.17422182420E+01  0.53391089492E+01  0.51100000000E-03 0.  1.
         12    1    4    4    0    0  0.42532754485E+02  0.42438962518E+01 -0.16938216978E+01  0.42777504502E+02  0.00000000000E+00 0. -1.
</event>
<event>
 8    1  0.1212194E-006  0.9118800E+02  0.7816164E-02  0.1184000E+00
        -11   -1    0    0    0    0  0.00000000000E+00  0.00000000000E+00  0.45593999997E+02  0.45594000000E+02  0.51100000000E-03 0.  1.
         11   -1    0    0    0    0 -0.00000000000E+00 -0.00000000000E+00 -0.45593999997E+02  0.45594000000E+02  0.51100000000E-03 0. -1.
         23    2    1    2    0    0  0.35527136788E-14  0.00000000000E+00  0.88817841970E-15  0.91188000000E+02  0.91188000000E+02 0.  0.
    9900012    2    3    3    0    0 -0.31956535881E+02 -0.17770063910E+02  0.43340813415E+01  0.54367087220E+02  0.40000006936E+02 0.  0.
         12    1    3    3    0    0  0.31956535881E+02  0.17770063910E+02 -0.43340813415E+01  0.36820912780E+02  0.00000000000E+00 0. -1.
         11    1    4    4    0    0 -0.15610829097E+01 -0.52619267051E+00  0.11373035221E+02  0.11491726979E+02  0.51100000000E-03 0. -1.
        -11    1    4    4    0    0 -0.32263469713E+02 -0.10451331478E+02 -0.98113587649E+01  0.35304738615E+02  0.51100000000E-03 0.  1.
         12    1    4    4    0    0  0.18680167420E+01 -0.67925397614E+01  0.27724048856E+01  0.75706216262E+01  0.00000000000E+00 0. -1.
</event>
<event>
 8    1  0.1212194E-006  0.9118800E+02  0.7816164E-02  0.1184000E+00
        -11   -1    0    0    0    0  0.00000000000E+00  0.00000000000E+00  0.45593999997E+02  0.45594000000E+02  0.51100000000E-03 0.  1.
         11   -1    0    0    0    0 -0.00000000000E+00 -0.00000000000E+00 -0.45593999997E+02  0.45594000000E+02  0.51100000000E-03 0. -1.
         23    2    1    2    0    0  0.00000000000E+00  0.17763568394E-14 -0.17763568394E-14  0.91188000000E+02  0.91188000000E+02 0.  0.
    9900012    2    3    3    0    0  0.30252697705E+02  0.14891737908E+02 -0.14791540344E+02  0.54367092324E+02  0.40000018570E+02 0.  0.
        -12    1    3    3    0    0 -0.30252697705E+02 -0.14891737908E+02  0.14791540344E+02  0.36820907676E+02  0.00000000000E+00 0.  1.
         11    1    4    4    0    0  0.31152270412E+01  0.60799224678E+01 -0.50475497791E+01  0.84939893905E+01  0.51100000000E-03 0. -1.
        -11    1    4    4    0    0 -0.77250011009E+01  0.55693543610E+00  0.22950731113E+01  0.80779440414E+01  0.51100000000E-03 0.  1.
         12    1    4    4    0    0  0.34862471765E+02  0.82548800043E+01 -0.12039063676E+02  0.37795158892E+02  0.00000000000E+00 0. -1.
</event>
<event>
 8    1  0.1212194E-006  0.9118800E+02  0.7816164E-02  0.1184000E+00
        -11   -1    0    0    0    0  0.00000000000E+00  0.00000000000E+00  0.45593999997E+02  0.45594000000E+02  0.51100000000E-03 0. -1.
         11   -1    0    0    0    0 -0.00000000000E+00 -0.00000000000E+00 -0.45593999997E+02  0.45594000000E+02  0.51100000000E-03 0.  1.
         23    2    1    2    0    0  0.00000000000E+00  0.00000000000E+00  0.00000000000E+00  0.91188000000E+02  0.91188000000E+02 0.  0.
    9900012    2    3    3    0    0 -0.22934670422E+02  0.22304451620E+02  0.18228860969E+02  0.54367095045E+02  0.40000024775E+02 0.  0.
         12    1    3    3    0    0  0.22934670422E+02 -0.22304451620E+02 -0.18228860969E+02  0.36820904955E+02  0.00000000000E+00 0. -1.
         11    1    4    4    0    0  0.94985661772E+01  0.12806105075E+02  0.29092646791E+01  0.16207495422E+02  0.51100000000E-03 0. -1.
        -11    1    4    4    0    0 -0.80864991845E+01 -0.11388719507E+01  0.18584650546E+01  0.83751054323E+01  0.51100000000E-03 0.  1.
         12    1    4    4    0    0 -0.24346737415E+02  0.10637218496E+02  0.13461131235E+02  0.29784494191E+02  0.00000000000E+00 0. -1.
</event>
<event>
 8    1  0.1212194E-006  0.9118800E+02  0.7816164E-02  0.1184000E+00
        -11   -1    0    0    0    0  0.00000000000E+00  0.00000000000E+00  0.45593999997E+02  0.45594000000E+02  0.51100000000E-03 0.  1.
         11   -1    0    0    0    0 -0.00000000000E+00 -0.00000000000E+00 -0.45593999997E+02  0.45594000000E+02  0.51100000000E-03 0. -1.
         23    2    1    2    0    0  0.00000000000E+00  0.00000000000E+00  0.00000000000E+00  0.91188000000E+02  0.91188000000E+02 0.  0.
    9900012    2    3    3    0    0  0.26530150457E+02  0.21337882000E+02 -0.14022400916E+02  0.54367057332E+02  0.39999938800E+02 0.  0.
        -12    1    3    3    0    0 -0.26530150457E+02 -0.21337882000E+02  0.14022400916E+02  0.36820942668E+02  0.00000000000E+00 0.  1.
         11    1    4    4    0    0  0.23449471668E+01  0.24453164431E+01 -0.17664057707E+02  0.17986030264E+02  0.51100000000E-03 0. -1.
        -11    1    4    4    0    0 -0.13732219172E+01  0.84383655353E+01  0.15436842978E+01  0.86876183625E+01  0.51100000000E-03 0.  1.
         12    1    4    4    0    0  0.25558425207E+02  0.10454200021E+02  0.20979724929E+01  0.27693408706E+02  0.00000000000E+00 0. -1.
</event>
<event>
 8    1  0.1212194E-006  0.9118800E+02  0.7816164E-02  0.1184000E+00
        -11   -1    0    0    0    0  0.00000000000E+00  0.00000000000E+00  0.45593999997E+02  0.45594000000E+02  0.51100000000E-03 0.  1.
         11   -1    0    0    0    0 -0.00000000000E+00 -0.00000000000E+00 -0.45593999997E+02  0.45594000000E+02  0.51100000000E-03 0. -1.
         23    2    1    2    0    0  0.00000000000E+00  0.17763568394E-14  0.71054273576E-14  0.91188000000E+02  0.91188000000E+02 0.  0.
    9900012    2    3    3    0    0  0.18133958225E+02  0.11207249338E+02  0.30022267610E+02  0.54367089758E+02  0.40000012721E+02 0.  0.
         12    1    3    3    0    0 -0.18133958225E+02 -0.11207249338E+02 -0.30022267610E+02  0.36820910242E+02  0.00000000000E+00 0. -1.
         11    1    4    4    0    0  0.71487650916E+01 -0.68380244020E+01  0.99000907178E+01  0.13995542738E+02  0.51100000000E-03 0. -1.
        -11    1    4    4    0    0  0.38019002502E+01  0.18629605338E+02  0.16933165285E-01  0.19013598490E+02  0.51100000000E-03 0.  1.
        -12    1    4    4    0    0  0.71832928836E+01 -0.58433159828E+00  0.20105243727E+02  0.21357948529E+02  0.00000000000E+00 0.  1.
</event>
<event>
 8    1  0.1212194E-006  0.9118800E+02  0.7816164E-02  0.1184000E+00
        -11   -1    0    0    0    0  0.00000000000E+00  0.00000000000E+00  0.45593999997E+02  0.45594000000E+02  0.51100000000E-03 0. -1.
         11   -1    0    0    0    0 -0.00000000000E+00 -0.00000000000E+00 -0.45593999997E+02  0.45594000000E+02  0.51100000000E-03 0.  1.
         23    2    1    2    0    0  0.17763568394E-14  0.00000000000E+00 -0.88817841970E-15  0.91188000000E+02  0.91188000000E+02 0.  0.
    9900012    2    3    3    0    0 -0.94201898720E+01  0.35188686147E+02  0.53660485512E+01  0.54367108009E+02  0.40000054328E+02 0.  0.
         12    1    3    3    0    0  0.94201898720E+01 -0.35188686147E+02 -0.53660485512E+01  0.36820891991E+02  0.00000000000E+00 0. -1.
         11    1    4    4    0    0  0.37398074033E+00 -0.19635140094E+01  0.98802846275E+00  0.22296747214E+01  0.51100000000E-03 0. -1.
        -11    1    4    4    0    0  0.92073939298E+01  0.16363982377E+02 -0.91565238737E+01  0.20890140065E+02  0.51100000000E-03 0.  1.
         12    1    4    4    0    0 -0.19001564542E+02  0.20788217779E+02  0.13534543962E+02  0.31247293223E+02  0.00000000000E+00 0. -1.
</event>
<event>
 8    1  0.1212194E-006  0.9118800E+02  0.7816164E-02  0.1184000E+00
        -11   -1    0    0    0    0  0.00000000000E+00  0.00000000000E+00  0.45593999997E+02  0.45594000000E+02  0.51100000000E-03 0. -1.
         11   -1    0    0    0    0 -0.00000000000E+00 -0.00000000000E+00 -0.45593999997E+02  0.45594000000E+02  0.51100000000E-03 0.  1.
         23    2    1    2    0    0  0.00000000000E+00  0.17763568394E-14  0.00000000000E+00  0.91188000000E+02  0.91188000000E+02 0.  0.
    9900012    2    3    3    0    0 -0.27011748375E+02 -0.97292454711E+01  0.23053984726E+02  0.54367095890E+02  0.40000026700E+02 0.  0.
        -12    1    3    3    0    0  0.27011748375E+02  0.97292454711E+01 -0.23053984726E+02  0.36820904110E+02  0.00000000000E+00 0.  1.
         11    1    4    4    0    0  0.21731364409E+01  0.60833935602E+01  0.41326314329E+01  0.76686923280E+01  0.51100000000E-03 0. -1.
        -11    1    4    4    0    0 -0.36464459854E+01  0.70757977200E+01  0.10562668317E+01  0.80298929993E+01  0.51100000000E-03 0.  1.
         12    1    4    4    0    0 -0.25538438831E+02 -0.22888436751E+02  0.17865086462E+02  0.38668510563E+02  0.00000000000E+00 0. -1.
</event>
<event>
 8    1  0.1212194E-006  0.9118800E+02  0.7816164E-02  0.1184000E+00
        -11   -1    0    0    0    0  0.00000000000E+00  0.00000000000E+00  0.45593999997E+02  0.45594000000E+02  0.51100000000E-03 0. -1.
         11   -1    0    0    0    0 -0.00000000000E+00 -0.00000000000E+00 -0.45593999997E+02  0.45594000000E+02  0.51100000000E-03 0.  1.
         23    2    1    2    0    0  0.00000000000E+00  0.00000000000E+00  0.88817841970E-15  0.91188000000E+02  0.91188000000E+02 0.  0.
    9900012    2    3    3    0    0 -0.36267265481E+02 -0.42331739103E+01 -0.47482440658E+01  0.54367080287E+02  0.39999991130E+02 0.  0.
         12    1    3    3    0    0  0.36267265481E+02  0.42331739103E+01  0.47482440658E+01  0.36820919713E+02  0.00000000000E+00 0. -1.
         11    1    4    4    0    0  0.10838414945E+01  0.83294986488E+00 -0.50494462452E+01  0.52311973301E+01  0.51100000000E-03 0. -1.
        -11    1    4    4    0    0 -0.35074260825E+01  0.35674446345E+01  0.11431073410E+02  0.12477906015E+02  0.51100000000E-03 0.  1.
        -12    1    4    4    0    0 -0.33843680893E+02 -0.86335684097E+01 -0.11129871231E+02  0.36657976942E+02  0.00000000000E+00 0.  1.
</event>
<event>
 8    1  0.1212194E-006  0.9118800E+02  0.7816164E-02  0.1184000E+00
        -11   -1    0    0    0    0  0.00000000000E+00  0.00000000000E+00  0.45593999997E+02  0.45594000000E+02  0.51100000000E-03 0.  1.
         11   -1    0    0    0    0 -0.00000000000E+00 -0.00000000000E+00 -0.45593999997E+02  0.45594000000E+02  0.51100000000E-03 0. -1.
         23    2    1    2    0    0 -0.17763568394E-14 -0.17763568394E-14  0.71054273576E-14  0.91188000000E+02  0.91188000000E+02 0.  0.
    9900012    2    3    3    0    0 -0.15097338071E+02  0.88546000273E+01 -0.32395118440E+02  0.54367119277E+02  0.40000080017E+02 0.  0.
        -12    1    3    3    0    0  0.15097338071E+02 -0.88546000273E+01  0.32395118440E+02  0.36820880723E+02  0.00000000000E+00 0.  1.
         11    1    4    4    0    0  0.35864188938E+01 -0.41217410844E+01 -0.26063865434E+01  0.60534619123E+01  0.51100000000E-03 0. -1.
        -11    1    4    4    0    0 -0.15536893198E+02 -0.54157943239E+01 -0.48242885011E+01  0.17146417650E+02  0.51100000000E-03 0.  1.
         12    1    4    4    0    0 -0.31468637661E+01  0.18392135436E+02 -0.24964443395E+02  0.31167239715E+02  0.00000000000E+00 0. -1.
</event>
<event>
 8    1  0.1212194E-006  0.9118800E+02  0.7816164E-02  0.1184000E+00
        -11   -1    0    0    0    0  0.00000000000E+00  0.00000000000E+00  0.45593999997E+02  0.45594000000E+02  0.51100000000E-03 0.  1.
         11   -1    0    0    0    0 -0.00000000000E+00 -0.00000000000E+00 -0.45593999997E+02  0.45594000000E+02  0.51100000000E-03 0. -1.
         23    2    1    2    0    0  0.00000000000E+00  0.35527136788E-14 -0.44408920985E-15  0.91188000000E+02  0.91188000000E+02 0.  0.
    9900012    2    3    3    0    0  0.34599482471E+02 -0.12500337286E+02 -0.15482833986E+01  0.54367084734E+02  0.40000001268E+02 0.  0.
        -12    1    3    3    0    0 -0.34599482471E+02  0.12500337286E+02  0.15482833986E+01  0.36820915266E+02  0.00000000000E+00 0.  1.
         11    1    4    4    0    0 -0.10827157838E+01  0.41359647045E+01  0.30723692166E+01  0.52647820819E+01  0.51100000000E-03 0. -1.
        -11    1    4    4    0    0  0.55845287002E+01 -0.25475973751E+01  0.10834377214E+02  0.12452346890E+02  0.51100000000E-03 0.  1.
         12    1    4    4    0    0  0.30097669555E+02 -0.14088704616E+02 -0.15455029829E+02  0.36649955762E+02  0.00000000000E+00 0. -1.
</event>
<event>
 8    1  0.1212194E-006  0.9118800E+02  0.7816164E-02  0.1184000E+00
        -11   -1    0    0    0    0  0.00000000000E+00  0.00000000000E+00  0.45593999997E+02  0.45594000000E+02  0.51100000000E-03 0.  1.
         11   -1    0    0    0    0 -0.00000000000E+00 -0.00000000000E+00 -0.45593999997E+02  0.45594000000E+02  0.51100000000E-03 0. -1.
         23    2    1    2    0    0  0.88817841970E-15 -0.35527136788E-14  0.00000000000E+00  0.91188000000E+02  0.91188000000E+02 0.  0.
    9900012    2    3    3    0    0 -0.74344872778E+01  0.24723651147E+02 -0.26253545270E+02  0.54367093352E+02  0.40000020915E+02 0.  0.
        -12    1    3    3    0    0  0.74344872778E+01 -0.24723651147E+02  0.26253545270E+02  0.36820906648E+02  0.00000000000E+00 0.  1.
         11    1    4    4    0    0 -0.55692782667E+01  0.13225589798E+02 -0.58565215153E+01  0.15499417100E+02  0.51100000000E-03 0. -1.
        -11    1    4    4    0    0 -0.51572961259E+00 -0.18262145812E+01 -0.24721595559E+02  0.24794320398E+02  0.51100000000E-03 0.  1.
        -12    1    4    4    0    0 -0.13494793984E+01  0.13324275931E+02  0.43245718045E+01  0.14073355855E+02  0.00000000000E+00 0.  1.
</event>
<event>
 8    1  0.1212194E-006  0.9118800E+02  0.7816164E-02  0.1184000E+00
        -11   -1    0    0    0    0  0.00000000000E+00  0.00000000000E+00  0.45593999997E+02  0.45594000000E+02  0.51100000000E-03 0.  1.
         11   -1    0    0    0    0 -0.00000000000E+00 -0.00000000000E+00 -0.45593999997E+02  0.45594000000E+02  0.51100000000E-03 0. -1.
         23    2    1    2    0    0  0.00000000000E+00  0.35527136788E-14  0.00000000000E+00  0.91188000000E+02  0.91188000000E+02 0.  0.
    9900012    2    3    3    0    0 -0.17331001880E+02 -0.30378194708E+02 -0.11514499522E+02  0.54367054343E+02  0.39999931985E+02 0.  0.
         12    1    3    3    0    0  0.17331001880E+02  0.30378194708E+02  0.11514499522E+02  0.36820945657E+02  0.00000000000E+00 0. -1.
         11    1    4    4    0    0 -0.80217733634E+01 -0.62450623513E+01 -0.16995888846E+02  0.19804289676E+02  0.51100000000E-03 0. -1.
        -11    1    4    4    0    0 -0.94024915631E+01 -0.44357716027E+01 -0.57578303989E+01  0.11884255487E+02  0.51100000000E-03 0.  1.
        -12    1    4    4    0    0  0.93263046928E-01 -0.19697360754E+02  0.11239219723E+02  0.22678509180E+02  0.00000000000E+00 0.  1.
</event>
<event>
 8    1  0.1212194E-006  0.9118800E+02  0.7816164E-02  0.1184000E+00
        -11   -1    0    0    0    0  0.00000000000E+00  0.00000000000E+00  0.45593999997E+02  0.45594000000E+02  0.51100000000E-03 0. -1.
         11   -1    0    0    0    0 -0.00000000000E+00 -0.00000000000E+00 -0.45593999997E+02  0.45594000000E+02  0.51100000000E-03 0.  1.
         23    2    1    2    0    0  0.00000000000E+00  0.00000000000E+00 -0.35527136788E-14  0.91188000000E+02  0.91188000000E+02 0.  0.
    9900012    2    3    3    0    0  0.22164065809E+02 -0.23626701218E+02  0.17501797813E+02  0.54367085423E+02  0.40000002838E+02 0.  0.
        -12    1    3    3    0    0 -0.22164065809E+02  0.23626701218E+02 -0.17501797813E+02  0.36820914577E+02  0.00000000000E+00 0.  1.
         11    1    4    4    0    0  0.19801040832E+02 -0.26325215700E+02  0.20441290408E+02  0.38767828847E+02  0.51100000000E-03 0. -1.
        -11    1    4    4    0    0 -0.16316926544E+01  0.39065118404E+01  0.50473439588E+01  0.65877869560E+01  0.51100000000E-03 0.  1.
        -12    1    4    4    0    0  0.39947176317E+01 -0.12079973581E+01 -0.79868365537E+01  0.90114696198E+01  0.00000000000E+00 0.  1.
</event>
<event>
 8    1  0.1212194E-006  0.9118800E+02  0.7816164E-02  0.1184000E+00
        -11   -1    0    0    0    0  0.00000000000E+00  0.00000000000E+00  0.45593999997E+02  0.45594000000E+02  0.51100000000E-03 0.  1.
         11   -1    0    0    0    0 -0.00000000000E+00 -0.00000000000E+00 -0.45593999997E+02  0.45594000000E+02  0.51100000000E-03 0. -1.
         23    2    1    2    0    0 -0.35527136788E-14  0.17763568394E-14 -0.17763568394E-14  0.91188000000E+02  0.91188000000E+02 0.  0.
    9900012    2    3    3    0    0 -0.31127025303E+02 -0.15009806340E+02  0.12711963137E+02  0.54367082068E+02  0.39999995190E+02 0.  0.
         12    1    3    3    0    0  0.31127025303E+02  0.15009806340E+02 -0.12711963137E+02  0.36820917932E+02  0.00000000000E+00 0. -1.
         11    1    4    4    0    0 -0.35327154372E+02 -0.15526398417E+02  0.78582311717E+01  0.39380562226E+02  0.51100000000E-03 0. -1.
        -11    1    4    4    0    0 -0.49436790913E+01  0.61060126726E+00  0.10969557117E+01  0.51005988825E+01  0.51100000000E-03 0.  1.
         12    1    4    4    0    0  0.91438081604E+01 -0.94009190404E-01  0.37567762540E+01  0.98859209599E+01  0.00000000000E+00 0. -1.
</event>
<event>
 8    1  0.1212194E-006  0.9118800E+02  0.7816164E-02  0.1184000E+00
        -11   -1    0    0    0    0  0.00000000000E+00  0.00000000000E+00  0.45593999997E+02  0.45594000000E+02  0.51100000000E-03 0.  1.
         11   -1    0    0    0    0 -0.00000000000E+00 -0.00000000000E+00 -0.45593999997E+02  0.45594000000E+02  0.51100000000E-03 0. -1.
         23    2    1    2    0    0 -0.17763568394E-14  0.00000000000E+00 -0.71054273576E-14  0.91188000000E+02  0.91188000000E+02 0.  0.
    9900012    2    3    3    0    0 -0.14916976607E+02  0.77792222336E+01 -0.32752878728E+02  0.54367033763E+02  0.39999885070E+02 0.  0.
        -12    1    3    3    0    0  0.14916976607E+02 -0.77792222336E+01  0.32752878728E+02  0.36820966237E+02  0.00000000000E+00 0.  1.
         11    1    4    4    0    0 -0.75778887715E+01  0.24156914343E+01 -0.53551954070E+01  0.95884347757E+01  0.51100000000E-03 0. -1.
        -11    1    4    4    0    0 -0.92826975358E+01 -0.86661628067E+01  0.13103888260E+01  0.12766674213E+02  0.51100000000E-03 0.  1.
         12    1    4    4    0    0  0.19436097005E+01  0.14029693606E+02 -0.28708072147E+02  0.32011924774E+02  0.00000000000E+00 0. -1.
</event>
<event>
 8    1  0.1212194E-006  0.9118800E+02  0.7816164E-02  0.1184000E+00
        -11   -1    0    0    0    0  0.00000000000E+00  0.00000000000E+00  0.45593999997E+02  0.45594000000E+02  0.51100000000E-03 0.  1.
         11   -1    0    0    0    0 -0.00000000000E+00 -0.00000000000E+00 -0.45593999997E+02  0.45594000000E+02  0.51100000000E-03 0. -1.
         23    2    1    2    0    0 -0.35527136788E-14  0.00000000000E+00  0.35527136788E-14  0.91188000000E+02  0.91188000000E+02 0.  0.
    9900012    2    3    3    0    0 -0.17033972997E+02 -0.11144691976E+02  0.30682763180E+02  0.54366914307E+02  0.39999612743E+02 0.  0.
         12    1    3    3    0    0  0.17033972997E+02  0.11144691976E+02 -0.30682763180E+02  0.36821085693E+02  0.00000000000E+00 0. -1.
         11    1    4    4    0    0  0.21462596879E+01 -0.94592403588E+00  0.36048631889E+01  0.43007257296E+01  0.51100000000E-03 0. -1.
        -11    1    4    4    0    0  0.14461641019E+01 -0.18690977936E+02  0.17981689932E+02  0.25976628339E+02  0.51100000000E-03 0.  1.
        -12    1    4    4    0    0 -0.20626396787E+02  0.84922099960E+01  0.90962100588E+01  0.24089560238E+02  0.00000000000E+00 0.  1.
</event>
<event>
 8    1  0.1212194E-006  0.9118800E+02  0.7816164E-02  0.1184000E+00
        -11   -1    0    0    0    0  0.00000000000E+00  0.00000000000E+00  0.45593999997E+02  0.45594000000E+02  0.51100000000E-03 0.  1.
         11   -1    0    0    0    0 -0.00000000000E+00 -0.00000000000E+00 -0.45593999997E+02  0.45594000000E+02  0.51100000000E-03 0. -1.
         23    2    1    2    0    0  0.17763568394E-14  0.00000000000E+00  0.00000000000E+00  0.91188000000E+02  0.91188000000E+02 0.  0.
    9900012    2    3    3    0    0 -0.80834654945E+01 -0.12945311803E+02 -0.33509054311E+02  0.54367078869E+02  0.39999987899E+02 0.  0.
        -12    1    3    3    0    0  0.80834654945E+01  0.12945311803E+02  0.33509054311E+02  0.36820921131E+02  0.00000000000E+00 0.  1.
         11    1    4    4    0    0 -0.71486346738E+01 -0.12856879826E+02 -0.32187300831E+02  0.35389612481E+02  0.51100000000E-03 0. -1.
        -11    1    4    4    0    0 -0.37130464193E+01  0.62375610820E+01  0.56222973182E+01  0.91817269268E+01  0.51100000000E-03 0.  1.
         12    1    4    4    0    0  0.27782155986E+01 -0.63259930592E+01 -0.69440507985E+01  0.97957394611E+01  0.00000000000E+00 0. -1.
</event>
<event>
 8    1  0.1212194E-006  0.9118800E+02  0.7816164E-02  0.1184000E+00
        -11   -1    0    0    0    0  0.00000000000E+00  0.00000000000E+00  0.45593999997E+02  0.45594000000E+02  0.51100000000E-03 0.  1.
         11   -1    0    0    0    0 -0.00000000000E+00 -0.00000000000E+00 -0.45593999997E+02  0.45594000000E+02  0.51100000000E-03 0. -1.
         23    2    1    2    0    0  0.35527136788E-14 -0.17763568394E-14 -0.71054273576E-14  0.91188000000E+02  0.91188000000E+02 0.  0.
    9900012    2    3    3    0    0  0.11974165886E+02 -0.12592621495E+02 -0.32462679054E+02  0.54367078011E+02  0.39999985941E+02 0.  0.
        -12    1    3    3    0    0 -0.11974165886E+02  0.12592621495E+02  0.32462679054E+02  0.36820921989E+02  0.00000000000E+00 0.  1.
         11    1    4    4    0    0  0.17268153815E+02 -0.69121014855E+01 -0.38292718166E+01  0.18990250289E+02  0.51100000000E-03 0. -1.
        -11    1    4    4    0    0  0.72631279887E+01 -0.13511164960E+01 -0.11985778732E+02  0.14079681674E+02  0.51100000000E-03 0.  1.
        -12    1    4    4    0    0 -0.12557115917E+02 -0.43294035138E+01 -0.16647628505E+02  0.21297146048E+02  0.00000000000E+00 0.  1.
</event>
<event>
 8    1  0.1212194E-006  0.9118800E+02  0.7816164E-02  0.1184000E+00
        -11   -1    0    0    0    0  0.00000000000E+00  0.00000000000E+00  0.45593999997E+02  0.45594000000E+02  0.51100000000E-03 0. -1.
         11   -1    0    0    0    0 -0.00000000000E+00 -0.00000000000E+00 -0.45593999997E+02  0.45594000000E+02  0.51100000000E-03 0.  1.
         23    2    1    2    0    0  0.00000000000E+00 -0.17763568394E-14 -0.35527136788E-14  0.91188000000E+02  0.91188000000E+02 0.  0.
    9900012    2    3    3    0    0 -0.34768765673E+02 -0.11163507066E+02  0.47212131089E+01  0.54367071038E+02  0.39999970045E+02 0.  0.
        -12    1    3    3    0    0  0.34768765673E+02  0.11163507066E+02 -0.47212131089E+01  0.36820928962E+02  0.00000000000E+00 0.  1.
         11    1    4    4    0    0 -0.74235330920E+01  0.69978840594E+00  0.85106661295E+01  0.11315033611E+02  0.51100000000E-03 0. -1.
        -11    1    4    4    0    0 -0.17746387919E+02  0.22982091351E+01 -0.14358099224E+02  0.22942778014E+02  0.51100000000E-03 0.  1.
        -12    1    4    4    0    0 -0.95988446619E+01 -0.14161504607E+02  0.10568646204E+02  0.20109259413E+02  0.00000000000E+00 0.  1.
</event>
<event>
 8    1  0.1212194E-006  0.9118800E+02  0.7816164E-02  0.1184000E+00
        -11   -1    0    0    0    0  0.00000000000E+00  0.00000000000E+00  0.45593999997E+02  0.45594000000E+02  0.51100000000E-03 0. -1.
         11   -1    0    0    0    0 -0.00000000000E+00 -0.00000000000E+00 -0.45593999997E+02  0.45594000000E+02  0.51100000000E-03 0.  1.
         23    2    1    2    0    0  0.00000000000E+00  0.00000000000E+00  0.00000000000E+00  0.91188000000E+02  0.91188000000E+02 0.  0.
    9900012    2    3    3    0    0 -0.13538720175E+02 -0.21882187359E+02  0.26337276344E+02  0.54367092994E+02  0.40000020097E+02 0.  0.
        -12    1    3    3    0    0  0.13538720175E+02  0.21882187359E+02 -0.26337276344E+02  0.36820907006E+02  0.00000000000E+00 0.  1.
         11    1    4    4    0    0  0.12057074598E+02 -0.93038844339E+01  0.98155330187E+01  0.18118498893E+02  0.51100000000E-03 0. -1.
        -11    1    4    4    0    0 -0.24642502032E+02 -0.70574108923E+01  0.16785069601E+02  0.30639819136E+02  0.51100000000E-03 0.  1.
        -12    1    4    4    0    0 -0.95329274053E+00 -0.55208920325E+01 -0.26332627572E+00  0.56087749653E+01  0.00000000000E+00 0.  1.
</event>
<event>
 8    1  0.1212194E-006  0.9118800E+02  0.7816164E-02  0.1184000E+00
        -11   -1    0    0    0    0  0.00000000000E+00  0.00000000000E+00  0.45593999997E+02  0.45594000000E+02  0.51100000000E-03 0.  1.
         11   -1    0    0    0    0 -0.00000000000E+00 -0.00000000000E+00 -0.45593999997E+02  0.45594000000E+02  0.51100000000E-03 0. -1.
         23    2    1    2    0    0 -0.17763568394E-14 -0.35527136788E-14 -0.35527136788E-14  0.91188000000E+02  0.91188000000E+02 0.  0.
    9900012    2    3    3    0    0  0.12067696631E+02 -0.29364781664E+02  0.18651024890E+02  0.54367076144E+02  0.39999981685E+02 0.  0.
         12    1    3    3    0    0 -0.12067696631E+02  0.29364781664E+02 -0.18651024890E+02  0.36820923856E+02  0.00000000000E+00 0. -1.
         11    1    4    4    0    0  0.61524098021E+01 -0.24470225196E+01 -0.84859135445E+01  0.10763400695E+02  0.51100000000E-03 0. -1.
        -11    1    4    4    0    0 -0.47019823094E+01 -0.13802171444E+01  0.62551869533E-01  0.49007703478E+01  0.51100000000E-03 0.  1.
        -12    1    4    4    0    0  0.10617269139E+02 -0.25537542000E+02  0.27074386565E+02  0.38702905101E+02  0.00000000000E+00 0.  1.
</event>
<event>
 8    1  0.1212194E-006  0.9118800E+02  0.7816164E-02  0.1184000E+00
        -11   -1    0    0    0    0  0.00000000000E+00  0.00000000000E+00  0.45593999997E+02  0.45594000000E+02  0.51100000000E-03 0.  1.
         11   -1    0    0    0    0 -0.00000000000E+00 -0.00000000000E+00 -0.45593999997E+02  0.45594000000E+02  0.51100000000E-03 0. -1.
         23    2    1    2    0    0  0.88817841970E-15  0.00000000000E+00  0.00000000000E+00  0.91188000000E+02  0.91188000000E+02 0.  0.
    9900012    2    3    3    0    0  0.35549277265E+01 -0.32073666239E+02  0.17731953186E+02  0.54367085550E+02  0.40000003128E+02 0.  0.
        -12    1    3    3    0    0 -0.35549277265E+01  0.32073666239E+02 -0.17731953186E+02  0.36820914450E+02  0.00000000000E+00 0.  1.
         11    1    4    4    0    0  0.19495097595E+02 -0.14647111878E+02  0.34870751492E+01  0.24632425986E+02  0.51100000000E-03 0. -1.
        -11    1    4    4    0    0 -0.82173329266E+01 -0.14583708866E+01  0.50622387162E+01  0.97610279761E+01  0.51100000000E-03 0.  1.
         12    1    4    4    0    0 -0.77228369421E+01 -0.15968183474E+02  0.91826393201E+01  0.19973631587E+02  0.00000000000E+00 0. -1.
</event>
<event>
 8    1  0.1212194E-006  0.9118800E+02  0.7816164E-02  0.1184000E+00
        -11   -1    0    0    0    0  0.00000000000E+00  0.00000000000E+00  0.45593999997E+02  0.45594000000E+02  0.51100000000E-03 0. -1.
         11   -1    0    0    0    0 -0.00000000000E+00 -0.00000000000E+00 -0.45593999997E+02  0.45594000000E+02  0.51100000000E-03 0.  1.
         23    2    1    2    0    0  0.00000000000E+00  0.00000000000E+00  0.00000000000E+00  0.91188000000E+02  0.91188000000E+02 0.  0.
    9900012    2    3    3    0    0 -0.41879069416E+01 -0.29385240261E+02  0.21788746938E+02  0.54367076562E+02  0.39999982638E+02 0.  0.
         12    1    3    3    0    0  0.41879069416E+01  0.29385240261E+02 -0.21788746938E+02  0.36820923438E+02  0.00000000000E+00 0. -1.
         11    1    4    4    0    0 -0.13588404802E+02 -0.39056217827E+01  0.36576088738E+00  0.14143281368E+02  0.51100000000E-03 0. -1.
        -11    1    4    4    0    0  0.15209517440E+02 -0.13133370541E+02  0.10087616236E+02  0.22484991530E+02  0.51100000000E-03 0.  1.
        -12    1    4    4    0    0 -0.58090195796E+01 -0.12346247936E+02  0.11335369814E+02  0.17738803663E+02  0.00000000000E+00 0.  1.
</event>
<event>
 8    1  0.1212194E-006  0.9118800E+02  0.7816164E-02  0.1184000E+00
        -11   -1    0    0    0    0  0.00000000000E+00  0.00000000000E+00  0.45593999997E+02  0.45594000000E+02  0.51100000000E-03 0. -1.
         11   -1    0    0    0    0 -0.00000000000E+00 -0.00000000000E+00 -0.45593999997E+02  0.45594000000E+02  0.51100000000E-03 0.  1.
         23    2    1    2    0    0  0.00000000000E+00  0.77715611724E-15  0.17763568394E-14  0.91188000000E+02  0.91188000000E+02 0.  0.
    9900012    2    3    3    0    0 -0.34440824726E+02  0.79551806896E+00 -0.12999110277E+02  0.54367080337E+02  0.39999991245E+02 0.  0.
         12    1    3    3    0    0  0.34440824726E+02 -0.79551806896E+00  0.12999110277E+02  0.36820919663E+02  0.00000000000E+00 0. -1.
         11    1    4    4    0    0 -0.30483517219E+02  0.27671089359E+01 -0.89743456173E+01  0.31897344614E+02  0.51100000000E-03 0.  1.
        -11    1    4    4    0    0 -0.11717620666E+01  0.66572066035E+01 -0.96628783656E+01  0.11792482549E+02  0.51100000000E-03 0. -1.
         12    1    4    4    0    0 -0.27855454401E+01 -0.86287974705E+01  0.56381137056E+01  0.10677253174E+02  0.00000000000E+00 0. -1.
</event>
<event>
 8    1  0.1212194E-006  0.9118800E+02  0.7816164E-02  0.1184000E+00
        -11   -1    0    0    0    0  0.00000000000E+00  0.00000000000E+00  0.45593999997E+02  0.45594000000E+02  0.51100000000E-03 0. -1.
         11   -1    0    0    0    0 -0.00000000000E+00 -0.00000000000E+00 -0.45593999997E+02  0.45594000000E+02  0.51100000000E-03 0.  1.
         23    2    1    2    0    0  0.00000000000E+00 -0.73552275381E-15  0.00000000000E+00  0.91188000000E+02  0.91188000000E+02 0.  0.
    9900012    2    3    3    0    0  0.30975949374E+02  0.11581357963E+00  0.19906201273E+02  0.54367086085E+02  0.40000004349E+02 0.  0.
        -12    1    3    3    0    0 -0.30975949374E+02 -0.11581357963E+00 -0.19906201273E+02  0.36820913915E+02  0.00000000000E+00 0.  1.
         11    1    4    4    0    0  0.93997311334E-01  0.18666958920E+01  0.13840461690E+02  0.13966093552E+02  0.51100000000E-03 0. -1.
        -11    1    4    4    0    0  0.31356795113E+02 -0.86314928745E+01  0.24539428215E+01  0.32615534713E+02  0.51100000000E-03 0.  1.
        -12    1    4    4    0    0 -0.47484304994E+00  0.68806105622E+01  0.36117967607E+01  0.77854578202E+01  0.00000000000E+00 0.  1.
</event>
<event>
 8    1  0.1212194E-006  0.9118800E+02  0.7816164E-02  0.1184000E+00
        -11   -1    0    0    0    0  0.00000000000E+00  0.00000000000E+00  0.45593999997E+02  0.45594000000E+02  0.51100000000E-03 0. -1.
         11   -1    0    0    0    0 -0.00000000000E+00 -0.00000000000E+00 -0.45593999997E+02  0.45594000000E+02  0.51100000000E-03 0.  1.
         23    2    1    2    0    0  0.00000000000E+00  0.35527136788E-14  0.00000000000E+00  0.91188000000E+02  0.91188000000E+02 0.  0.
    9900012    2    3    3    0    0 -0.23575569454E+02 -0.16522409510E+02  0.22956094344E+02  0.54367085310E+02  0.40000002581E+02 0.  0.
         12    1    3    3    0    0  0.23575569454E+02  0.16522409510E+02 -0.22956094344E+02  0.36820914690E+02  0.00000000000E+00 0. -1.
         11    1    4    4    0    0 -0.33005901742E+01 -0.18429034860E+01  0.75906708674E+01  0.84798863928E+01  0.51100000000E-03 0. -1.
        -11    1    4    4    0    0  0.93852892072E+01 -0.64774129237E+01 -0.19114996237E+00  0.11405133505E+02  0.51100000000E-03 0.  1.
         12    1    4    4    0    0 -0.29660268487E+02 -0.82020931002E+01  0.15556573439E+02  0.34482065412E+02  0.00000000000E+00 0. -1.
</event>
<event>
 8    1  0.1212194E-006  0.9118800E+02  0.7816164E-02  0.1184000E+00
        -11   -1    0    0    0    0  0.00000000000E+00  0.00000000000E+00  0.45593999997E+02  0.45594000000E+02  0.51100000000E-03 0. -1.
         11   -1    0    0    0    0 -0.00000000000E+00 -0.00000000000E+00 -0.45593999997E+02  0.45594000000E+02  0.51100000000E-03 0.  1.
         23    2    1    2    0    0 -0.35527136788E-14 -0.22204460493E-15  0.00000000000E+00  0.91188000000E+02  0.91188000000E+02 0.  0.
    9900012    2    3    3    0    0 -0.22402712630E+02  0.15733546950E+00 -0.29221101642E+02  0.54367094677E+02  0.40000023935E+02 0.  0.
         12    1    3    3    0    0  0.22402712630E+02 -0.15733546950E+00  0.29221101642E+02  0.36820905323E+02  0.00000000000E+00 0. -1.
         11    1    4    4    0    0 -0.93254793109E+01 -0.93576352945E+01 -0.11745909571E+02  0.17677564724E+02  0.51100000000E-03 0. -1.
        -11    1    4    4    0    0 -0.21909593972E+02  0.73148818639E+01 -0.13527292181E+02  0.26767992803E+02  0.51100000000E-03 0.  1.
         12    1    4    4    0    0  0.88323606524E+01  0.22000889001E+01 -0.39478998907E+01  0.99215371495E+01  0.00000000000E+00 0. -1.
</event>
<event>
 8    1  0.1212194E-006  0.9118800E+02  0.7816164E-02  0.1184000E+00
        -11   -1    0    0    0    0  0.00000000000E+00  0.00000000000E+00  0.45593999997E+02  0.45594000000E+02  0.51100000000E-03 0.  1.
         11   -1    0    0    0    0 -0.00000000000E+00 -0.00000000000E+00 -0.45593999997E+02  0.45594000000E+02  0.51100000000E-03 0. -1.
         23    2    1    2    0    0  0.00000000000E+00 -0.17763568394E-14  0.00000000000E+00  0.91188000000E+02  0.91188000000E+02 0.  0.
    9900012    2    3    3    0    0  0.29380858067E+02  0.14666759160E+02  0.16656259605E+02  0.54367087070E+02  0.40000006593E+02 0.  0.
         12    1    3    3    0    0 -0.29380858067E+02 -0.14666759160E+02 -0.16656259605E+02  0.36820912930E+02  0.00000000000E+00 0. -1.
         11    1    4    4    0    0  0.26590625595E+02  0.21419424843E+02  0.55073042760E+01  0.34585886295E+02  0.51100000000E-03 0. -1.
        -11    1    4    4    0    0  0.84689486399E+01 -0.57427214811E+01  0.89961587011E+01  0.13624713307E+02  0.51100000000E-03 0.  1.
        -12    1    4    4    0    0 -0.56787161687E+01 -0.10099442016E+01  0.21527966276E+01  0.61564874672E+01  0.00000000000E+00 0.  1.
</event>
<event>
 8    1  0.1212194E-006  0.9118800E+02  0.7816164E-02  0.1184000E+00
        -11   -1    0    0    0    0  0.00000000000E+00  0.00000000000E+00  0.45593999997E+02  0.45594000000E+02  0.51100000000E-03 0. -1.
         11   -1    0    0    0    0 -0.00000000000E+00 -0.00000000000E+00 -0.45593999997E+02  0.45594000000E+02  0.51100000000E-03 0.  1.
         23    2    1    2    0    0  0.00000000000E+00 -0.35527136788E-14  0.00000000000E+00  0.91188000000E+02  0.91188000000E+02 0.  0.
    9900012    2    3    3    0    0 -0.23093151453E+02  0.28168477524E+02  0.53872854590E+01  0.54367087265E+02  0.40000007037E+02 0.  0.
         12    1    3    3    0    0  0.23093151453E+02 -0.28168477524E+02 -0.53872854590E+01  0.36820912735E+02  0.00000000000E+00 0. -1.
         11    1    4    4    0    0 -0.37008292793E+01  0.94152995789E+01  0.19624587667E+00  0.10118424592E+02  0.51100000000E-03 0. -1.
        -11    1    4    4    0    0 -0.15065612672E+02  0.22858987034E+02 -0.90295899617E+01  0.28827755177E+02  0.51100000000E-03 0.  1.
         12    1    4    4    0    0 -0.43267095016E+01 -0.41058090885E+01  0.14220629544E+02  0.15420907496E+02  0.00000000000E+00 0. -1.
</event>
<event>
 8    1  0.1212194E-006  0.9118800E+02  0.7816164E-02  0.1184000E+00
        -11   -1    0    0    0    0  0.00000000000E+00  0.00000000000E+00  0.45593999997E+02  0.45594000000E+02  0.51100000000E-03 0. -1.
         11   -1    0    0    0    0 -0.00000000000E+00 -0.00000000000E+00 -0.45593999997E+02  0.45594000000E+02  0.51100000000E-03 0.  1.
         23    2    1    2    0    0  0.00000000000E+00  0.71054273576E-14 -0.44408920985E-15  0.91188000000E+02  0.91188000000E+02 0.  0.
    9900012    2    3    3    0    0 -0.15786913228E+02  0.33059059436E+02 -0.36947976238E+01  0.54367087877E+02  0.40000008433E+02 0.  0.
         12    1    3    3    0    0  0.15786913228E+02 -0.33059059436E+02  0.36947976238E+01  0.36820912123E+02  0.00000000000E+00 0. -1.
         11    1    4    4    0    0  0.52526450696E+01  0.32041186321E+00 -0.82494330529E+01  0.97849930989E+01  0.51100000000E-03 0.  1.
        -11    1    4    4    0    0  0.29951814059E+01  0.10848870303E+02 -0.19673350621E+01  0.11425388659E+02  0.51100000000E-03 0. -1.
         12    1    4    4    0    0 -0.24034739704E+02  0.21889777270E+02  0.65219704912E+01  0.33156706119E+02  0.00000000000E+00 0. -1.
</event>
<event>
 8    1  0.1212194E-006  0.9118800E+02  0.7816164E-02  0.1184000E+00
        -11   -1    0    0    0    0  0.00000000000E+00  0.00000000000E+00  0.45593999997E+02  0.45594000000E+02  0.51100000000E-03 0. -1.
         11   -1    0    0    0    0 -0.00000000000E+00 -0.00000000000E+00 -0.45593999997E+02  0.45594000000E+02  0.51100000000E-03 0.  1.
         23    2    1    2    0    0  0.88817841970E-15  0.00000000000E+00  0.00000000000E+00  0.91188000000E+02  0.91188000000E+02 0.  0.
    9900012    2    3    3    0    0 -0.58234972290E+01 -0.26226930943E+02  0.25179646687E+02  0.54367087003E+02  0.40000006441E+02 0.  0.
        -12    1    3    3    0    0  0.58234972290E+01  0.26226930943E+02 -0.25179646687E+02  0.36820912997E+02  0.00000000000E+00 0.  1.
         11    1    4    4    0    0  0.15290554315E+02 -0.63176945924E+01  0.78218590286E+01  0.18300158337E+02  0.51100000000E-03 0. -1.
        -11    1    4    4    0    0 -0.18786783261E+02 -0.17684402303E+02  0.19376690217E+02  0.32266661342E+02  0.51100000000E-03 0.  1.
        -12    1    4    4    0    0 -0.23272682827E+01 -0.22248340476E+01 -0.20189025587E+01  0.38002673248E+01  0.00000000000E+00 0.  1.
</event>
<event>
 8    1  0.1212194E-006  0.9118800E+02  0.7816164E-02  0.1184000E+00
        -11   -1    0    0    0    0  0.00000000000E+00  0.00000000000E+00  0.45593999997E+02  0.45594000000E+02  0.51100000000E-03 0. -1.
         11   -1    0    0    0    0 -0.00000000000E+00 -0.00000000000E+00 -0.45593999997E+02  0.45594000000E+02  0.51100000000E-03 0.  1.
         23    2    1    2    0    0  0.22204460493E-15 -0.35527136788E-14  0.00000000000E+00  0.91188000000E+02  0.91188000000E+02 0.  0.
    9900012    2    3    3    0    0 -0.13929549057E+01 -0.26649946223E+02  0.25369670881E+02  0.54367079891E+02  0.39999990229E+02 0.  0.
        -12    1    3    3    0    0  0.13929549057E+01  0.26649946223E+02 -0.25369670881E+02  0.36820920109E+02  0.00000000000E+00 0.  1.
         11    1    4    4    0    0 -0.13021894111E+00 -0.35989025020E+01 -0.16756277624E+01  0.39720001071E+01  0.51100000000E-03 0.  1.
        -11    1    4    4    0    0  0.37975841737E+01 -0.30423929048E+02  0.27844798571E+02  0.41417024422E+02  0.51100000000E-03 0. -1.
         12    1    4    4    0    0 -0.50603201383E+01  0.73728853273E+01 -0.79949992782E+00  0.89780553621E+01  0.00000000000E+00 0. -1.
</event>
<event>
 8    1  0.1212194E-006  0.9118800E+02  0.7816164E-02  0.1184000E+00
        -11   -1    0    0    0    0  0.00000000000E+00  0.00000000000E+00  0.45593999997E+02  0.45594000000E+02  0.51100000000E-03 0. -1.
         11   -1    0    0    0    0 -0.00000000000E+00 -0.00000000000E+00 -0.45593999997E+02  0.45594000000E+02  0.51100000000E-03 0.  1.
         23    2    1    2    0    0  0.00000000000E+00 -0.35527136788E-14 -0.35527136788E-14  0.91188000000E+02  0.91188000000E+02 0.  0.
    9900012    2    3    3    0    0  0.15142153468E+02  0.21425870135E+02  0.25834599945E+02  0.54367091850E+02  0.40000017491E+02 0.  0.
        -12    1    3    3    0    0 -0.15142153468E+02 -0.21425870135E+02 -0.25834599945E+02  0.36820908150E+02  0.00000000000E+00 0.  1.
         11    1    4    4    0    0  0.57067006752E+01  0.65289013384E+01 -0.29397370041E+01  0.91561476177E+01  0.51100000000E-03 0. -1.
        -11    1    4    4    0    0 -0.33474048074E+01 -0.79709568947E+01  0.79435518081E+01  0.11740582965E+02  0.51100000000E-03 0.  1.
         12    1    4    4    0    0  0.12782857600E+02  0.22867925691E+02  0.20830785141E+02  0.33470361268E+02  0.00000000000E+00 0. -1.
</event>
<event>
 8    1  0.1212194E-006  0.9118800E+02  0.7816164E-02  0.1184000E+00
        -11   -1    0    0    0    0  0.00000000000E+00  0.00000000000E+00  0.45593999997E+02  0.45594000000E+02  0.51100000000E-03 0.  1.
         11   -1    0    0    0    0 -0.00000000000E+00 -0.00000000000E+00 -0.45593999997E+02  0.45594000000E+02  0.51100000000E-03 0. -1.
         23    2    1    2    0    0  0.00000000000E+00  0.35527136788E-14  0.71054273576E-14  0.91188000000E+02  0.91188000000E+02 0.  0.
    9900012    2    3    3    0    0  0.18521482621E+01 -0.18751625444E+02 -0.31634268452E+02  0.54367070483E+02  0.39999968780E+02 0.  0.
         12    1    3    3    0    0 -0.18521482621E+01  0.18751625444E+02  0.31634268452E+02  0.36820929517E+02  0.00000000000E+00 0. -1.
         11    1    4    4    0    0  0.87609257820E+01 -0.60270908844E+01 -0.16514425003E+02  0.19641941822E+02  0.51100000000E-03 0. -1.
        -11    1    4    4    0    0 -0.53272603090E+01 -0.21498631660E+02 -0.89801971206E+01  0.23900100548E+02  0.51100000000E-03 0.  1.
        -12    1    4    4    0    0 -0.15815172110E+01  0.87740970995E+01 -0.61396463288E+01  0.10825028113E+02  0.00000000000E+00 0.  1.
</event>
<event>
 8    1  0.1212194E-006  0.9118800E+02  0.7816164E-02  0.1184000E+00
        -11   -1    0    0    0    0  0.00000000000E+00  0.00000000000E+00  0.45593999997E+02  0.45594000000E+02  0.51100000000E-03 0. -1.
         11   -1    0    0    0    0 -0.00000000000E+00 -0.00000000000E+00 -0.45593999997E+02  0.45594000000E+02  0.51100000000E-03 0.  1.
         23    2    1    2    0    0  0.00000000000E+00 -0.35527136788E-14 -0.35527136788E-14  0.91188000000E+02  0.91188000000E+02 0.  0.
    9900012    2    3    3    0    0 -0.19585943631E+02 -0.19375497443E+02 -0.24428688511E+02  0.54367083235E+02  0.39999997851E+02 0.  0.
         12    1    3    3    0    0  0.19585943631E+02  0.19375497443E+02  0.24428688511E+02  0.36820916765E+02  0.00000000000E+00 0. -1.
         11    1    4    4    0    0 -0.13657672219E+02 -0.26863947674E+02 -0.18554757228E+02  0.35390432480E+02  0.51100000000E-03 0. -1.
        -11    1    4    4    0    0 -0.16084524509E+01 -0.45196208816E+01  0.28693749625E+00  0.48058740712E+01  0.51100000000E-03 0.  1.
        -12    1    4    4    0    0 -0.43198189614E+01  0.12008071113E+02 -0.61608687793E+01  0.14170776684E+02  0.00000000000E+00 0.  1.
</event>
<event>
 8    1  0.1212194E-006  0.9118800E+02  0.7816164E-02  0.1184000E+00
        -11   -1    0    0    0    0  0.00000000000E+00  0.00000000000E+00  0.45593999997E+02  0.45594000000E+02  0.51100000000E-03 0. -1.
         11   -1    0    0    0    0 -0.00000000000E+00 -0.00000000000E+00 -0.45593999997E+02  0.45594000000E+02  0.51100000000E-03 0.  1.
         23    2    1    2    0    0  0.00000000000E+00  0.00000000000E+00  0.00000000000E+00  0.91188000000E+02  0.91188000000E+02 0.  0.
    9900012    2    3    3    0    0  0.25698485978E+02 -0.16928343998E+02  0.20218773820E+02  0.54367084383E+02  0.40000000468E+02 0.  0.
         12    1    3    3    0    0 -0.25698485978E+02  0.16928343998E+02 -0.20218773820E+02  0.36820915617E+02  0.00000000000E+00 0. -1.
         11    1    4    4    0    0 -0.14474858575E+01  0.12393431149E+01  0.70784027388E+01  0.73304141941E+01  0.51100000000E-03 0. -1.
        -11    1    4    4    0    0 -0.54849833702E+01 -0.94249409916E+01  0.62174436776E+01  0.12552735216E+02  0.51100000000E-03 0.  1.
        -12    1    4    4    0    0  0.32630955206E+02 -0.87427461216E+01  0.69229274034E+01  0.34483934973E+02  0.00000000000E+00 0.  1.
</event>
<event>
 8    1  0.1212194E-006  0.9118800E+02  0.7816164E-02  0.1184000E+00
        -11   -1    0    0    0    0  0.00000000000E+00  0.00000000000E+00  0.45593999997E+02  0.45594000000E+02  0.51100000000E-03 0. -1.
         11   -1    0    0    0    0 -0.00000000000E+00 -0.00000000000E+00 -0.45593999997E+02  0.45594000000E+02  0.51100000000E-03 0.  1.
         23    2    1    2    0    0  0.35527136788E-14  0.71054273576E-14 -0.17763568394E-14  0.91188000000E+02  0.91188000000E+02 0.  0.
    9900012    2    3    3    0    0  0.20637729136E+02  0.29738175803E+02 -0.67456639313E+01  0.54367096346E+02  0.40000027741E+02 0.  0.
        -12    1    3    3    0    0 -0.20637729136E+02 -0.29738175803E+02  0.67456639313E+01  0.36820903654E+02  0.00000000000E+00 0.  1.
         11    1    4    4    0    0  0.83512588608E+01  0.20825375067E+02  0.58260841423E+01  0.23181523417E+02  0.51100000000E-03 0. -1.
        -11    1    4    4    0    0  0.17923921492E+02  0.84541827317E-01 -0.64268845439E+01  0.19041506090E+02  0.51100000000E-03 0.  1.
         12    1    4    4    0    0 -0.56374512171E+01  0.88282589084E+01 -0.61448635297E+01  0.12144066838E+02  0.00000000000E+00 0. -1.
</event>
<event>
 8    1  0.1212194E-006  0.9118800E+02  0.7816164E-02  0.1184000E+00
        -11   -1    0    0    0    0  0.00000000000E+00  0.00000000000E+00  0.45593999997E+02  0.45594000000E+02  0.51100000000E-03 0.  1.
         11   -1    0    0    0    0 -0.00000000000E+00 -0.00000000000E+00 -0.45593999997E+02  0.45594000000E+02  0.51100000000E-03 0. -1.
         23    2    1    2    0    0 -0.66613381478E-15 -0.35527136788E-14  0.00000000000E+00  0.91188000000E+02  0.91188000000E+02 0.  0.
    9900012    2    3    3    0    0  0.16426726816E+01  0.24394303547E+02  0.27531825093E+02  0.54367057426E+02  0.39999939015E+02 0.  0.
         12    1    3    3    0    0 -0.16426726816E+01 -0.24394303547E+02 -0.27531825093E+02  0.36820942574E+02  0.00000000000E+00 0. -1.
         11    1    4    4    0    0  0.87894803165E+01  0.11371518840E+02  0.18554627035E+02  0.23469993388E+02  0.51100000000E-03 0. -1.
        -11    1    4    4    0    0  0.54471528129E+01  0.87628694098E+01 -0.51210246844E+01  0.11518864881E+02  0.51100000000E-03 0.  1.
        -12    1    4    4    0    0 -0.12593960448E+02  0.42599152972E+01  0.14098222742E+02  0.19378199157E+02  0.00000000000E+00 0.  1.
</event>
<event>
 8    1  0.1212194E-006  0.9118800E+02  0.7816164E-02  0.1184000E+00
        -11   -1    0    0    0    0  0.00000000000E+00  0.00000000000E+00  0.45593999997E+02  0.45594000000E+02  0.51100000000E-03 0.  1.
         11   -1    0    0    0    0 -0.00000000000E+00 -0.00000000000E+00 -0.45593999997E+02  0.45594000000E+02  0.51100000000E-03 0. -1.
         23    2    1    2    0    0  0.00000000000E+00  0.35527136788E-14  0.17763568394E-14  0.91188000000E+02  0.91188000000E+02 0.  0.
    9900012    2    3    3    0    0 -0.24537876298E+02  0.23399029207E+02  0.14358189097E+02  0.54367088344E+02  0.40000009497E+02 0.  0.
         12    1    3    3    0    0  0.24537876298E+02 -0.23399029207E+02 -0.14358189097E+02  0.36820911656E+02  0.00000000000E+00 0. -1.
         11    1    4    4    0    0 -0.81963375288E+01  0.89736164360E+01 -0.56025271251E+01  0.13382602560E+02  0.51100000000E-03 0. -1.
        -11    1    4    4    0    0 -0.92939811182E+01 -0.80119359308E+01  0.72134174610E+01  0.14233853804E+02  0.51100000000E-03 0.  1.
        -12    1    4    4    0    0 -0.70475576512E+01  0.22437348702E+02  0.12747298761E+02  0.26750631980E+02  0.00000000000E+00 0.  1.
</event>
<event>
 8    1  0.1212194E-006  0.9118800E+02  0.7816164E-02  0.1184000E+00
        -11   -1    0    0    0    0  0.00000000000E+00  0.00000000000E+00  0.45593999997E+02  0.45594000000E+02  0.51100000000E-03 0. -1.
         11   -1    0    0    0    0 -0.00000000000E+00 -0.00000000000E+00 -0.45593999997E+02  0.45594000000E+02  0.51100000000E-03 0.  1.
         23    2    1    2    0    0  0.00000000000E+00  0.00000000000E+00 -0.88817841970E-15  0.91188000000E+02  0.91188000000E+02 0.  0.
    9900012    2    3    3    0    0  0.34575328889E+02 -0.12453374355E+02 -0.22886993182E+01  0.54367108577E+02  0.40000055624E+02 0.  0.
         12    1    3    3    0    0 -0.34575328889E+02  0.12453374355E+02  0.22886993182E+01  0.36820891423E+02  0.00000000000E+00 0. -1.
         11    1    4    4    0    0  0.16587319522E+02  0.80134752507E+01  0.87292209607E+01  0.20385147862E+02  0.51100000000E-03 0. -1.
        -11    1    4    4    0    0  0.15761732717E+02 -0.23166295332E+02 -0.74690546433E+01  0.28998210896E+02  0.51100000000E-03 0.  1.
        -12    1    4    4    0    0  0.22262766502E+01  0.26994457271E+01 -0.35488656356E+01  0.49837498188E+01  0.00000000000E+00 0.  1.
</event>
<event>
 8    1  0.1212194E-006  0.9118800E+02  0.7816164E-02  0.1184000E+00
        -11   -1    0    0    0    0  0.00000000000E+00  0.00000000000E+00  0.45593999997E+02  0.45594000000E+02  0.51100000000E-03 0.  1.
         11   -1    0    0    0    0 -0.00000000000E+00 -0.00000000000E+00 -0.45593999997E+02  0.45594000000E+02  0.51100000000E-03 0. -1.
         23    2    1    2    0    0  0.35527136788E-14  0.00000000000E+00  0.00000000000E+00  0.91188000000E+02  0.91188000000E+02 0.  0.
    9900012    2    3    3    0    0 -0.24698492710E+02  0.17199095077E+02 -0.21212196544E+02  0.54367059004E+02  0.39999942611E+02 0.  0.
        -12    1    3    3    0    0  0.24698492710E+02 -0.17199095077E+02  0.21212196544E+02  0.36820940996E+02  0.00000000000E+00 0.  1.
         11    1    4    4    0    0 -0.19016808261E+02  0.76978622840E+01 -0.95280461921E+01  0.22620339181E+02  0.51100000000E-03 0. -1.
        -11    1    4    4    0    0  0.43708406471E+01 -0.67872694947E+01 -0.95230018627E+01  0.12484343791E+02  0.51100000000E-03 0.  1.
         12    1    4    4    0    0 -0.10052525096E+02  0.16288502288E+02 -0.21611484893E+01  0.19262376031E+02  0.00000000000E+00 0. -1.
</event>
<event>
 8    1  0.1212194E-006  0.9118800E+02  0.7816164E-02  0.1184000E+00
        -11   -1    0    0    0    0  0.00000000000E+00  0.00000000000E+00  0.45593999997E+02  0.45594000000E+02  0.51100000000E-03 0.  1.
         11   -1    0    0    0    0 -0.00000000000E+00 -0.00000000000E+00 -0.45593999997E+02  0.45594000000E+02  0.51100000000E-03 0. -1.
         23    2    1    2    0    0 -0.17763568394E-14  0.00000000000E+00  0.00000000000E+00  0.91188000000E+02  0.91188000000E+02 0.  0.
    9900012    2    3    3    0    0  0.13473370947E+02  0.53639868049E+01  0.33844873532E+02  0.54367088231E+02  0.40000009240E+02 0.  0.
         12    1    3    3    0    0 -0.13473370947E+02 -0.53639868049E+01 -0.33844873532E+02  0.36820911769E+02  0.00000000000E+00 0. -1.
         11    1    4    4    0    0 -0.84616320986E+01  0.39313002565E+01  0.86987978315E+01  0.12756309163E+02  0.51100000000E-03 0. -1.
        -11    1    4    4    0    0  0.11233615376E+01  0.56407302782E+01  0.18482770014E+02  0.19356977214E+02  0.51100000000E-03 0.  1.
        -12    1    4    4    0    0  0.20811641508E+02 -0.42080437298E+01  0.66633056866E+01  0.22253801854E+02  0.00000000000E+00 0.  1.
</event>
<event>
 8    1  0.1212194E-006  0.9118800E+02  0.7816164E-02  0.1184000E+00
        -11   -1    0    0    0    0  0.00000000000E+00  0.00000000000E+00  0.45593999997E+02  0.45594000000E+02  0.51100000000E-03 0.  1.
         11   -1    0    0    0    0 -0.00000000000E+00 -0.00000000000E+00 -0.45593999997E+02  0.45594000000E+02  0.51100000000E-03 0. -1.
         23    2    1    2    0    0  0.00000000000E+00  0.88817841970E-15  0.17763568394E-14  0.91188000000E+02  0.91188000000E+02 0.  0.
    9900012    2    3    3    0    0 -0.32734699632E+02  0.71571668803E+01  0.15264143567E+02  0.54367086424E+02  0.40000005120E+02 0.  0.
         12    1    3    3    0    0  0.32734699632E+02 -0.71571668803E+01 -0.15264143567E+02  0.36820913576E+02  0.00000000000E+00 0. -1.
         11    1    4    4    0    0 -0.14239132491E+02  0.16138382988E+01  0.23854414095E+02  0.27827871644E+02  0.51100000000E-03 0. -1.
        -11    1    4    4    0    0 -0.79213448211E+01  0.63779285268E+00  0.44015788125E+01  0.90845131847E+01  0.51100000000E-03 0.  1.
         12    1    4    4    0    0 -0.10574222320E+02  0.49055357288E+01 -0.12991849341E+02  0.17454701595E+02  0.00000000000E+00 0. -1.
</event>
<event>
 8    1  0.1212194E-006  0.9118800E+02  0.7816164E-02  0.1184000E+00
        -11   -1    0    0    0    0  0.00000000000E+00  0.00000000000E+00  0.45593999997E+02  0.45594000000E+02  0.51100000000E-03 0.  1.
         11   -1    0    0    0    0 -0.00000000000E+00 -0.00000000000E+00 -0.45593999997E+02  0.45594000000E+02  0.51100000000E-03 0. -1.
         23    2    1    2    0    0  0.71054273576E-14  0.00000000000E+00 -0.17763568394E-14  0.91188000000E+02  0.91188000000E+02 0.  0.
    9900012    2    3    3    0    0 -0.34182164950E+02 -0.48985415153E+01  0.12781367512E+02  0.54367089296E+02  0.40000011668E+02 0.  0.
        -12    1    3    3    0    0  0.34182164950E+02  0.48985415153E+01 -0.12781367512E+02  0.36820910704E+02  0.00000000000E+00 0.  1.
         11    1    4    4    0    0 -0.27518852251E+02  0.44238302170E+01 -0.38854610978E+01  0.28141682806E+02  0.51100000000E-03 0. -1.
        -11    1    4    4    0    0  0.16461077224E+00 -0.33275311406E+01  0.16811135415E+02  0.17138081410E+02  0.51100000000E-03 0.  1.
        -12    1    4    4    0    0 -0.68279234713E+01 -0.59948405916E+01 -0.14430680582E+00  0.90873250796E+01  0.00000000000E+00 0.  1.
</event>
<event>
 8    1  0.1212194E-006  0.9118800E+02  0.7816164E-02  0.1184000E+00
        -11   -1    0    0    0    0  0.00000000000E+00  0.00000000000E+00  0.45593999997E+02  0.45594000000E+02  0.51100000000E-03 0. -1.
         11   -1    0    0    0    0 -0.00000000000E+00 -0.00000000000E+00 -0.45593999997E+02  0.45594000000E+02  0.51100000000E-03 0.  1.
         23    2    1    2    0    0  0.17763568394E-14  0.17763568394E-14 -0.71054273576E-14  0.91188000000E+02  0.91188000000E+02 0.  0.
    9900012    2    3    3    0    0  0.11015579449E+02  0.12699903103E+02 -0.32758938657E+02  0.54367101161E+02  0.40000038716E+02 0.  0.
         12    1    3    3    0    0 -0.11015579449E+02 -0.12699903103E+02  0.32758938657E+02  0.36820898839E+02  0.00000000000E+00 0. -1.
         11    1    4    4    0    0  0.15109493032E+02  0.52677600405E+01 -0.24772298211E+02  0.29490894094E+02  0.51100000000E-03 0. -1.
        -11    1    4    4    0    0  0.65070015568E+01  0.10479237908E+02 -0.58031230570E+01  0.13632011365E+02  0.51100000000E-03 0.  1.
         12    1    4    4    0    0 -0.10600915140E+02 -0.30470948447E+01 -0.21835173886E+01  0.11244195702E+02  0.00000000000E+00 0. -1.
</event>
<event>
 8    1  0.1212194E-006  0.9118800E+02  0.7816164E-02  0.1184000E+00
        -11   -1    0    0    0    0  0.00000000000E+00  0.00000000000E+00  0.45593999997E+02  0.45594000000E+02  0.51100000000E-03 0.  1.
         11   -1    0    0    0    0 -0.00000000000E+00 -0.00000000000E+00 -0.45593999997E+02  0.45594000000E+02  0.51100000000E-03 0. -1.
         23    2    1    2    0    0  0.35527136788E-14  0.00000000000E+00  0.00000000000E+00  0.91188000000E+02  0.91188000000E+02 0.  0.
    9900012    2    3    3    0    0  0.16431687968E+02  0.24522258079E+02 -0.22009943730E+02  0.54367093795E+02  0.40000021924E+02 0.  0.
        -12    1    3    3    0    0 -0.16431687968E+02 -0.24522258079E+02  0.22009943730E+02  0.36820906205E+02  0.00000000000E+00 0.  1.
         11    1    4    4    0    0  0.15597361102E+02  0.41309121148E+01 -0.87409518051E+00  0.16158779375E+02  0.51100000000E-03 0. -1.
        -11    1    4    4    0    0 -0.10726649354E+02  0.14068005876E+02 -0.16634935713E+02  0.24283551679E+02  0.51100000000E-03 0.  1.
        -12    1    4    4    0    0  0.11560976220E+02  0.63233400881E+01 -0.45009128360E+01  0.13924762741E+02  0.00000000000E+00 0.  1.
</event>
<event>
 8    1  0.1212194E-006  0.9118800E+02  0.7816164E-02  0.1184000E+00
        -11   -1    0    0    0    0  0.00000000000E+00  0.00000000000E+00  0.45593999997E+02  0.45594000000E+02  0.51100000000E-03 0.  1.
         11   -1    0    0    0    0 -0.00000000000E+00 -0.00000000000E+00 -0.45593999997E+02  0.45594000000E+02  0.51100000000E-03 0. -1.
         23    2    1    2    0    0  0.35527136788E-14  0.00000000000E+00  0.00000000000E+00  0.91188000000E+02  0.91188000000E+02 0.  0.
    9900012    2    3    3    0    0  0.16831099314E+02 -0.32565942199E+02 -0.34576994478E+01  0.54367052417E+02  0.39999927594E+02 0.  0.
        -12    1    3    3    0    0 -0.16831099314E+02  0.32565942199E+02  0.34576994478E+01  0.36820947583E+02  0.00000000000E+00 0.  1.
         11    1    4    4    0    0 -0.55207582174E+01 -0.19666730429E+02 -0.36999921089E+01  0.20759311138E+02  0.51100000000E-03 0. -1.
        -11    1    4    4    0    0  0.77469984536E+00 -0.58064048972E+00  0.76265126686E+01  0.76877174099E+01  0.51100000000E-03 0.  1.
         12    1    4    4    0    0  0.21577157686E+02 -0.12318571281E+02 -0.73842200075E+01  0.25920023868E+02  0.00000000000E+00 0. -1.
</event>
<event>
 8    1  0.1212194E-006  0.9118800E+02  0.7816164E-02  0.1184000E+00
        -11   -1    0    0    0    0  0.00000000000E+00  0.00000000000E+00  0.45593999997E+02  0.45594000000E+02  0.51100000000E-03 0. -1.
         11   -1    0    0    0    0 -0.00000000000E+00 -0.00000000000E+00 -0.45593999997E+02  0.45594000000E+02  0.51100000000E-03 0.  1.
         23    2    1    2    0    0  0.00000000000E+00  0.00000000000E+00 -0.17763568394E-14  0.91188000000E+02  0.91188000000E+02 0.  0.
    9900012    2    3    3    0    0 -0.27530018992E+02  0.22699360959E+02  0.90897182839E+01  0.54367001750E+02  0.39999812088E+02 0.  0.
        -12    1    3    3    0    0  0.27530018992E+02 -0.22699360959E+02 -0.90897182839E+01  0.36820998250E+02  0.00000000000E+00 0.  1.
         11    1    4    4    0    0 -0.11594579246E+02  0.91222434907E+01 -0.32991775042E+01  0.15117346549E+02  0.51100000000E-03 0. -1.
        -11    1    4    4    0    0 -0.13604191816E+01  0.36188381647E+01 -0.10010251261E+02  0.10730883495E+02  0.51100000000E-03 0.  1.
        -12    1    4    4    0    0 -0.14575020564E+02  0.99582793036E+01  0.22399147049E+02  0.28518771707E+02  0.00000000000E+00 0.  1.
</event>
<event>
 8    1  0.1212194E-006  0.9118800E+02  0.7816164E-02  0.1184000E+00
        -11   -1    0    0    0    0  0.00000000000E+00  0.00000000000E+00  0.45593999997E+02  0.45594000000E+02  0.51100000000E-03 0. -1.
         11   -1    0    0    0    0 -0.00000000000E+00 -0.00000000000E+00 -0.45593999997E+02  0.45594000000E+02  0.51100000000E-03 0.  1.
         23    2    1    2    0    0  0.00000000000E+00 -0.77715611724E-15 -0.16653345369E-15  0.91188000000E+02  0.91188000000E+02 0.  0.
    9900012    2    3    3    0    0 -0.36810149864E+02  0.86530656243E+00  0.20994465984E+00  0.54367082505E+02  0.39999996186E+02 0.  0.
         12    1    3    3    0    0  0.36810149864E+02 -0.86530656243E+00 -0.20994465984E+00  0.36820917495E+02  0.00000000000E+00 0. -1.
         11    1    4    4    0    0 -0.12871855178E+02 -0.56329771444E+01  0.64242529382E+00  0.14065127008E+02  0.51100000000E-03 0. -1.
        -11    1    4    4    0    0 -0.21783221949E+02 -0.84150161427E+01 -0.62106080272E+01  0.24163876085E+02  0.51100000000E-03 0.  1.
         12    1    4    4    0    0 -0.21550727368E+01  0.14913299850E+02  0.57781273932E+01  0.16138079411E+02  0.00000000000E+00 0. -1.
</event>
<event>
 8    1  0.1212194E-006  0.9118800E+02  0.7816164E-02  0.1184000E+00
        -11   -1    0    0    0    0  0.00000000000E+00  0.00000000000E+00  0.45593999997E+02  0.45594000000E+02  0.51100000000E-03 0. -1.
         11   -1    0    0    0    0 -0.00000000000E+00 -0.00000000000E+00 -0.45593999997E+02  0.45594000000E+02  0.51100000000E-03 0.  1.
         23    2    1    2    0    0 -0.35527136788E-14  0.35527136788E-14  0.35527136788E-14  0.91188000000E+02  0.91188000000E+02 0.  0.
    9900012    2    3    3    0    0 -0.22628059722E+02  0.17852556231E+02  0.22913699281E+02  0.54367075711E+02  0.39999980698E+02 0.  0.
        -12    1    3    3    0    0  0.22628059722E+02 -0.17852556231E+02 -0.22913699281E+02  0.36820924289E+02  0.00000000000E+00 0.  1.
         11    1    4    4    0    0 -0.45591587245E+00  0.26972323636E+01 -0.14184479558E+01  0.30813822500E+01  0.51100000000E-03 0. -1.
        -11    1    4    4    0    0  0.62543122462E+01 -0.67460114156E+01  0.39017244384E+01  0.99924244079E+01  0.51100000000E-03 0.  1.
         12    1    4    4    0    0 -0.28426456096E+02  0.21901335283E+02  0.20430422798E+02  0.41293269053E+02  0.00000000000E+00 0. -1.
</event>
<event>
 8    1  0.1212194E-006  0.9118800E+02  0.7816164E-02  0.1184000E+00
        -11   -1    0    0    0    0  0.00000000000E+00  0.00000000000E+00  0.45593999997E+02  0.45594000000E+02  0.51100000000E-03 0.  1.
         11   -1    0    0    0    0 -0.00000000000E+00 -0.00000000000E+00 -0.45593999997E+02  0.45594000000E+02  0.51100000000E-03 0. -1.
         23    2    1    2    0    0 -0.88817841970E-15  0.00000000000E+00  0.00000000000E+00  0.91188000000E+02  0.91188000000E+02 0.  0.
    9900012    2    3    3    0    0  0.20347904496E+01  0.20102559123E+02 -0.30781928863E+02  0.54367076600E+02  0.39999982726E+02 0.  0.
        -12    1    3    3    0    0 -0.20347904496E+01 -0.20102559123E+02  0.30781928863E+02  0.36820923400E+02  0.00000000000E+00 0.  1.
         11    1    4    4    0    0  0.54187312933E+01  0.24629516398E+01 -0.28850910086E+02  0.29458509682E+02  0.51100000000E-03 0. -1.
        -11    1    4    4    0    0 -0.59050648693E+01  0.73644355361E+00  0.35886921794E+01  0.69491619666E+01  0.51100000000E-03 0.  1.
        -12    1    4    4    0    0  0.25211240257E+01  0.16903163929E+02 -0.55197109564E+01  0.17959404952E+02  0.00000000000E+00 0.  1.
</event>
<event>
 8    1  0.1212194E-006  0.9118800E+02  0.7816164E-02  0.1184000E+00
        -11   -1    0    0    0    0  0.00000000000E+00  0.00000000000E+00  0.45593999997E+02  0.45594000000E+02  0.51100000000E-03 0.  1.
         11   -1    0    0    0    0 -0.00000000000E+00 -0.00000000000E+00 -0.45593999997E+02  0.45594000000E+02  0.51100000000E-03 0. -1.
         23    2    1    2    0    0  0.00000000000E+00  0.00000000000E+00 -0.53290705182E-14  0.91188000000E+02  0.91188000000E+02 0.  0.
    9900012    2    3    3    0    0 -0.96838608835E+01  0.32854926970E+02  0.13511174094E+02  0.54367147033E+02  0.40000143291E+02 0.  0.
        -12    1    3    3    0    0  0.96838608835E+01 -0.32854926970E+02 -0.13511174094E+02  0.36820852967E+02  0.00000000000E+00 0.  1.
         11    1    4    4    0    0  0.96839171277E-01  0.11820478810E+02 -0.19495180387E+01  0.11980555829E+02  0.51100000000E-03 0. -1.
        -11    1    4    4    0    0  0.41531113271E+01  0.53536002804E+00 -0.75063355662E+01  0.85953486229E+01  0.51100000000E-03 0.  1.
        -12    1    4    4    0    0 -0.13933811382E+02  0.20499088132E+02  0.22967027699E+02  0.33791242581E+02  0.00000000000E+00 0.  1.
</event>
<event>
 8    1  0.1212194E-006  0.9118800E+02  0.7816164E-02  0.1184000E+00
        -11   -1    0    0    0    0  0.00000000000E+00  0.00000000000E+00  0.45593999997E+02  0.45594000000E+02  0.51100000000E-03 0. -1.
         11   -1    0    0    0    0 -0.00000000000E+00 -0.00000000000E+00 -0.45593999997E+02  0.45594000000E+02  0.51100000000E-03 0.  1.
         23    2    1    2    0    0 -0.35527136788E-14 -0.17763568394E-14  0.35527136788E-14  0.91188000000E+02  0.91188000000E+02 0.  0.
    9900012    2    3    3    0    0 -0.25958081650E+02 -0.52617055827E+01  0.25578765269E+02  0.54367071423E+02  0.39999970923E+02 0.  0.
        -12    1    3    3    0    0  0.25958081650E+02  0.52617055827E+01 -0.25578765269E+02  0.36820928577E+02  0.00000000000E+00 0.  1.
         11    1    4    4    0    0 -0.25631518314E+02  0.10403178872E+02  0.15431177797E+02  0.31675260222E+02  0.51100000000E-03 0. -1.
        -11    1    4    4    0    0  0.33354521028E+01 -0.33278797421E+01  0.84989262731E+01  0.97176011631E+01  0.51100000000E-03 0.  1.
         12    1    4    4    0    0 -0.36620154395E+01 -0.12337004712E+02  0.16486611985E+01  0.12974210038E+02  0.00000000000E+00 0. -1.
</event>
<event>
 8    1  0.1212194E-006  0.9118800E+02  0.7816164E-02  0.1184000E+00
        -11   -1    0    0    0    0  0.00000000000E+00  0.00000000000E+00  0.45593999997E+02  0.45594000000E+02  0.51100000000E-03 0. -1.
         11   -1    0    0    0    0 -0.00000000000E+00 -0.00000000000E+00 -0.45593999997E+02  0.45594000000E+02  0.51100000000E-03 0.  1.
         23    2    1    2    0    0 -0.17763568394E-14  0.00000000000E+00  0.00000000000E+00  0.91188000000E+02  0.91188000000E+02 0.  0.
    9900012    2    3    3    0    0 -0.14729603359E+02 -0.19998048695E+02 -0.27182648679E+02  0.54367088062E+02  0.40000008856E+02 0.  0.
         12    1    3    3    0    0  0.14729603359E+02  0.19998048695E+02  0.27182648679E+02  0.36820911938E+02  0.00000000000E+00 0. -1.
         11    1    4    4    0    0 -0.16996108615E+01 -0.93392272897E+00 -0.80578144547E+01  0.82878985751E+01  0.51100000000E-03 0.  1.
        -11    1    4    4    0    0  0.95910797447E+01  0.27686299099E+01 -0.77800311976E+01  0.12656342597E+02  0.51100000000E-03 0. -1.
         12    1    4    4    0    0 -0.22621072242E+02 -0.21832755876E+02 -0.11344803027E+02  0.33422846890E+02  0.00000000000E+00 0. -1.
</event>
<event>
 8    1  0.1212194E-006  0.9118800E+02  0.7816164E-02  0.1184000E+00
        -11   -1    0    0    0    0  0.00000000000E+00  0.00000000000E+00  0.45593999997E+02  0.45594000000E+02  0.51100000000E-03 0.  1.
         11   -1    0    0    0    0 -0.00000000000E+00 -0.00000000000E+00 -0.45593999997E+02  0.45594000000E+02  0.51100000000E-03 0. -1.
         23    2    1    2    0    0  0.00000000000E+00  0.00000000000E+00 -0.35527136788E-14  0.91188000000E+02  0.91188000000E+02 0.  0.
    9900012    2    3    3    0    0  0.26682021181E+02 -0.91933545970E+00 -0.25357498329E+02  0.54367107106E+02  0.40000052269E+02 0.  0.
        -12    1    3    3    0    0 -0.26682021181E+02  0.91933545970E+00  0.25357498329E+02  0.36820892894E+02  0.00000000000E+00 0.  1.
         11    1    4    4    0    0  0.14501668693E+02 -0.10856713932E+02 -0.22203442517E+02  0.28655880586E+02  0.51100000000E-03 0. -1.
        -11    1    4    4    0    0  0.14249017386E+01  0.44810557738E+01 -0.10559262658E+02  0.11558902801E+02  0.51100000000E-03 0.  1.
        -12    1    4    4    0    0  0.10755450749E+02  0.54563226986E+01  0.74052068460E+01  0.14152323719E+02  0.00000000000E+00 0.  1.
</event>
<event>
 8    1  0.1212194E-006  0.9118800E+02  0.7816164E-02  0.1184000E+00
        -11   -1    0    0    0    0  0.00000000000E+00  0.00000000000E+00  0.45593999997E+02  0.45594000000E+02  0.51100000000E-03 0. -1.
         11   -1    0    0    0    0 -0.00000000000E+00 -0.00000000000E+00 -0.45593999997E+02  0.45594000000E+02  0.51100000000E-03 0.  1.
         23    2    1    2    0    0  0.13322676296E-14  0.71054273576E-14  0.00000000000E+00  0.91188000000E+02  0.91188000000E+02 0.  0.
    9900012    2    3    3    0    0  0.16099283247E+01  0.36069838864E+02  0.72217545827E+01  0.54367097185E+02  0.40000029652E+02 0.  0.
         12    1    3    3    0    0 -0.16099283247E+01 -0.36069838864E+02 -0.72217545827E+01  0.36820902815E+02  0.00000000000E+00 0. -1.
         11    1    4    4    0    0  0.55442306175E+01  0.39942677410E+01 -0.35820576243E+01  0.77151672057E+01  0.51100000000E-03 0. -1.
        -11    1    4    4    0    0 -0.17772501015E+02  0.19808324095E+02  0.89003327243E+01  0.28061493522E+02  0.51100000000E-03 0.  1.
        -12    1    4    4    0    0  0.13838198723E+02  0.12267247028E+02  0.19034794828E+01  0.18590436457E+02  0.00000000000E+00 0.  1.
</event>
<event>
 8    1  0.1212194E-006  0.9118800E+02  0.7816164E-02  0.1184000E+00
        -11   -1    0    0    0    0  0.00000000000E+00  0.00000000000E+00  0.45593999997E+02  0.45594000000E+02  0.51100000000E-03 0. -1.
         11   -1    0    0    0    0 -0.00000000000E+00 -0.00000000000E+00 -0.45593999997E+02  0.45594000000E+02  0.51100000000E-03 0.  1.
         23    2    1    2    0    0 -0.44408920985E-15  0.71054273576E-14 -0.15543122345E-14  0.91188000000E+02  0.91188000000E+02 0.  0.
    9900012    2    3    3    0    0 -0.13613534104E+01 -0.36776731821E+02  0.11832159177E+01  0.54367064564E+02  0.39999955286E+02 0.  0.
        -12    1    3    3    0    0  0.13613534104E+01  0.36776731821E+02 -0.11832159177E+01  0.36820935436E+02  0.00000000000E+00 0.  1.
         11    1    4    4    0    0 -0.36944995710E+01 -0.27771492662E+02 -0.61577540232E+01  0.28684892655E+02  0.51100000000E-03 0.  1.
        -11    1    4    4    0    0  0.53140297453E+01 -0.15519245814E+02  0.15618337143E+01  0.16478022563E+02  0.51100000000E-03 0. -1.
         12    1    4    4    0    0 -0.29808835847E+01  0.65140066555E+01  0.57791362266E+01  0.92041493457E+01  0.00000000000E+00 0. -1.
</event>
<event>
 8    1  0.1212194E-006  0.9118800E+02  0.7816164E-02  0.1184000E+00
        -11   -1    0    0    0    0  0.00000000000E+00  0.00000000000E+00  0.45593999997E+02  0.45594000000E+02  0.51100000000E-03 0. -1.
         11   -1    0    0    0    0 -0.00000000000E+00 -0.00000000000E+00 -0.45593999997E+02  0.45594000000E+02  0.51100000000E-03 0.  1.
         23    2    1    2    0    0  0.88817841970E-15  0.17763568394E-14  0.00000000000E+00  0.91188000000E+02  0.91188000000E+02 0.  0.
    9900012    2    3    3    0    0  0.10958770563E+01  0.14328200525E+02  0.33901054154E+02  0.54367085433E+02  0.40000002862E+02 0.  0.
        -12    1    3    3    0    0 -0.10958770563E+01 -0.14328200525E+02 -0.33901054154E+02  0.36820914567E+02  0.00000000000E+00 0.  1.
         11    1    4    4    0    0  0.90913695714E+01  0.62708484877E+00  0.27934443001E+02  0.29383317412E+02  0.51100000000E-03 0. -1.
        -11    1    4    4    0    0 -0.93366568361E+01  0.27490936766E+01  0.92954933064E+01  0.13458709930E+02  0.51100000000E-03 0.  1.
        -12    1    4    4    0    0  0.13411643210E+01  0.10952021999E+02 -0.33288821536E+01  0.11525058091E+02  0.00000000000E+00 0.  1.
</event>
<event>
 8    1  0.1212194E-006  0.9118800E+02  0.7816164E-02  0.1184000E+00
        -11   -1    0    0    0    0  0.00000000000E+00  0.00000000000E+00  0.45593999997E+02  0.45594000000E+02  0.51100000000E-03 0.  1.
         11   -1    0    0    0    0 -0.00000000000E+00 -0.00000000000E+00 -0.45593999997E+02  0.45594000000E+02  0.51100000000E-03 0. -1.
         23    2    1    2    0    0  0.17763568394E-14  0.00000000000E+00  0.00000000000E+00  0.91188000000E+02  0.91188000000E+02 0.  0.
    9900012    2    3    3    0    0  0.90286886586E+01 -0.24462888266E+02 -0.25996683692E+02  0.54367113479E+02  0.40000066798E+02 0.  0.
        -12    1    3    3    0    0 -0.90286886586E+01  0.24462888266E+02  0.25996683692E+02  0.36820886521E+02  0.00000000000E+00 0.  1.
         11    1    4    4    0    0 -0.83149817544E+01 -0.84161215575E+00 -0.38375760684E+01  0.91964244649E+01  0.51100000000E-03 0. -1.
        -11    1    4    4    0    0  0.13839679960E+02 -0.19086314385E+01 -0.18002995343E+02  0.22787879606E+02  0.51100000000E-03 0.  1.
        -12    1    4    4    0    0  0.35039904533E+01 -0.21712644671E+02 -0.41561122813E+01  0.22382809408E+02  0.00000000000E+00 0.  1.
</event>
<event>
 8    1  0.1212194E-006  0.9118800E+02  0.7816164E-02  0.1184000E+00
        -11   -1    0    0    0    0  0.00000000000E+00  0.00000000000E+00  0.45593999997E+02  0.45594000000E+02  0.51100000000E-03 0.  1.
         11   -1    0    0    0    0 -0.00000000000E+00 -0.00000000000E+00 -0.45593999997E+02  0.45594000000E+02  0.51100000000E-03 0. -1.
         23    2    1    2    0    0  0.35527136788E-14  0.00000000000E+00  0.00000000000E+00  0.91188000000E+02  0.91188000000E+02 0.  0.
    9900012    2    3    3    0    0  0.16842576520E+02 -0.58977215818E+01  0.32207522082E+02  0.54367082272E+02  0.39999995655E+02 0.  0.
         12    1    3    3    0    0 -0.16842576520E+02  0.58977215818E+01 -0.32207522082E+02  0.36820917728E+02  0.00000000000E+00 0. -1.
         11    1    4    4    0    0  0.43370975086E+01  0.12123993912E+01  0.46820752782E+01  0.64963186694E+01  0.51100000000E-03 0. -1.
        -11    1    4    4    0    0  0.12684440618E+02  0.40705839412E+01  0.32877457639E+02  0.35473820043E+02  0.51100000000E-03 0.  1.
         12    1    4    4    0    0 -0.17896160637E+00 -0.11180704914E+02 -0.53520108349E+01  0.12396943559E+02  0.00000000000E+00 0. -1.
</event>
<event>
 8    1  0.1212194E-006  0.9118800E+02  0.7816164E-02  0.1184000E+00
        -11   -1    0    0    0    0  0.00000000000E+00  0.00000000000E+00  0.45593999997E+02  0.45594000000E+02  0.51100000000E-03 0. -1.
         11   -1    0    0    0    0 -0.00000000000E+00 -0.00000000000E+00 -0.45593999997E+02  0.45594000000E+02  0.51100000000E-03 0.  1.
         23    2    1    2    0    0  0.00000000000E+00  0.88817841970E-15  0.71054273576E-14  0.91188000000E+02  0.91188000000E+02 0.  0.
    9900012    2    3    3    0    0  0.53301056685E+01 -0.46297371581E+00  0.36430139540E+02  0.54367089663E+02  0.40000012505E+02 0.  0.
        -12    1    3    3    0    0 -0.53301056685E+01  0.46297371581E+00 -0.36430139540E+02  0.36820910337E+02  0.00000000000E+00 0.  1.
         11    1    4    4    0    0 -0.33781944672E+01  0.12048603714E+02  0.11649485285E+02  0.17096536403E+02  0.51100000000E-03 0. -1.
        -11    1    4    4    0    0  0.10345189007E+02 -0.59837857906E+00  0.73845910043E+00  0.10388759051E+02  0.51100000000E-03 0.  1.
         12    1    4    4    0    0 -0.16368888712E+01 -0.11913198851E+02  0.24042195155E+02  0.26881794210E+02  0.00000000000E+00 0. -1.
</event>
<event>
 8    1  0.1212194E-006  0.9118800E+02  0.7816164E-02  0.1184000E+00
        -11   -1    0    0    0    0  0.00000000000E+00  0.00000000000E+00  0.45593999997E+02  0.45594000000E+02  0.51100000000E-03 0.  1.
         11   -1    0    0    0    0 -0.00000000000E+00 -0.00000000000E+00 -0.45593999997E+02  0.45594000000E+02  0.51100000000E-03 0. -1.
         23    2    1    2    0    0  0.00000000000E+00  0.00000000000E+00 -0.35527136788E-14  0.91188000000E+02  0.91188000000E+02 0.  0.
    9900012    2    3    3    0    0  0.72633886654E+01  0.20905233464E+02 -0.29427790144E+02  0.54367076140E+02  0.39999981677E+02 0.  0.
        -12    1    3    3    0    0 -0.72633886654E+01 -0.20905233464E+02  0.29427790144E+02  0.36820923860E+02  0.00000000000E+00 0.  1.
         11    1    4    4    0    0 -0.74582790592E+01  0.12093641469E+02 -0.12891197257E+02  0.19185021696E+02  0.51100000000E-03 0. -1.
        -11    1    4    4    0    0  0.90838266004E+01  0.17203696393E+02 -0.15769138733E+02  0.25042939363E+02  0.51100000000E-03 0.  1.
        -12    1    4    4    0    0  0.56378411241E+01 -0.83921043976E+01 -0.76745415488E+00  0.10139115082E+02  0.00000000000E+00 0.  1.
</event>
<event>
 8    1  0.1212194E-006  0.9118800E+02  0.7816164E-02  0.1184000E+00
        -11   -1    0    0    0    0  0.00000000000E+00  0.00000000000E+00  0.45593999997E+02  0.45594000000E+02  0.51100000000E-03 0.  1.
         11   -1    0    0    0    0 -0.00000000000E+00 -0.00000000000E+00 -0.45593999997E+02  0.45594000000E+02  0.51100000000E-03 0. -1.
         23    2    1    2    0    0  0.00000000000E+00  0.17763568394E-14  0.00000000000E+00  0.91188000000E+02  0.91188000000E+02 0.  0.
    9900012    2    3    3    0    0  0.71224744122E+01  0.15060093358E+02  0.32836640068E+02  0.54367068661E+02  0.39999964627E+02 0.  0.
         12    1    3    3    0    0 -0.71224744122E+01 -0.15060093358E+02 -0.32836640068E+02  0.36820931339E+02  0.00000000000E+00 0. -1.
         11    1    4    4    0    0  0.17669608898E+01 -0.46107610939E-01  0.27039273465E+01  0.32304024601E+01  0.51100000000E-03 0. -1.
        -11    1    4    4    0    0 -0.18376210513E+01 -0.48765513769E+01  0.29429198126E+02  0.29887042461E+02  0.51100000000E-03 0.  1.
         12    1    4    4    0    0  0.71931345736E+01  0.19982752346E+02  0.70351459517E+00  0.21249623740E+02  0.00000000000E+00 0. -1.
</event>
<event>
 8    1  0.1212194E-006  0.9118800E+02  0.7816164E-02  0.1184000E+00
        -11   -1    0    0    0    0  0.00000000000E+00  0.00000000000E+00  0.45593999997E+02  0.45594000000E+02  0.51100000000E-03 0. -1.
         11   -1    0    0    0    0 -0.00000000000E+00 -0.00000000000E+00 -0.45593999997E+02  0.45594000000E+02  0.51100000000E-03 0.  1.
         23    2    1    2    0    0  0.88817841970E-15  0.00000000000E+00  0.00000000000E+00  0.91188000000E+02  0.91188000000E+02 0.  0.
    9900012    2    3    3    0    0  0.67176442500E+01 -0.35549368680E+02 -0.68480027225E+01  0.54367088834E+02  0.40000010615E+02 0.  0.
         12    1    3    3    0    0 -0.67176442500E+01  0.35549368680E+02  0.68480027225E+01  0.36820911166E+02  0.00000000000E+00 0. -1.
         11    1    4    4    0    0  0.47808763143E+01 -0.96687431412E+01 -0.58559667628E+01  0.12273292926E+02  0.51100000000E-03 0. -1.
        -11    1    4    4    0    0 -0.13696024760E+02 -0.19110821292E+02 -0.61344392236E+01  0.24298887413E+02  0.51100000000E-03 0.  1.
         12    1    4    4    0    0  0.15632792695E+02 -0.67698042467E+01  0.51424032640E+01  0.17794908494E+02  0.00000000000E+00 0. -1.
</event>
<event>
 8    1  0.1212194E-006  0.9118800E+02  0.7816164E-02  0.1184000E+00
        -11   -1    0    0    0    0  0.00000000000E+00  0.00000000000E+00  0.45593999997E+02  0.45594000000E+02  0.51100000000E-03 0.  1.
         11   -1    0    0    0    0 -0.00000000000E+00 -0.00000000000E+00 -0.45593999997E+02  0.45594000000E+02  0.51100000000E-03 0. -1.
         23    2    1    2    0    0  0.00000000000E+00  0.00000000000E+00 -0.33306690739E-15  0.91188000000E+02  0.91188000000E+02 0.  0.
    9900012    2    3    3    0    0 -0.32299217014E+02  0.17661252250E+02 -0.78735649462E+00  0.54367093153E+02  0.40000020462E+02 0.  0.
         12    1    3    3    0    0  0.32299217014E+02 -0.17661252250E+02  0.78735649462E+00  0.36820906847E+02  0.00000000000E+00 0. -1.
         11    1    4    4    0    0 -0.13554784574E+02  0.23257227138E+02 -0.39882538582E+00  0.26921921568E+02  0.51100000000E-03 0.  1.
        -11    1    4    4    0    0 -0.10473639048E+02 -0.15580007535E+01  0.92918858655E+01  0.14087711825E+02  0.51100000000E-03 0. -1.
        -12    1    4    4    0    0 -0.82707933921E+01 -0.40379741344E+01 -0.96804169743E+01  0.13357459760E+02  0.00000000000E+00 0.  1.
</event>
<event>
 8    1  0.1212194E-006  0.9118800E+02  0.7816164E-02  0.1184000E+00
        -11   -1    0    0    0    0  0.00000000000E+00  0.00000000000E+00  0.45593999997E+02  0.45594000000E+02  0.51100000000E-03 0.  1.
         11   -1    0    0    0    0 -0.00000000000E+00 -0.00000000000E+00 -0.45593999997E+02  0.45594000000E+02  0.51100000000E-03 0. -1.
         23    2    1    2    0    0  0.00000000000E+00  0.88817841970E-15  0.00000000000E+00  0.91188000000E+02  0.91188000000E+02 0.  0.
    9900012    2    3    3    0    0  0.16295269361E+02  0.55367109948E+01 -0.32551321864E+02  0.54367088451E+02  0.40000009741E+02 0.  0.
        -12    1    3    3    0    0 -0.16295269361E+02 -0.55367109948E+01  0.32551321864E+02  0.36820911549E+02  0.00000000000E+00 0.  1.
         11    1    4    4    0    0 -0.38229608607E+01  0.10958117413E+02  0.16353850722E+01  0.11720488538E+02  0.51100000000E-03 0. -1.
        -11    1    4    4    0    0  0.59934840191E+01  0.47549982553E+01 -0.70364051600E+01  0.10394366596E+02  0.51100000000E-03 0.  1.
         12    1    4    4    0    0  0.14124746203E+02 -0.10176404673E+02 -0.27150301776E+02  0.32252233317E+02  0.00000000000E+00 0. -1.
</event>
<event>
 8    1  0.1212194E-006  0.9118800E+02  0.7816164E-02  0.1184000E+00
        -11   -1    0    0    0    0  0.00000000000E+00  0.00000000000E+00  0.45593999997E+02  0.45594000000E+02  0.51100000000E-03 0.  1.
         11   -1    0    0    0    0 -0.00000000000E+00 -0.00000000000E+00 -0.45593999997E+02  0.45594000000E+02  0.51100000000E-03 0. -1.
         23    2    1    2    0    0  0.00000000000E+00  0.00000000000E+00  0.00000000000E+00  0.91188000000E+02  0.91188000000E+02 0.  0.
    9900012    2    3    3    0    0  0.14679843274E+02 -0.20323099836E+02 -0.26967642599E+02  0.54367082944E+02  0.39999997188E+02 0.  0.
        -12    1    3    3    0    0 -0.14679843274E+02  0.20323099836E+02  0.26967642599E+02  0.36820917056E+02  0.00000000000E+00 0.  1.
         11    1    4    4    0    0  0.14120677693E+02 -0.98378033010E+01 -0.24385826909E+02  0.29847017717E+02  0.51100000000E-03 0. -1.
        -11    1    4    4    0    0  0.12623635805E+01  0.47381484852E+01  0.54187334504E+01  0.73079604093E+01  0.51100000000E-03 0.  1.
         12    1    4    4    0    0 -0.70319799986E+00 -0.15223445020E+02 -0.80005491407E+01  0.17212104818E+02  0.00000000000E+00 0. -1.
</event>
<event>
 8    1  0.1212194E-006  0.9118800E+02  0.7816164E-02  0.1184000E+00
        -11   -1    0    0    0    0  0.00000000000E+00  0.00000000000E+00  0.45593999997E+02  0.45594000000E+02  0.51100000000E-03 0.  1.
         11   -1    0    0    0    0 -0.00000000000E+00 -0.00000000000E+00 -0.45593999997E+02  0.45594000000E+02  0.51100000000E-03 0. -1.
         23    2    1    2    0    0  0.00000000000E+00 -0.17763568394E-14 -0.17763568394E-14  0.91188000000E+02  0.91188000000E+02 0.  0.
    9900012    2    3    3    0    0  0.32141356729E+02  0.93091300708E+01  0.15364455512E+02  0.54366902674E+02  0.39999586225E+02 0.  0.
         12    1    3    3    0    0 -0.32141356729E+02 -0.93091300708E+01 -0.15364455512E+02  0.36821097326E+02  0.00000000000E+00 0. -1.
         11    1    4    4    0    0  0.10241280602E+02  0.16629184518E+02 -0.90113172839E+00  0.19550591929E+02  0.51100000000E-03 0. -1.
        -11    1    4    4    0    0  0.16593313393E+02 -0.59155843400E+01  0.21110088298E+02  0.27494872534E+02  0.51100000000E-03 0.  1.
        -12    1    4    4    0    0  0.53067627337E+01 -0.14044701071E+01 -0.48445010575E+01  0.73214382118E+01  0.00000000000E+00 0.  1.
</event>
<event>
 8    1  0.1212194E-006  0.9118800E+02  0.7816164E-02  0.1184000E+00
        -11   -1    0    0    0    0  0.00000000000E+00  0.00000000000E+00  0.45593999997E+02  0.45594000000E+02  0.51100000000E-03 0.  1.
         11   -1    0    0    0    0 -0.00000000000E+00 -0.00000000000E+00 -0.45593999997E+02  0.45594000000E+02  0.51100000000E-03 0. -1.
         23    2    1    2    0    0  0.13322676296E-14 -0.88817841970E-15  0.00000000000E+00  0.91188000000E+02  0.91188000000E+02 0.  0.
    9900012    2    3    3    0    0 -0.26221757899E+01 -0.54189370969E+01  0.36325458118E+02  0.54367087564E+02  0.40000007719E+02 0.  0.
         12    1    3    3    0    0  0.26221757899E+01  0.54189370969E+01 -0.36325458118E+02  0.36820912436E+02  0.00000000000E+00 0. -1.
         11    1    4    4    0    0  0.10889456528E+02 -0.54449228162E+00  0.13556460532E+01  0.10987015601E+02  0.51100000000E-03 0. -1.
        -11    1    4    4    0    0 -0.13510758945E+02  0.59511478880E+01  0.18458016803E+02  0.23635886973E+02  0.51100000000E-03 0.  1.
        -12    1    4    4    0    0 -0.87337368949E-03 -0.10825592703E+02  0.16511795262E+02  0.19744184990E+02  0.00000000000E+00 0.  1.
</event>
<event>
 8    1  0.1212194E-006  0.9118800E+02  0.7816164E-02  0.1184000E+00
        -11   -1    0    0    0    0  0.00000000000E+00  0.00000000000E+00  0.45593999997E+02  0.45594000000E+02  0.51100000000E-03 0. -1.
         11   -1    0    0    0    0 -0.00000000000E+00 -0.00000000000E+00 -0.45593999997E+02  0.45594000000E+02  0.51100000000E-03 0.  1.
         23    2    1    2    0    0 -0.17763568394E-14  0.00000000000E+00  0.00000000000E+00  0.91188000000E+02  0.91188000000E+02 0.  0.
    9900012    2    3    3    0    0 -0.85361484026E+01  0.18177607006E+02 -0.30862399083E+02  0.54367096927E+02  0.40000029063E+02 0.  0.
         12    1    3    3    0    0  0.85361484026E+01 -0.18177607006E+02  0.30862399083E+02  0.36820903073E+02  0.00000000000E+00 0. -1.
         11    1    4    4    0    0 -0.18121462552E+02  0.73437727581E+01 -0.35432661366E+01  0.19871415111E+02  0.51100000000E-03 0. -1.
        -11    1    4    4    0    0 -0.20166243333E+01  0.42052400437E+01 -0.16956825569E+02  0.17586493430E+02  0.51100000000E-03 0.  1.
        -12    1    4    4    0    0  0.11601938483E+02  0.66285942039E+01 -0.10362307377E+02  0.16909188385E+02  0.00000000000E+00 0.  1.
</event>
<event>
 8    1  0.1212194E-006  0.9118800E+02  0.7816164E-02  0.1184000E+00
        -11   -1    0    0    0    0  0.00000000000E+00  0.00000000000E+00  0.45593999997E+02  0.45594000000E+02  0.51100000000E-03 0. -1.
         11   -1    0    0    0    0 -0.00000000000E+00 -0.00000000000E+00 -0.45593999997E+02  0.45594000000E+02  0.51100000000E-03 0.  1.
         23    2    1    2    0    0  0.35527136788E-14 -0.35527136788E-14 -0.35527136788E-14  0.91188000000E+02  0.91188000000E+02 0.  0.
    9900012    2    3    3    0    0 -0.23992111510E+02  0.12676847797E+02  0.24888839354E+02  0.54367106350E+02  0.40000050547E+02 0.  0.
        -12    1    3    3    0    0  0.23992111510E+02 -0.12676847797E+02 -0.24888839354E+02  0.36820893650E+02  0.00000000000E+00 0.  1.
         11    1    4    4    0    0  0.17038600563E+01  0.42023880392E+01  0.11495912003E+02  0.12357960890E+02  0.51100000000E-03 0. -1.
        -11    1    4    4    0    0 -0.24460855728E+02  0.16344412411E+02  0.39946965746E+01  0.29688901647E+02  0.51100000000E-03 0.  1.
         12    1    4    4    0    0 -0.12351158388E+01 -0.78699526538E+01  0.93982307762E+01  0.12320243814E+02  0.00000000000E+00 0. -1.
</event>
<event>
 8    1  0.1212194E-006  0.9118800E+02  0.7816164E-02  0.1184000E+00
        -11   -1    0    0    0    0  0.00000000000E+00  0.00000000000E+00  0.45593999997E+02  0.45594000000E+02  0.51100000000E-03 0.  1.
         11   -1    0    0    0    0 -0.00000000000E+00 -0.00000000000E+00 -0.45593999997E+02  0.45594000000E+02  0.51100000000E-03 0. -1.
         23    2    1    2    0    0  0.44408920985E-15  0.00000000000E+00  0.00000000000E+00  0.91188000000E+02  0.91188000000E+02 0.  0.
    9900012    2    3    3    0    0 -0.39261275449E+01  0.32887023592E+02 -0.16087552812E+02  0.54367079945E+02  0.39999990351E+02 0.  0.
        -12    1    3    3    0    0  0.39261275449E+01 -0.32887023592E+02  0.16087552812E+02  0.36820920055E+02  0.00000000000E+00 0.  1.
         11    1    4    4    0    0  0.63243607778E+01  0.17874353251E+01 -0.22241525769E+01  0.69382504449E+01  0.51100000000E-03 0. -1.
        -11    1    4    4    0    0  0.12747089853E+01  0.31893904183E+02 -0.38688814134E+01  0.32152981987E+02  0.51100000000E-03 0.  1.
        -12    1    4    4    0    0 -0.11525197308E+02 -0.79431591619E+00 -0.99945188218E+01  0.15275847513E+02  0.00000000000E+00 0.  1.
</event>
<event>
 8    1  0.1212194E-006  0.9118800E+02  0.7816164E-02  0.1184000E+00
        -11   -1    0    0    0    0  0.00000000000E+00  0.00000000000E+00  0.45593999997E+02  0.45594000000E+02  0.51100000000E-03 0.  1.
         11   -1    0    0    0    0 -0.00000000000E+00 -0.00000000000E+00 -0.45593999997E+02  0.45594000000E+02  0.51100000000E-03 0. -1.
         23    2    1    2    0    0  0.35527136788E-14 -0.35527136788E-14  0.66613381478E-15  0.91188000000E+02  0.91188000000E+02 0.  0.
    9900012    2    3    3    0    0  0.19527253515E+02  0.31216241400E+02 -0.11068698835E+00  0.54367087347E+02  0.40000007225E+02 0.  0.
         12    1    3    3    0    0 -0.19527253515E+02 -0.31216241400E+02  0.11068698835E+00  0.36820912653E+02  0.00000000000E+00 0. -1.
         11    1    4    4    0    0  0.14433075151E+02  0.20325447952E+02 -0.73373221715E+01  0.25986030664E+02  0.51100000000E-03 0. -1.
        -11    1    4    4    0    0  0.12857966622E+02  0.16716507386E+01  0.95536549569E+01  0.16105714674E+02  0.51100000000E-03 0.  1.
         12    1    4    4    0    0 -0.77637882581E+01  0.92191427091E+01 -0.23270197738E+01  0.12275342009E+02  0.00000000000E+00 0. -1.
</event>
<event>
 8    1  0.1212194E-006  0.9118800E+02  0.7816164E-02  0.1184000E+00
        -11   -1    0    0    0    0  0.00000000000E+00  0.00000000000E+00  0.45593999997E+02  0.45594000000E+02  0.51100000000E-03 0. -1.
         11   -1    0    0    0    0 -0.00000000000E+00 -0.00000000000E+00 -0.45593999997E+02  0.45594000000E+02  0.51100000000E-03 0.  1.
         23    2    1    2    0    0  0.00000000000E+00  0.35527136788E-14  0.35527136788E-14  0.91188000000E+02  0.91188000000E+02 0.  0.
    9900012    2    3    3    0    0  0.46791875509E+01  0.21884442094E+02  0.29239625212E+02  0.54367091749E+02  0.40000017259E+02 0.  0.
        -12    1    3    3    0    0 -0.46791875509E+01 -0.21884442094E+02 -0.29239625212E+02  0.36820908251E+02  0.00000000000E+00 0.  1.
         11    1    4    4    0    0  0.67361535768E+00  0.28395760533E+02  0.23008745164E+02  0.36553732070E+02  0.51100000000E-03 0. -1.
        -11    1    4    4    0    0  0.61511089369E+01  0.15983628518E+01 -0.13608492403E+01  0.64994473515E+01  0.51100000000E-03 0.  1.
        -12    1    4    4    0    0 -0.21455367437E+01 -0.81096812915E+01  0.75917292885E+01  0.11313912328E+02  0.00000000000E+00 0.  1.
</event>
<event>
 8    1  0.1212194E-006  0.9118800E+02  0.7816164E-02  0.1184000E+00
        -11   -1    0    0    0    0  0.00000000000E+00  0.00000000000E+00  0.45593999997E+02  0.45594000000E+02  0.51100000000E-03 0. -1.
         11   -1    0    0    0    0 -0.00000000000E+00 -0.00000000000E+00 -0.45593999997E+02  0.45594000000E+02  0.51100000000E-03 0.  1.
         23    2    1    2    0    0 -0.35527136788E-14  0.00000000000E+00  0.00000000000E+00  0.91188000000E+02  0.91188000000E+02 0.  0.
    9900012    2    3    3    0    0  0.17454907025E+02 -0.32140581692E+02  0.42531852980E+01  0.54367077199E+02  0.39999984091E+02 0.  0.
        -12    1    3    3    0    0 -0.17454907025E+02  0.32140581692E+02 -0.42531852980E+01  0.36820922801E+02  0.00000000000E+00 0.  1.
         11    1    4    4    0    0  0.16911348189E+02 -0.61498128735E+01 -0.23188401923E+01  0.18143619155E+02  0.51100000000E-03 0. -1.
        -11    1    4    4    0    0 -0.10938995243E+02 -0.11760048822E+02  0.78821158938E+01  0.17891006580E+02  0.51100000000E-03 0.  1.
        -12    1    4    4    0    0  0.11482554079E+02 -0.14230719997E+02 -0.13100904035E+01  0.18332451464E+02  0.00000000000E+00 0.  1.
</event>
<event>
 8    1  0.1212194E-006  0.9118800E+02  0.7816164E-02  0.1184000E+00
        -11   -1    0    0    0    0  0.00000000000E+00  0.00000000000E+00  0.45593999997E+02  0.45594000000E+02  0.51100000000E-03 0. -1.
         11   -1    0    0    0    0 -0.00000000000E+00 -0.00000000000E+00 -0.45593999997E+02  0.45594000000E+02  0.51100000000E-03 0.  1.
         23    2    1    2    0    0  0.00000000000E+00 -0.35527136788E-14  0.00000000000E+00  0.91188000000E+02  0.91188000000E+02 0.  0.
    9900012    2    3    3    0    0  0.18215696735E+02 -0.24394889681E+02 -0.20708851474E+02  0.54367098606E+02  0.40000032892E+02 0.  0.
         12    1    3    3    0    0 -0.18215696735E+02  0.24394889681E+02  0.20708851474E+02  0.36820901394E+02  0.00000000000E+00 0. -1.
         11    1    4    4    0    0 -0.65773306904E+01 -0.14022465604E+02  0.15843981332E+01  0.15569236922E+02  0.51100000000E-03 0. -1.
        -11    1    4    4    0    0  0.67107142237E+01  0.29327529723E+01 -0.12096638322E+02  0.14140841006E+02  0.51100000000E-03 0.  1.
        -12    1    4    4    0    0  0.18082313202E+02 -0.13305177050E+02 -0.10196611285E+02  0.24657020679E+02  0.00000000000E+00 0.  1.
</event>
<event>
 8    1  0.1212194E-006  0.9118800E+02  0.7816164E-02  0.1184000E+00
        -11   -1    0    0    0    0  0.00000000000E+00  0.00000000000E+00  0.45593999997E+02  0.45594000000E+02  0.51100000000E-03 0. -1.
         11   -1    0    0    0    0 -0.00000000000E+00 -0.00000000000E+00 -0.45593999997E+02  0.45594000000E+02  0.51100000000E-03 0.  1.
         23    2    1    2    0    0  0.00000000000E+00  0.00000000000E+00  0.17763568394E-14  0.91188000000E+02  0.91188000000E+02 0.  0.
    9900012    2    3    3    0    0 -0.69226165088E+01 -0.35911802648E+02  0.42663534491E+01  0.54367055410E+02  0.39999934418E+02 0.  0.
        -12    1    3    3    0    0  0.69226165088E+01  0.35911802648E+02 -0.42663534491E+01  0.36820944590E+02  0.00000000000E+00 0.  1.
         11    1    4    4    0    0  0.66220838937E+01 -0.17210791861E+02  0.15064614332E+02  0.23811886881E+02  0.51100000000E-03 0. -1.
        -11    1    4    4    0    0 -0.95915669613E+01 -0.17630984305E+02 -0.14715751135E+02  0.24887810190E+02  0.51100000000E-03 0.  1.
         12    1    4    4    0    0 -0.39531334412E+01 -0.10700264818E+01  0.39174902519E+01  0.56673583396E+01  0.00000000000E+00 0. -1.
</event>
<event>
 8    1  0.1212194E-006  0.9118800E+02  0.7816164E-02  0.1184000E+00
        -11   -1    0    0    0    0  0.00000000000E+00  0.00000000000E+00  0.45593999997E+02  0.45594000000E+02  0.51100000000E-03 0.  1.
         11   -1    0    0    0    0 -0.00000000000E+00 -0.00000000000E+00 -0.45593999997E+02  0.45594000000E+02  0.51100000000E-03 0. -1.
         23    2    1    2    0    0  0.00000000000E+00  0.00000000000E+00  0.00000000000E+00  0.91188000000E+02  0.91188000000E+02 0.  0.
    9900012    2    3    3    0    0 -0.25267824889E+02 -0.24569632970E+02 -0.10660653961E+02  0.54367090427E+02  0.40000014246E+02 0.  0.
        -12    1    3    3    0    0  0.25267824889E+02  0.24569632970E+02  0.10660653961E+02  0.36820909573E+02  0.00000000000E+00 0.  1.
         11    1    4    4    0    0 -0.79074704252E+01 -0.16065691936E+02 -0.18786039209E+02  0.25952838290E+02  0.51100000000E-03 0. -1.
        -11    1    4    4    0    0  0.17990103119E+01 -0.26766742511E+01 -0.38956466525E+01  0.50573793857E+01  0.51100000000E-03 0.  1.
        -12    1    4    4    0    0 -0.19159364775E+02 -0.58272667831E+01  0.12021031900E+02  0.23356872751E+02  0.00000000000E+00 0.  1.
</event>
<event>
 8    1  0.1212194E-006  0.9118800E+02  0.7816164E-02  0.1184000E+00
        -11   -1    0    0    0    0  0.00000000000E+00  0.00000000000E+00  0.45593999997E+02  0.45594000000E+02  0.51100000000E-03 0. -1.
         11   -1    0    0    0    0 -0.00000000000E+00 -0.00000000000E+00 -0.45593999997E+02  0.45594000000E+02  0.51100000000E-03 0.  1.
         23    2    1    2    0    0  0.88817841970E-15  0.00000000000E+00  0.00000000000E+00  0.91188000000E+02  0.91188000000E+02 0.  0.
    9900012    2    3    3    0    0 -0.61336301153E+01 -0.15603828210E+02 -0.32782272357E+02  0.54367105740E+02  0.40000049156E+02 0.  0.
         12    1    3    3    0    0  0.61336301153E+01  0.15603828210E+02  0.32782272357E+02  0.36820894260E+02  0.00000000000E+00 0. -1.
         11    1    4    4    0    0 -0.39632518723E+01  0.60399200575E+01 -0.11880824016E+02  0.13904746645E+02  0.51100000000E-03 0. -1.
        -11    1    4    4    0    0 -0.52815654024E+01 -0.11434242515E+02 -0.25806579088E+02  0.28716134132E+02  0.51100000000E-03 0.  1.
         12    1    4    4    0    0  0.31111871595E+01 -0.10209505752E+02  0.49051307467E+01  0.11746224963E+02  0.00000000000E+00 0. -1.
</event>
<event>
 8    1  0.1212194E-006  0.9118800E+02  0.7816164E-02  0.1184000E+00
        -11   -1    0    0    0    0  0.00000000000E+00  0.00000000000E+00  0.45593999997E+02  0.45594000000E+02  0.51100000000E-03 0. -1.
         11   -1    0    0    0    0 -0.00000000000E+00 -0.00000000000E+00 -0.45593999997E+02  0.45594000000E+02  0.51100000000E-03 0.  1.
         23    2    1    2    0    0  0.35527136788E-14  0.17763568394E-14 -0.35527136788E-14  0.91188000000E+02  0.91188000000E+02 0.  0.
    9900012    2    3    3    0    0 -0.22786388653E+02 -0.11672384039E+02  0.26463480974E+02  0.54367083631E+02  0.39999998754E+02 0.  0.
        -12    1    3    3    0    0  0.22786388653E+02  0.11672384039E+02 -0.26463480974E+02  0.36820916369E+02  0.00000000000E+00 0.  1.
         11    1    4    4    0    0 -0.13080287415E+02 -0.13675634631E+02  0.14603418083E+01  0.18980239722E+02  0.51100000000E-03 0. -1.
        -11    1    4    4    0    0  0.69612828659E+01 -0.30844130202E+01  0.77336272213E+01  0.10852744034E+02  0.51100000000E-03 0.  1.
         12    1    4    4    0    0 -0.16667384103E+02  0.50876636122E+01  0.17269511944E+02  0.24534099875E+02  0.00000000000E+00 0. -1.
</event>
<event>
 8    1  0.1212194E-006  0.9118800E+02  0.7816164E-02  0.1184000E+00
        -11   -1    0    0    0    0  0.00000000000E+00  0.00000000000E+00  0.45593999997E+02  0.45594000000E+02  0.51100000000E-03 0.  1.
         11   -1    0    0    0    0 -0.00000000000E+00 -0.00000000000E+00 -0.45593999997E+02  0.45594000000E+02  0.51100000000E-03 0. -1.
         23    2    1    2    0    0 -0.17763568394E-14  0.35527136788E-14  0.00000000000E+00  0.91188000000E+02  0.91188000000E+02 0.  0.
    9900012    2    3    3    0    0 -0.13032520443E+02  0.28626286205E+02  0.19143356965E+02  0.54367096061E+02  0.40000027091E+02 0.  0.
         12    1    3    3    0    0  0.13032520443E+02 -0.28626286205E+02 -0.19143356965E+02  0.36820903939E+02  0.00000000000E+00 0. -1.
         11    1    4    4    0    0  0.44158461416E+01 -0.47847037214E+01  0.62335522452E+01  0.90138926499E+01  0.51100000000E-03 0. -1.
        -11    1    4    4    0    0 -0.21976749946E+02  0.27627528382E+02  0.13902114064E+02  0.37941094322E+02  0.51100000000E-03 0.  1.
        -12    1    4    4    0    0  0.45283833621E+01  0.57834615447E+01 -0.99230934438E+00  0.74121090891E+01  0.00000000000E+00 0.  1.
</event>
<event>
 8    1  0.1212194E-006  0.9118800E+02  0.7816164E-02  0.1184000E+00
        -11   -1    0    0    0    0  0.00000000000E+00  0.00000000000E+00  0.45593999997E+02  0.45594000000E+02  0.51100000000E-03 0.  1.
         11   -1    0    0    0    0 -0.00000000000E+00 -0.00000000000E+00 -0.45593999997E+02  0.45594000000E+02  0.51100000000E-03 0. -1.
         23    2    1    2    0    0  0.00000000000E+00  0.88817841970E-15 -0.17763568394E-14  0.91188000000E+02  0.91188000000E+02 0.  0.
    9900012    2    3    3    0    0  0.33603073926E+02  0.40882987897E+01  0.14487875185E+02  0.54367091651E+02  0.40000017038E+02 0.  0.
        -12    1    3    3    0    0 -0.33603073926E+02 -0.40882987897E+01 -0.14487875185E+02  0.36820908349E+02  0.00000000000E+00 0.  1.
         11    1    4    4    0    0  0.92244343244E+01 -0.59060868656E+01  0.54329559968E+01  0.12226571956E+02  0.51100000000E-03 0. -1.
        -11    1    4    4    0    0  0.19939941130E+02  0.11506815334E+02  0.19832839030E+02  0.30386667400E+02  0.51100000000E-03 0.  1.
        -12    1    4    4    0    0  0.44386984713E+01 -0.15124296786E+01 -0.10777919843E+02  0.11753852296E+02  0.00000000000E+00 0.  1.
</event>
<event>
 8    1  0.1212194E-006  0.9118800E+02  0.7816164E-02  0.1184000E+00
        -11   -1    0    0    0    0  0.00000000000E+00  0.00000000000E+00  0.45593999997E+02  0.45594000000E+02  0.51100000000E-03 0.  1.
         11   -1    0    0    0    0 -0.00000000000E+00 -0.00000000000E+00 -0.45593999997E+02  0.45594000000E+02  0.51100000000E-03 0. -1.
         23    2    1    2    0    0  0.35527136788E-14  0.00000000000E+00  0.00000000000E+00  0.91188000000E+02  0.91188000000E+02 0.  0.
    9900012    2    3    3    0    0 -0.27418220847E+02 -0.14594985806E+02 -0.19773909352E+02  0.54367082899E+02  0.39999997084E+02 0.  0.
        -12    1    3    3    0    0  0.27418220847E+02  0.14594985806E+02  0.19773909352E+02  0.36820917101E+02  0.00000000000E+00 0.  1.
         11    1    4    4    0    0 -0.21218508695E+02 -0.90998964371E+01 -0.45029250767E+01  0.23522533046E+02  0.51100000000E-03 0. -1.
        -11    1    4    4    0    0 -0.72142718365E+01 -0.13910603771E+02 -0.15926394105E+02  0.22342798501E+02  0.51100000000E-03 0.  1.
         12    1    4    4    0    0  0.10145596841E+01  0.84155144022E+01  0.65540982920E+00  0.85017513520E+01  0.00000000000E+00 0. -1.
</event>
<event>
 8    1  0.1212194E-006  0.9118800E+02  0.7816164E-02  0.1184000E+00
        -11   -1    0    0    0    0  0.00000000000E+00  0.00000000000E+00  0.45593999997E+02  0.45594000000E+02  0.51100000000E-03 0.  1.
         11   -1    0    0    0    0 -0.00000000000E+00 -0.00000000000E+00 -0.45593999997E+02  0.45594000000E+02  0.51100000000E-03 0. -1.
         23    2    1    2    0    0  0.35527136788E-14  0.35527136788E-14 -0.35527136788E-14  0.91188000000E+02  0.91188000000E+02 0.  0.
    9900012    2    3    3    0    0 -0.13306763637E+02 -0.31895939096E+02 -0.12702792599E+02  0.54367057194E+02  0.39999938485E+02 0.  0.
        -12    1    3    3    0    0  0.13306763637E+02  0.31895939096E+02  0.12702792599E+02  0.36820942806E+02  0.00000000000E+00 0.  1.
         11    1    4    4    0    0 -0.19803423068E+00  0.19399641015E+01  0.39019447706E+01  0.43620925627E+01  0.51100000000E-03 0. -1.
        -11    1    4    4    0    0 -0.90522092052E+01 -0.20295801056E+01  0.57527960748E+01  0.10915876045E+02  0.51100000000E-03 0.  1.
         12    1    4    4    0    0 -0.40565202012E+01 -0.31806323092E+02 -0.22357533445E+02  0.39089088586E+02  0.00000000000E+00 0. -1.
</event>
<event>
 8    1  0.1212194E-006  0.9118800E+02  0.7816164E-02  0.1184000E+00
        -11   -1    0    0    0    0  0.00000000000E+00  0.00000000000E+00  0.45593999997E+02  0.45594000000E+02  0.51100000000E-03 0. -1.
         11   -1    0    0    0    0 -0.00000000000E+00 -0.00000000000E+00 -0.45593999997E+02  0.45594000000E+02  0.51100000000E-03 0.  1.
         23    2    1    2    0    0  0.00000000000E+00  0.71054273576E-14 -0.35527136788E-14  0.91188000000E+02  0.91188000000E+02 0.  0.
    9900012    2    3    3    0    0 -0.25264982582E+02  0.20256986125E+02 -0.17524694414E+02  0.54367085480E+02  0.40000002969E+02 0.  0.
         12    1    3    3    0    0  0.25264982582E+02 -0.20256986125E+02  0.17524694414E+02  0.36820914520E+02  0.00000000000E+00 0. -1.
         11    1    4    4    0    0 -0.13044714818E+02  0.96707958626E+01 -0.50921373833E+00  0.16246481963E+02  0.51100000000E-03 0. -1.
        -11    1    4    4    0    0  0.11165579907E+01  0.17858156089E+02 -0.13792574192E+02  0.22591935370E+02  0.51100000000E-03 0.  1.
         12    1    4    4    0    0 -0.13336825755E+02 -0.72719658265E+01 -0.32229064841E+01  0.15528668147E+02  0.00000000000E+00 0. -1.
</event>
<event>
 8    1  0.1212194E-006  0.9118800E+02  0.7816164E-02  0.1184000E+00
        -11   -1    0    0    0    0  0.00000000000E+00  0.00000000000E+00  0.45593999997E+02  0.45594000000E+02  0.51100000000E-03 0. -1.
         11   -1    0    0    0    0 -0.00000000000E+00 -0.00000000000E+00 -0.45593999997E+02  0.45594000000E+02  0.51100000000E-03 0.  1.
         23    2    1    2    0    0  0.00000000000E+00 -0.17763568394E-14 -0.17763568394E-14  0.91188000000E+02  0.91188000000E+02 0.  0.
    9900012    2    3    3    0    0 -0.30977660060E+02  0.13980389250E+02  0.14167396949E+02  0.54367057010E+02  0.39999938065E+02 0.  0.
        -12    1    3    3    0    0  0.30977660060E+02 -0.13980389250E+02 -0.14167396949E+02  0.36820942990E+02  0.00000000000E+00 0.  1.
         11    1    4    4    0    0 -0.18611433594E+02  0.19313110664E+02 -0.44856023672E+01  0.27193792174E+02  0.51100000000E-03 0.  1.
        -11    1    4    4    0    0 -0.91627087258E+00 -0.78782801848E+01  0.88755672900E+01  0.11903047759E+02  0.51100000000E-03 0. -1.
        -12    1    4    4    0    0 -0.11449955593E+02  0.25455587707E+01  0.97774320258E+01  0.15270217077E+02  0.00000000000E+00 0.  1.
</event>
<event>
 8    1  0.1212194E-006  0.9118800E+02  0.7816164E-02  0.1184000E+00
        -11   -1    0    0    0    0  0.00000000000E+00  0.00000000000E+00  0.45593999997E+02  0.45594000000E+02  0.51100000000E-03 0.  1.
         11   -1    0    0    0    0 -0.00000000000E+00 -0.00000000000E+00 -0.45593999997E+02  0.45594000000E+02  0.51100000000E-03 0. -1.
         23    2    1    2    0    0  0.00000000000E+00  0.00000000000E+00 -0.35527136788E-14  0.91188000000E+02  0.91188000000E+02 0.  0.
    9900012    2    3    3    0    0  0.19057667734E+02  0.42659272152E+01 -0.31215166994E+02  0.54367089026E+02  0.40000011053E+02 0.  0.
        -12    1    3    3    0    0 -0.19057667734E+02 -0.42659272152E+01  0.31215166994E+02  0.36820910974E+02  0.00000000000E+00 0.  1.
         11    1    4    4    0    0 -0.36921551480E+01  0.13810037690E+02 -0.22499888589E+02  0.26656971648E+02  0.51100000000E-03 0.  1.
        -11    1    4    4    0    0  0.13830926822E+02 -0.28839062847E+01 -0.86743558680E+01  0.16578778671E+02  0.51100000000E-03 0. -1.
        -12    1    4    4    0    0  0.89188960594E+01 -0.66602041903E+01 -0.40922536930E-01  0.11131338708E+02  0.00000000000E+00 0.  1.
</event>
<event>
 8    1  0.1212194E-006  0.9118800E+02  0.7816164E-02  0.1184000E+00
        -11   -1    0    0    0    0  0.00000000000E+00  0.00000000000E+00  0.45593999997E+02  0.45594000000E+02  0.51100000000E-03 0.  1.
         11   -1    0    0    0    0 -0.00000000000E+00 -0.00000000000E+00 -0.45593999997E+02  0.45594000000E+02  0.51100000000E-03 0. -1.
         23    2    1    2    0    0  0.00000000000E+00  0.00000000000E+00  0.00000000000E+00  0.91188000000E+02  0.91188000000E+02 0.  0.
    9900012    2    3    3    0    0  0.45322413417E+01  0.23115994749E+02 -0.28300000734E+02  0.54367075699E+02  0.39999980671E+02 0.  0.
        -12    1    3    3    0    0 -0.45322413417E+01 -0.23115994749E+02  0.28300000734E+02  0.36820924301E+02  0.00000000000E+00 0.  1.
         11    1    4    4    0    0  0.38494610552E+01  0.33963554165E+01 -0.20093756002E+02  0.20739156469E+02  0.51100000000E-03 0. -1.
        -11    1    4    4    0    0 -0.10794381320E+02  0.77986819109E+01  0.29897344098E+01  0.13648319300E+02  0.51100000000E-03 0.  1.
        -12    1    4    4    0    0  0.11477161606E+02  0.11920957422E+02 -0.11195979142E+02  0.19979599929E+02  0.00000000000E+00 0.  1.
</event>
<event>
 8    1  0.1212194E-006  0.9118800E+02  0.7816164E-02  0.1184000E+00
        -11   -1    0    0    0    0  0.00000000000E+00  0.00000000000E+00  0.45593999997E+02  0.45594000000E+02  0.51100000000E-03 0.  1.
         11   -1    0    0    0    0 -0.00000000000E+00 -0.00000000000E+00 -0.45593999997E+02  0.45594000000E+02  0.51100000000E-03 0. -1.
         23    2    1    2    0    0  0.00000000000E+00  0.00000000000E+00  0.00000000000E+00  0.91188000000E+02  0.91188000000E+02 0.  0.
    9900012    2    3    3    0    0 -0.14977948407E+02  0.29497552966E+01  0.33507311045E+02  0.54367083549E+02  0.39999998567E+02 0.  0.
         12    1    3    3    0    0  0.14977948407E+02 -0.29497552966E+01 -0.33507311045E+02  0.36820916451E+02  0.00000000000E+00 0. -1.
         11    1    4    4    0    0 -0.15539020468E+02 -0.60205300061E+01  0.18336813927E+02  0.24777947532E+02  0.51100000000E-03 0. -1.
        -11    1    4    4    0    0 -0.10360484477E+02  0.47238569082E+00  0.11040579174E+02  0.15147843925E+02  0.51100000000E-03 0.  1.
         12    1    4    4    0    0  0.10921556539E+02  0.84978996119E+01  0.41299179449E+01  0.14441292092E+02  0.00000000000E+00 0. -1.
</event>
<event>
 8    1  0.1212194E-006  0.9118800E+02  0.7816164E-02  0.1184000E+00
        -11   -1    0    0    0    0  0.00000000000E+00  0.00000000000E+00  0.45593999997E+02  0.45594000000E+02  0.51100000000E-03 0.  1.
         11   -1    0    0    0    0 -0.00000000000E+00 -0.00000000000E+00 -0.45593999997E+02  0.45594000000E+02  0.51100000000E-03 0. -1.
         23    2    1    2    0    0 -0.35527136788E-14  0.00000000000E+00  0.00000000000E+00  0.91188000000E+02  0.91188000000E+02 0.  0.
    9900012    2    3    3    0    0 -0.25799591078E+02  0.14976338231E+02  0.21584037786E+02  0.54367078043E+02  0.39999986015E+02 0.  0.
         12    1    3    3    0    0  0.25799591078E+02 -0.14976338231E+02 -0.21584037786E+02  0.36820921957E+02  0.00000000000E+00 0. -1.
         11    1    4    4    0    0  0.31267705727E+01  0.47261309007E+01 -0.70154158011E+01  0.90182629496E+01  0.51100000000E-03 0. -1.
        -11    1    4    4    0    0 -0.71530737570E+01 -0.35593433901E+01  0.18598016302E+01  0.82033073761E+01  0.51100000000E-03 0.  1.
         12    1    4    4    0    0 -0.21773287894E+02  0.13809550720E+02  0.26739651957E+02  0.37145507717E+02  0.00000000000E+00 0. -1.
</event>
<event>
 8    1  0.1212194E-006  0.9118800E+02  0.7816164E-02  0.1184000E+00
        -11   -1    0    0    0    0  0.00000000000E+00  0.00000000000E+00  0.45593999997E+02  0.45594000000E+02  0.51100000000E-03 0. -1.
         11   -1    0    0    0    0 -0.00000000000E+00 -0.00000000000E+00 -0.45593999997E+02  0.45594000000E+02  0.51100000000E-03 0.  1.
         23    2    1    2    0    0  0.00000000000E+00  0.00000000000E+00 -0.17763568394E-14  0.91188000000E+02  0.91188000000E+02 0.  0.
    9900012    2    3    3    0    0 -0.23417516752E+02 -0.26775222320E+02 -0.95125037656E+01  0.54367077293E+02  0.39999984304E+02 0.  0.
         12    1    3    3    0    0  0.23417516752E+02  0.26775222320E+02  0.95125037656E+01  0.36820922707E+02  0.00000000000E+00 0. -1.
         11    1    4    4    0    0  0.54599265928E+01 -0.39059676036E+01 -0.70469212165E+01  0.97327529616E+01  0.51100000000E-03 0. -1.
        -11    1    4    4    0    0 -0.14941492422E+02 -0.65159489041E+01 -0.12863458117E+02  0.20764737920E+02  0.51100000000E-03 0.  1.
         12    1    4    4    0    0 -0.13935950923E+02 -0.16353305813E+02  0.10397875568E+02  0.23869586411E+02  0.00000000000E+00 0. -1.
</event>
<event>
 8    1  0.1212194E-006  0.9118800E+02  0.7816164E-02  0.1184000E+00
        -11   -1    0    0    0    0  0.00000000000E+00  0.00000000000E+00  0.45593999997E+02  0.45594000000E+02  0.51100000000E-03 0.  1.
         11   -1    0    0    0    0 -0.00000000000E+00 -0.00000000000E+00 -0.45593999997E+02  0.45594000000E+02  0.51100000000E-03 0. -1.
         23    2    1    2    0    0 -0.71054273576E-14 -0.13322676296E-14 -0.71054273576E-14  0.91188000000E+02  0.91188000000E+02 0.  0.
    9900012    2    3    3    0    0 -0.20884967225E+02 -0.30767178975E+01 -0.30168307620E+02  0.54367152187E+02  0.40000155041E+02 0.  0.
        -12    1    3    3    0    0  0.20884967225E+02  0.30767178975E+01  0.30168307620E+02  0.36820847813E+02  0.00000000000E+00 0.  1.
         11    1    4    4    0    0 -0.92531289486E+01 -0.30272505716E+01 -0.27765893276E+02  0.29423281106E+02  0.51100000000E-03 0. -1.
        -11    1    4    4    0    0  0.62656931338E+01  0.12573292242E+01 -0.28402829988E+01  0.69933536303E+01  0.51100000000E-03 0.  1.
        -12    1    4    4    0    0 -0.17897531410E+02 -0.13067965501E+01  0.43786865508E+00  0.17950517451E+02  0.00000000000E+00 0.  1.
</event>
<event>
 8    1  0.1212194E-006  0.9118800E+02  0.7816164E-02  0.1184000E+00
        -11   -1    0    0    0    0  0.00000000000E+00  0.00000000000E+00  0.45593999997E+02  0.45594000000E+02  0.51100000000E-03 0. -1.
         11   -1    0    0    0    0 -0.00000000000E+00 -0.00000000000E+00 -0.45593999997E+02  0.45594000000E+02  0.51100000000E-03 0.  1.
         23    2    1    2    0    0 -0.35527136788E-14  0.88817841970E-15  0.00000000000E+00  0.91188000000E+02  0.91188000000E+02 0.  0.
    9900012    2    3    3    0    0 -0.97564090795E+01  0.66268854374E+01  0.34880897756E+02  0.54367079900E+02  0.39999990249E+02 0.  0.
        -12    1    3    3    0    0  0.97564090795E+01 -0.66268854374E+01 -0.34880897756E+02  0.36820920100E+02  0.00000000000E+00 0.  1.
         11    1    4    4    0    0  0.13127617793E+02  0.22966743321E+01  0.23306886500E+02  0.26848091562E+02  0.51100000000E-03 0. -1.
        -11    1    4    4    0    0 -0.14484255078E+02  0.44145162381E+01  0.28495179476E+01  0.15407834097E+02  0.51100000000E-03 0.  1.
         12    1    4    4    0    0 -0.83997717951E+01 -0.84305132807E-01  0.87244933079E+01  0.12111154241E+02  0.00000000000E+00 0. -1.
</event>
<event>
 8    1  0.1212194E-006  0.9118800E+02  0.7816164E-02  0.1184000E+00
        -11   -1    0    0    0    0  0.00000000000E+00  0.00000000000E+00  0.45593999997E+02  0.45594000000E+02  0.51100000000E-03 0.  1.
         11   -1    0    0    0    0 -0.00000000000E+00 -0.00000000000E+00 -0.45593999997E+02  0.45594000000E+02  0.51100000000E-03 0. -1.
         23    2    1    2    0    0  0.00000000000E+00  0.19984014443E-14  0.00000000000E+00  0.91188000000E+02  0.91188000000E+02 0.  0.
    9900012    2    3    3    0    0 -0.33333521927E+02 -0.76646898140E+00 -0.15622990680E+02  0.54366959866E+02  0.39999716606E+02 0.  0.
        -12    1    3    3    0    0  0.33333521927E+02  0.76646898140E+00  0.15622990680E+02  0.36821040134E+02  0.00000000000E+00 0.  1.
         11    1    4    4    0    0 -0.15995320751E+02 -0.14301994868E+00 -0.11928079111E+02  0.19953691692E+02  0.51100000000E-03 0. -1.
        -11    1    4    4    0    0  0.14065387330E+01 -0.12061026319E+02  0.18749919821E-01  0.12142778055E+02  0.51100000000E-03 0.  1.
        -12    1    4    4    0    0 -0.18744739909E+02  0.11437577287E+02 -0.37136614892E+01  0.22270490118E+02  0.00000000000E+00 0.  1.
</event>
<event>
 8    1  0.1212194E-006  0.9118800E+02  0.7816164E-02  0.1184000E+00
        -11   -1    0    0    0    0  0.00000000000E+00  0.00000000000E+00  0.45593999997E+02  0.45594000000E+02  0.51100000000E-03 0. -1.
         11   -1    0    0    0    0 -0.00000000000E+00 -0.00000000000E+00 -0.45593999997E+02  0.45594000000E+02  0.51100000000E-03 0.  1.
         23    2    1    2    0    0 -0.17763568394E-14 -0.44408920985E-15 -0.71054273576E-14  0.91188000000E+02  0.91188000000E+02 0.  0.
    9900012    2    3    3    0    0 -0.12072068723E+02 -0.36888006851E+01 -0.34589556431E+02  0.54367088715E+02  0.40000010344E+02 0.  0.
         12    1    3    3    0    0  0.12072068723E+02  0.36888006851E+01  0.34589556431E+02  0.36820911285E+02  0.00000000000E+00 0. -1.
         11    1    4    4    0    0 -0.15346825051E+01  0.12391159414E+01  0.36032956765E+00  0.20051175442E+01  0.51100000000E-03 0. -1.
        -11    1    4    4    0    0 -0.11092991997E+02  0.14975996561E+02 -0.20839818119E+02  0.27957699547E+02  0.51100000000E-03 0.  1.
         12    1    4    4    0    0  0.55560577920E+00 -0.19903913187E+02 -0.14110067879E+02  0.24404271624E+02  0.00000000000E+00 0. -1.
</event>
<event>
 8    1  0.1212194E-006  0.9118800E+02  0.7816164E-02  0.1184000E+00
        -11   -1    0    0    0    0  0.00000000000E+00  0.00000000000E+00  0.45593999997E+02  0.45594000000E+02  0.51100000000E-03 0. -1.
         11   -1    0    0    0    0 -0.00000000000E+00 -0.00000000000E+00 -0.45593999997E+02  0.45594000000E+02  0.51100000000E-03 0.  1.
         23    2    1    2    0    0 -0.17763568394E-14  0.35527136788E-14  0.00000000000E+00  0.91188000000E+02  0.91188000000E+02 0.  0.
    9900012    2    3    3    0    0  0.15819795783E+02 -0.28747167272E+02  0.16706725417E+02  0.54367078788E+02  0.39999987712E+02 0.  0.
        -12    1    3    3    0    0 -0.15819795783E+02  0.28747167272E+02 -0.16706725417E+02  0.36820921212E+02  0.00000000000E+00 0.  1.
         11    1    4    4    0    0  0.85082416849E+01 -0.22235128918E+02  0.46724513268E+01  0.24261552634E+02  0.51100000000E-03 0.  1.
        -11    1    4    4    0    0  0.37983605493E+01 -0.16482654374E+02  0.60908539357E+01  0.17977873623E+02  0.51100000000E-03 0. -1.
        -12    1    4    4    0    0  0.35131935490E+01  0.99706160208E+01  0.59434201550E+01  0.12127652530E+02  0.00000000000E+00 0.  1.
</event>
<event>
 8    1  0.1212194E-006  0.9118800E+02  0.7816164E-02  0.1184000E+00
        -11   -1    0    0    0    0  0.00000000000E+00  0.00000000000E+00  0.45593999997E+02  0.45594000000E+02  0.51100000000E-03 0.  1.
         11   -1    0    0    0    0 -0.00000000000E+00 -0.00000000000E+00 -0.45593999997E+02  0.45594000000E+02  0.51100000000E-03 0. -1.
         23    2    1    2    0    0  0.13322676296E-14  0.00000000000E+00  0.00000000000E+00  0.91188000000E+02  0.91188000000E+02 0.  0.
    9900012    2    3    3    0    0  0.26635589381E+01  0.24083704373E+02  0.27724756403E+02  0.54367061933E+02  0.39999949289E+02 0.  0.
         12    1    3    3    0    0 -0.26635589381E+01 -0.24083704373E+02 -0.27724756403E+02  0.36820938067E+02  0.00000000000E+00 0. -1.
         11    1    4    4    0    0  0.17439808311E+02  0.10756454789E+02  0.26711151601E+02  0.33665024189E+02  0.51100000000E-03 0. -1.
        -11    1    4    4    0    0 -0.61882755508E+01  0.93071818007E+01  0.11546281970E+00  0.11177285864E+02  0.51100000000E-03 0.  1.
         12    1    4    4    0    0 -0.85879738223E+01  0.40200677832E+01  0.89814198269E+00  0.95247518799E+01  0.00000000000E+00 0. -1.
</event>
<event>
 8    1  0.1212194E-006  0.9118800E+02  0.7816164E-02  0.1184000E+00
        -11   -1    0    0    0    0  0.00000000000E+00  0.00000000000E+00  0.45593999997E+02  0.45594000000E+02  0.51100000000E-03 0.  1.
         11   -1    0    0    0    0 -0.00000000000E+00 -0.00000000000E+00 -0.45593999997E+02  0.45594000000E+02  0.51100000000E-03 0. -1.
         23    2    1    2    0    0  0.00000000000E+00  0.26645352591E-14  0.35527136788E-14  0.91188000000E+02  0.91188000000E+02 0.  0.
    9900012    2    3    3    0    0 -0.27966989787E+02  0.53958303481E+01  0.23334777849E+02  0.54367090721E+02  0.40000014917E+02 0.  0.
         12    1    3    3    0    0  0.27966989787E+02 -0.53958303481E+01 -0.23334777849E+02  0.36820909279E+02  0.00000000000E+00 0. -1.
         11    1    4    4    0    0  0.81106488733E+01  0.81931714082E+01  0.77511155597E+01  0.13892101193E+02  0.51100000000E-03 0.  1.
        -11    1    4    4    0    0 -0.10544870280E+02 -0.32909631098E+01  0.10621104707E+01  0.11097423410E+02  0.51100000000E-03 0. -1.
        -12    1    4    4    0    0 -0.25532768380E+02  0.49362204964E+00  0.14521551818E+02  0.29377566119E+02  0.00000000000E+00 0.  1.
</event>
<event>
 8    1  0.1212194E-006  0.9118800E+02  0.7816164E-02  0.1184000E+00
        -11   -1    0    0    0    0  0.00000000000E+00  0.00000000000E+00  0.45593999997E+02  0.45594000000E+02  0.51100000000E-03 0. -1.
         11   -1    0    0    0    0 -0.00000000000E+00 -0.00000000000E+00 -0.45593999997E+02  0.45594000000E+02  0.51100000000E-03 0.  1.
         23    2    1    2    0    0  0.00000000000E+00  0.00000000000E+00  0.35527136788E-14  0.91188000000E+02  0.91188000000E+02 0.  0.
    9900012    2    3    3    0    0 -0.32217607519E+02 -0.61561207900E+01 -0.16730460641E+02  0.54367076998E+02  0.39999983633E+02 0.  0.
        -12    1    3    3    0    0  0.32217607519E+02  0.61561207900E+01  0.16730460641E+02  0.36820923002E+02  0.00000000000E+00 0.  1.
         11    1    4    4    0    0 -0.12532426210E+01  0.83234543180E+01  0.32750484034E+01  0.90319682881E+01  0.51100000000E-03 0. -1.
        -11    1    4    4    0    0  0.28858390168E+01 -0.41059585633E+00 -0.48703356524E+01  0.56759867350E+01  0.51100000000E-03 0.  1.
        -12    1    4    4    0    0 -0.33850203915E+02 -0.14068979252E+02 -0.15135173392E+02  0.39659121975E+02  0.00000000000E+00 0.  1.
</event>
<event>
 8    1  0.1212194E-006  0.9118800E+02  0.7816164E-02  0.1184000E+00
        -11   -1    0    0    0    0  0.00000000000E+00  0.00000000000E+00  0.45593999997E+02  0.45594000000E+02  0.51100000000E-03 0.  1.
         11   -1    0    0    0    0 -0.00000000000E+00 -0.00000000000E+00 -0.45593999997E+02  0.45594000000E+02  0.51100000000E-03 0. -1.
         23    2    1    2    0    0  0.88817841970E-15 -0.71054273576E-14 -0.17763568394E-14  0.91188000000E+02  0.91188000000E+02 0.  0.
    9900012    2    3    3    0    0 -0.38431117684E+01 -0.35486378579E+02 -0.90403081836E+01  0.54367085498E+02  0.40000003010E+02 0.  0.
        -12    1    3    3    0    0  0.38431117684E+01  0.35486378579E+02  0.90403081836E+01  0.36820914502E+02  0.00000000000E+00 0.  1.
         11    1    4    4    0    0  0.12072337708E+02 -0.12078419478E+02  0.75825848963E+01  0.18684890923E+02  0.51100000000E-03 0.  1.
        -11    1    4    4    0    0 -0.27106939329E+00 -0.60204708024E+01 -0.94670137614E+01  0.11222472861E+02  0.51100000000E-03 0. -1.
        -12    1    4    4    0    0 -0.15644380083E+02 -0.17387488298E+02 -0.71558793186E+01  0.24459721714E+02  0.00000000000E+00 0.  1.
</event>
<event>
 8    1  0.1212194E-006  0.9118800E+02  0.7816164E-02  0.1184000E+00
        -11   -1    0    0    0    0  0.00000000000E+00  0.00000000000E+00  0.45593999997E+02  0.45594000000E+02  0.51100000000E-03 0.  1.
         11   -1    0    0    0    0 -0.00000000000E+00 -0.00000000000E+00 -0.45593999997E+02  0.45594000000E+02  0.51100000000E-03 0. -1.
         23    2    1    2    0    0  0.71054273576E-14  0.17763568394E-14  0.22204460493E-15  0.91188000000E+02  0.91188000000E+02 0.  0.
    9900012    2    3    3    0    0  0.36139986943E+02  0.67751523349E+01  0.19435631759E+01  0.54367098555E+02  0.40000032776E+02 0.  0.
        -12    1    3    3    0    0 -0.36139986943E+02 -0.67751523349E+01 -0.19435631759E+01  0.36820901445E+02  0.00000000000E+00 0.  1.
         11    1    4    4    0    0 -0.91552926069E+00 -0.80108480039E+01 -0.28138434977E+00  0.80679028863E+01  0.51100000000E-03 0. -1.
        -11    1    4    4    0    0  0.16046026262E+00  0.86923484528E+01  0.19187710796E+01  0.89030529504E+01  0.51100000000E-03 0.  1.
         12    1    4    4    0    0  0.36895055941E+02  0.60936518860E+01  0.30617644603E+00  0.37396142718E+02  0.00000000000E+00 0. -1.
</event>
<event>
 8    1  0.1212194E-006  0.9118800E+02  0.7816164E-02  0.1184000E+00
        -11   -1    0    0    0    0  0.00000000000E+00  0.00000000000E+00  0.45593999997E+02  0.45594000000E+02  0.51100000000E-03 0.  1.
         11   -1    0    0    0    0 -0.00000000000E+00 -0.00000000000E+00 -0.45593999997E+02  0.45594000000E+02  0.51100000000E-03 0. -1.
         23    2    1    2    0    0  0.10658141036E-13  0.00000000000E+00 -0.22204460493E-15  0.91188000000E+02  0.91188000000E+02 0.  0.
    9900012    2    3    3    0    0 -0.29565681123E+02  0.21881043385E+02  0.16943205289E+01  0.54367078204E+02  0.39999986382E+02 0.  0.
        -12    1    3    3    0    0  0.29565681123E+02 -0.21881043385E+02 -0.16943205289E+01  0.36820921796E+02  0.00000000000E+00 0.  1.
         11    1    4    4    0    0 -0.14501653643E+02  0.24429613259E+02 -0.14723741368E+01  0.28447703743E+02  0.51100000000E-03 0. -1.
        -11    1    4    4    0    0  0.40166336763E+01 -0.60549305983E+00 -0.37525713611E+01  0.55300777587E+01  0.51100000000E-03 0.  1.
         12    1    4    4    0    0 -0.19080661156E+02 -0.19430768151E+01  0.69192660268E+01  0.20389296702E+02  0.00000000000E+00 0. -1.
</event>
<event>
 8    1  0.1212194E-006  0.9118800E+02  0.7816164E-02  0.1184000E+00
        -11   -1    0    0    0    0  0.00000000000E+00  0.00000000000E+00  0.45593999997E+02  0.45594000000E+02  0.51100000000E-03 0. -1.
         11   -1    0    0    0    0 -0.00000000000E+00 -0.00000000000E+00 -0.45593999997E+02  0.45594000000E+02  0.51100000000E-03 0.  1.
         23    2    1    2    0    0  0.00000000000E+00  0.71054273576E-14 -0.17763568394E-14  0.91188000000E+02  0.91188000000E+02 0.  0.
    9900012    2    3    3    0    0 -0.69885660313E+01  0.34452750912E+02  0.10952069138E+02  0.54367083132E+02  0.39999997617E+02 0.  0.
        -12    1    3    3    0    0  0.69885660313E+01 -0.34452750912E+02 -0.10952069138E+02  0.36820916868E+02  0.00000000000E+00 0.  1.
         11    1    4    4    0    0 -0.53958085526E+01 -0.17417539301E+01 -0.37601594065E+01  0.68034737974E+01  0.51100000000E-03 0. -1.
        -11    1    4    4    0    0  0.80132857566E+01  0.17398630506E+02 -0.37519009779E+01  0.19519268770E+02  0.51100000000E-03 0.  1.
         12    1    4    4    0    0 -0.96060432352E+01  0.18795874336E+02  0.18464129523E+02  0.28044340565E+02  0.00000000000E+00 0. -1.
</event>
<event>
 8    1  0.1212194E-006  0.9118800E+02  0.7816164E-02  0.1184000E+00
        -11   -1    0    0    0    0  0.00000000000E+00  0.00000000000E+00  0.45593999997E+02  0.45594000000E+02  0.51100000000E-03 0. -1.
         11   -1    0    0    0    0 -0.00000000000E+00 -0.00000000000E+00 -0.45593999997E+02  0.45594000000E+02  0.51100000000E-03 0.  1.
         23    2    1    2    0    0  0.00000000000E+00  0.00000000000E+00  0.00000000000E+00  0.91188000000E+02  0.91188000000E+02 0.  0.
    9900012    2    3    3    0    0 -0.63138336133E+01 -0.17031782405E+02  0.32028642187E+02  0.54367081664E+02  0.39999994269E+02 0.  0.
        -12    1    3    3    0    0  0.63138336133E+01  0.17031782405E+02 -0.32028642187E+02  0.36820918336E+02  0.00000000000E+00 0.  1.
         11    1    4    4    0    0 -0.91485850574E+01 -0.34569422207E+01 -0.42284681839E+00  0.97890682786E+01  0.51100000000E-03 0. -1.
        -11    1    4    4    0    0  0.75060912178E+01 -0.50826661680E+01 -0.15725514569E+01  0.92004249408E+01  0.51100000000E-03 0.  1.
         12    1    4    4    0    0 -0.46713397738E+01 -0.84921740165E+01  0.34024040462E+02  0.35377588445E+02  0.00000000000E+00 0. -1.
</event>
<event>
 8    1  0.1212194E-006  0.9118800E+02  0.7816164E-02  0.1184000E+00
        -11   -1    0    0    0    0  0.00000000000E+00  0.00000000000E+00  0.45593999997E+02  0.45594000000E+02  0.51100000000E-03 0.  1.
         11   -1    0    0    0    0 -0.00000000000E+00 -0.00000000000E+00 -0.45593999997E+02  0.45594000000E+02  0.51100000000E-03 0. -1.
         23    2    1    2    0    0  0.00000000000E+00  0.00000000000E+00  0.44408920985E-15  0.91188000000E+02  0.91188000000E+02 0.  0.
    9900012    2    3    3    0    0 -0.25069611231E+02 -0.26804865050E+02  0.29660128184E+01  0.54367035460E+02  0.39999888938E+02 0.  0.
         12    1    3    3    0    0  0.25069611231E+02  0.26804865050E+02 -0.29660128184E+01  0.36820964540E+02  0.00000000000E+00 0. -1.
         11    1    4    4    0    0  0.66836083017E+01 -0.17847158738E+01 -0.35767455898E+01  0.77877429308E+01  0.51100000000E-03 0. -1.
        -11    1    4    4    0    0 -0.11493034556E+02 -0.13755350812E+02  0.13428515249E+02  0.22396976165E+02  0.51100000000E-03 0.  1.
        -12    1    4    4    0    0 -0.20260184976E+02 -0.11264798364E+02 -0.68857568412E+01  0.24182316364E+02  0.00000000000E+00 0.  1.
</event>
<event>
 8    1  0.1212194E-006  0.9118800E+02  0.7816164E-02  0.1184000E+00
        -11   -1    0    0    0    0  0.00000000000E+00  0.00000000000E+00  0.45593999997E+02  0.45594000000E+02  0.51100000000E-03 0.  1.
         11   -1    0    0    0    0 -0.00000000000E+00 -0.00000000000E+00 -0.45593999997E+02  0.45594000000E+02  0.51100000000E-03 0. -1.
         23    2    1    2    0    0  0.00000000000E+00 -0.17763568394E-14  0.16653345369E-14  0.91188000000E+02  0.91188000000E+02 0.  0.
    9900012    2    3    3    0    0  0.34568503658E+02 -0.12650147212E+02  0.87892143637E+00  0.54367079689E+02  0.39999989767E+02 0.  0.
         12    1    3    3    0    0 -0.34568503658E+02  0.12650147212E+02 -0.87892143637E+00  0.36820920311E+02  0.00000000000E+00 0. -1.
         11    1    4    4    0    0  0.22027033060E+02 -0.13356993798E+02 -0.17373238361E+02  0.31071351437E+02  0.51100000000E-03 0. -1.
        -11    1    4    4    0    0  0.11568215368E+02  0.25700367998E+01  0.17344192967E+02  0.21005945013E+02  0.51100000000E-03 0.  1.
        -12    1    4    4    0    0  0.97325523034E+00 -0.18631902137E+01  0.90796683077E+00  0.22897832390E+01  0.00000000000E+00 0.  1.
</event>
<event>
 8    1  0.1212194E-006  0.9118800E+02  0.7816164E-02  0.1184000E+00
        -11   -1    0    0    0    0  0.00000000000E+00  0.00000000000E+00  0.45593999997E+02  0.45594000000E+02  0.51100000000E-03 0. -1.
         11   -1    0    0    0    0 -0.00000000000E+00 -0.00000000000E+00 -0.45593999997E+02  0.45594000000E+02  0.51100000000E-03 0.  1.
         23    2    1    2    0    0  0.17763568394E-14  0.00000000000E+00  0.00000000000E+00  0.91188000000E+02  0.91188000000E+02 0.  0.
    9900012    2    3    3    0    0  0.83677721453E+01  0.94646155643E+01  0.34585851144E+02  0.54367086679E+02  0.40000005702E+02 0.  0.
        -12    1    3    3    0    0 -0.83677721453E+01 -0.94646155643E+01 -0.34585851144E+02  0.36820913321E+02  0.00000000000E+00 0.  1.
         11    1    4    4    0    0 -0.59538929001E+01  0.11788259062E+02  0.25092053381E+02  0.28355299954E+02  0.51100000000E-03 0. -1.
        -11    1    4    4    0    0  0.33681498099E+01 -0.22501119842E+01 -0.58767628429E+01  0.71374910757E+01  0.51100000000E-03 0.  1.
        -12    1    4    4    0    0  0.10953515236E+02 -0.73531513745E-01  0.15370560606E+02  0.18874295649E+02  0.00000000000E+00 0.  1.
</event>
<event>
 8    1  0.1212194E-006  0.9118800E+02  0.7816164E-02  0.1184000E+00
        -11   -1    0    0    0    0  0.00000000000E+00  0.00000000000E+00  0.45593999997E+02  0.45594000000E+02  0.51100000000E-03 0.  1.
         11   -1    0    0    0    0 -0.00000000000E+00 -0.00000000000E+00 -0.45593999997E+02  0.45594000000E+02  0.51100000000E-03 0. -1.
         23    2    1    2    0    0 -0.35527136788E-14  0.00000000000E+00  0.35527136788E-14  0.91188000000E+02  0.91188000000E+02 0.  0.
    9900012    2    3    3    0    0 -0.27645569368E+02  0.17064518005E+02  0.17329371363E+02  0.54367049547E+02  0.39999921053E+02 0.  0.
         12    1    3    3    0    0  0.27645569368E+02 -0.17064518005E+02 -0.17329371363E+02  0.36820950453E+02  0.00000000000E+00 0. -1.
         11    1    4    4    0    0 -0.57234724049E+01  0.21192363773E+02  0.29407531205E+01  0.22147741371E+02  0.51100000000E-03 0. -1.
        -11    1    4    4    0    0 -0.17219786450E+02  0.54276503209E+01  0.75966433252E+01  0.19587991818E+02  0.51100000000E-03 0.  1.
         12    1    4    4    0    0 -0.47023105132E+01 -0.95554960893E+01  0.67919749169E+01  0.12631316358E+02  0.00000000000E+00 0. -1.
</event>
<event>
 8    1  0.1212194E-006  0.9118800E+02  0.7816164E-02  0.1184000E+00
        -11   -1    0    0    0    0  0.00000000000E+00  0.00000000000E+00  0.45593999997E+02  0.45594000000E+02  0.51100000000E-03 0. -1.
         11   -1    0    0    0    0 -0.00000000000E+00 -0.00000000000E+00 -0.45593999997E+02  0.45594000000E+02  0.51100000000E-03 0.  1.
         23    2    1    2    0    0  0.00000000000E+00 -0.35527136788E-14  0.00000000000E+00  0.91188000000E+02  0.91188000000E+02 0.  0.
    9900012    2    3    3    0    0 -0.52386842219E+01 -0.23563756345E+02 -0.27804405259E+02  0.54367090488E+02  0.40000014386E+02 0.  0.
         12    1    3    3    0    0  0.52386842219E+01  0.23563756345E+02  0.27804405259E+02  0.36820909512E+02  0.00000000000E+00 0. -1.
         11    1    4    4    0    0  0.10239879208E+02 -0.16522398940E+02 -0.27432137661E+02  0.33620930533E+02  0.51100000000E-03 0.  1.
        -11    1    4    4    0    0 -0.66681895442E+01 -0.81567205860E+01  0.34384351618E+01  0.11082404032E+02  0.51100000000E-03 0. -1.
         12    1    4    4    0    0 -0.88103738854E+01  0.11153631812E+01 -0.38107027591E+01  0.96637559233E+01  0.00000000000E+00 0. -1.
</event>
<event>
 8    1  0.1212194E-006  0.9118800E+02  0.7816164E-02  0.1184000E+00
        -11   -1    0    0    0    0  0.00000000000E+00  0.00000000000E+00  0.45593999997E+02  0.45594000000E+02  0.51100000000E-03 0.  1.
         11   -1    0    0    0    0 -0.00000000000E+00 -0.00000000000E+00 -0.45593999997E+02  0.45594000000E+02  0.51100000000E-03 0. -1.
         23    2    1    2    0    0  0.00000000000E+00  0.00000000000E+00 -0.88817841970E-15  0.91188000000E+02  0.91188000000E+02 0.  0.
    9900012    2    3    3    0    0  0.18153304311E+02 -0.31737044707E+02  0.43585393612E+01  0.54367091137E+02  0.40000015866E+02 0.  0.
         12    1    3    3    0    0 -0.18153304311E+02  0.31737044707E+02 -0.43585393612E+01  0.36820908863E+02  0.00000000000E+00 0. -1.
         11    1    4    4    0    0 -0.62964443104E+00  0.53710118979E+00 -0.23967136831E+01  0.25355801185E+01  0.51100000000E-03 0. -1.
        -11    1    4    4    0    0  0.22167481738E+02 -0.37746372363E+02  0.95705098750E+01  0.44808264111E+02  0.51100000000E-03 0.  1.
        -12    1    4    4    0    0 -0.33845329959E+01  0.54722264663E+01 -0.28152568307E+01  0.70232469073E+01  0.00000000000E+00 0.  1.
</event>
<event>
 8    1  0.1212194E-006  0.9118800E+02  0.7816164E-02  0.1184000E+00
        -11   -1    0    0    0    0  0.00000000000E+00  0.00000000000E+00  0.45593999997E+02  0.45594000000E+02  0.51100000000E-03 0.  1.
         11   -1    0    0    0    0 -0.00000000000E+00 -0.00000000000E+00 -0.45593999997E+02  0.45594000000E+02  0.51100000000E-03 0. -1.
         23    2    1    2    0    0  0.00000000000E+00  0.00000000000E+00  0.00000000000E+00  0.91188000000E+02  0.91188000000E+02 0.  0.
    9900012    2    3    3    0    0  0.29284107598E+02  0.89346292275E+01 -0.20454650314E+02  0.54367091854E+02  0.40000017500E+02 0.  0.
        -12    1    3    3    0    0 -0.29284107598E+02 -0.89346292275E+01  0.20454650314E+02  0.36820908146E+02  0.00000000000E+00 0.  1.
         11    1    4    4    0    0  0.24760103018E+02 -0.63215041136E+01 -0.88376410196E+01  0.27039378964E+02  0.51100000000E-03 0. -1.
        -11    1    4    4    0    0 -0.62359298782E+01  0.43446847153E+01  0.74792319511E+00  0.76369166611E+01  0.51100000000E-03 0.  1.
         12    1    4    4    0    0  0.10759934458E+02  0.10911448626E+02 -0.12364932489E+02  0.19690796229E+02  0.00000000000E+00 0. -1.
</event>
<event>
 8    1  0.1212194E-006  0.9118800E+02  0.7816164E-02  0.1184000E+00
        -11   -1    0    0    0    0  0.00000000000E+00  0.00000000000E+00  0.45593999997E+02  0.45594000000E+02  0.51100000000E-03 0.  1.
         11   -1    0    0    0    0 -0.00000000000E+00 -0.00000000000E+00 -0.45593999997E+02  0.45594000000E+02  0.51100000000E-03 0. -1.
         23    2    1    2    0    0  0.00000000000E+00  0.00000000000E+00 -0.71054273576E-14  0.91188000000E+02  0.91188000000E+02 0.  0.
    9900012    2    3    3    0    0 -0.32601993774E+01 -0.42094708239E+01  0.36433936499E+02  0.54367078319E+02  0.39999986645E+02 0.  0.
         12    1    3    3    0    0  0.32601993774E+01  0.42094708239E+01 -0.36433936499E+02  0.36820921681E+02  0.00000000000E+00 0. -1.
         11    1    4    4    0    0  0.89893390740E+01 -0.47931510582E+01 -0.22972873608E+01  0.10443181677E+02  0.51100000000E-03 0. -1.
        -11    1    4    4    0    0  0.35693616816E+01 -0.86915468017E+00  0.27402384559E+01  0.45830862667E+01  0.51100000000E-03 0.  1.
         12    1    4    4    0    0 -0.15818900133E+02  0.14528349145E+01  0.35990985404E+02  0.39340810376E+02  0.00000000000E+00 0. -1.
</event>
<event>
 8    1  0.1212194E-006  0.9118800E+02  0.7816164E-02  0.1184000E+00
        -11   -1    0    0    0    0  0.00000000000E+00  0.00000000000E+00  0.45593999997E+02  0.45594000000E+02  0.51100000000E-03 0.  1.
         11   -1    0    0    0    0 -0.00000000000E+00 -0.00000000000E+00 -0.45593999997E+02  0.45594000000E+02  0.51100000000E-03 0. -1.
         23    2    1    2    0    0 -0.22204460493E-15  0.35527136788E-14  0.00000000000E+00  0.91188000000E+02  0.91188000000E+02 0.  0.
    9900012    2    3    3    0    0 -0.12500389053E+01 -0.24506098493E+02 -0.27452999261E+02  0.54367100649E+02  0.40000037548E+02 0.  0.
        -12    1    3    3    0    0  0.12500389053E+01  0.24506098493E+02  0.27452999261E+02  0.36820899351E+02  0.00000000000E+00 0.  1.
         11    1    4    4    0    0  0.25427962476E+01  0.37011423122E+01 -0.16136100075E+02  0.16749268433E+02  0.51100000000E-03 0.  1.
        -11    1    4    4    0    0  0.41004036040E+01 -0.27640680115E+02 -0.83152704977E+01  0.29154146028E+02  0.51100000000E-03 0. -1.
         12    1    4    4    0    0 -0.78932387569E+01 -0.56656069085E+00 -0.30016286887E+01  0.84636861871E+01  0.00000000000E+00 0. -1.
</event>
<event>
 8    1  0.1212194E-006  0.9118800E+02  0.7816164E-02  0.1184000E+00
        -11   -1    0    0    0    0  0.00000000000E+00  0.00000000000E+00  0.45593999997E+02  0.45594000000E+02  0.51100000000E-03 0. -1.
         11   -1    0    0    0    0 -0.00000000000E+00 -0.00000000000E+00 -0.45593999997E+02  0.45594000000E+02  0.51100000000E-03 0.  1.
         23    2    1    2    0    0  0.00000000000E+00  0.49960036108E-15  0.71054273576E-14  0.91188000000E+02  0.91188000000E+02 0.  0.
    9900012    2    3    3    0    0  0.16945326445E+02 -0.36829805231E+00 -0.32687884649E+02  0.54367115510E+02  0.40000071429E+02 0.  0.
         12    1    3    3    0    0 -0.16945326445E+02  0.36829805231E+00  0.32687884649E+02  0.36820884490E+02  0.00000000000E+00 0. -1.
         11    1    4    4    0    0  0.12490528402E+02  0.58508324203E+01 -0.87706049900E+00  0.13820809497E+02  0.51100000000E-03 0. -1.
        -11    1    4    4    0    0  0.48598677806E+01 -0.66443185637E+01 -0.35687897702E+02  0.36625009579E+02  0.51100000000E-03 0.  1.
         12    1    4    4    0    0 -0.40506973765E+00  0.42518809114E+00  0.38770735515E+01  0.39212964347E+01  0.00000000000E+00 0. -1.
</event>
<event>
 8    1  0.1212194E-006  0.9118800E+02  0.7816164E-02  0.1184000E+00
        -11   -1    0    0    0    0  0.00000000000E+00  0.00000000000E+00  0.45593999997E+02  0.45594000000E+02  0.51100000000E-03 0. -1.
         11   -1    0    0    0    0 -0.00000000000E+00 -0.00000000000E+00 -0.45593999997E+02  0.45594000000E+02  0.51100000000E-03 0.  1.
         23    2    1    2    0    0 -0.17763568394E-14  0.35527136788E-14  0.00000000000E+00  0.91188000000E+02  0.91188000000E+02 0.  0.
    9900012    2    3    3    0    0 -0.15704365907E+02 -0.21586556546E+02 -0.25360854218E+02  0.54367089382E+02  0.40000011865E+02 0.  0.
         12    1    3    3    0    0  0.15704365907E+02  0.21586556546E+02  0.25360854218E+02  0.36820910618E+02  0.00000000000E+00 0. -1.
         11    1    4    4    0    0  0.44799404335E+01 -0.32986069745E+01  0.21799557103E+00  0.55676024095E+01  0.51100000000E-03 0. -1.
        -11    1    4    4    0    0  0.20893696817E+01 -0.18713530808E+02 -0.15312361526E+02  0.24269942660E+02  0.51100000000E-03 0.  1.
        -12    1    4    4    0    0 -0.22273676022E+02  0.42558123645E+00 -0.10266488263E+02  0.24529544313E+02  0.00000000000E+00 0.  1.
</event>
<event>
 8    1  0.1212194E-006  0.9118800E+02  0.7816164E-02  0.1184000E+00
        -11   -1    0    0    0    0  0.00000000000E+00  0.00000000000E+00  0.45593999997E+02  0.45594000000E+02  0.51100000000E-03 0. -1.
         11   -1    0    0    0    0 -0.00000000000E+00 -0.00000000000E+00 -0.45593999997E+02  0.45594000000E+02  0.51100000000E-03 0.  1.
         23    2    1    2    0    0 -0.71054273576E-14  0.00000000000E+00  0.35527136788E-14  0.91188000000E+02  0.91188000000E+02 0.  0.
    9900012    2    3    3    0    0  0.20667203293E+02  0.21466829397E+02 -0.21629181546E+02  0.54367088134E+02  0.40000009018E+02 0.  0.
         12    1    3    3    0    0 -0.20667203293E+02 -0.21466829397E+02  0.21629181546E+02  0.36820911866E+02  0.00000000000E+00 0. -1.
         11    1    4    4    0    0  0.59512332166E+01  0.52674597359E+01 -0.12052483652E+02  0.14436955057E+02  0.51100000000E-03 0.  1.
        -11    1    4    4    0    0  0.24049287566E+02  0.66244088642E+01 -0.90914866022E+01  0.26550068816E+02  0.51100000000E-03 0. -1.
         12    1    4    4    0    0 -0.93333174897E+01  0.95749607970E+01 -0.48521129183E+00  0.13380064261E+02  0.00000000000E+00 0. -1.
</event>
<event>
 8    1  0.1212194E-006  0.9118800E+02  0.7816164E-02  0.1184000E+00
        -11   -1    0    0    0    0  0.00000000000E+00  0.00000000000E+00  0.45593999997E+02  0.45594000000E+02  0.51100000000E-03 0. -1.
         11   -1    0    0    0    0 -0.00000000000E+00 -0.00000000000E+00 -0.45593999997E+02  0.45594000000E+02  0.51100000000E-03 0.  1.
         23    2    1    2    0    0  0.00000000000E+00  0.00000000000E+00 -0.44408920985E-15  0.91188000000E+02  0.91188000000E+02 0.  0.
    9900012    2    3    3    0    0  0.17341198937E+02 -0.32436497043E+02 -0.17130609460E+01  0.54367107849E+02  0.40000053963E+02 0.  0.
         12    1    3    3    0    0 -0.17341198937E+02  0.32436497043E+02  0.17130609460E+01  0.36820892151E+02  0.00000000000E+00 0. -1.
         11    1    4    4    0    0 -0.11957397286E+01  0.22434992489E+01  0.12784276857E+01  0.28456036243E+01  0.51100000000E-03 0. -1.
        -11    1    4    4    0    0  0.23821314787E+02 -0.15995972122E+02  0.72130307289E+01  0.29586381578E+02  0.51100000000E-03 0.  1.
        -12    1    4    4    0    0 -0.52843761209E+01 -0.18684024170E+02 -0.10204519361E+02  0.21935122647E+02  0.00000000000E+00 0.  1.
</event>
<event>
 8    1  0.1212194E-006  0.9118800E+02  0.7816164E-02  0.1184000E+00
        -11   -1    0    0    0    0  0.00000000000E+00  0.00000000000E+00  0.45593999997E+02  0.45594000000E+02  0.51100000000E-03 0.  1.
         11   -1    0    0    0    0 -0.00000000000E+00 -0.00000000000E+00 -0.45593999997E+02  0.45594000000E+02  0.51100000000E-03 0. -1.
         23    2    1    2    0    0  0.17763568394E-14 -0.17763568394E-14  0.00000000000E+00  0.91188000000E+02  0.91188000000E+02 0.  0.
    9900012    2    3    3    0    0 -0.15853080363E+02  0.52919403189E+01  0.32809584906E+02  0.54366896662E+02  0.39999572518E+02 0.  0.
         12    1    3    3    0    0  0.15853080363E+02 -0.52919403189E+01 -0.32809584906E+02  0.36821103338E+02  0.00000000000E+00 0. -1.
         11    1    4    4    0    0 -0.12252736417E+02  0.16777600333E+02  0.19952570115E+02  0.28804903699E+02  0.51100000000E-03 0. -1.
        -11    1    4    4    0    0  0.31733046714E+01 -0.97085504929E+01 -0.76783696186E+00  0.10242821343E+02  0.51100000000E-03 0.  1.
        -12    1    4    4    0    0 -0.67736486178E+01 -0.17771095209E+01  0.13624851752E+02  0.15319171620E+02  0.00000000000E+00 0.  1.
</event>
<event>
 8    1  0.1212194E-006  0.9118800E+02  0.7816164E-02  0.1184000E+00
        -11   -1    0    0    0    0  0.00000000000E+00  0.00000000000E+00  0.45593999997E+02  0.45594000000E+02  0.51100000000E-03 0.  1.
         11   -1    0    0    0    0 -0.00000000000E+00 -0.00000000000E+00 -0.45593999997E+02  0.45594000000E+02  0.51100000000E-03 0. -1.
         23    2    1    2    0    0  0.00000000000E+00 -0.88817841970E-15  0.35527136788E-14  0.91188000000E+02  0.91188000000E+02 0.  0.
    9900012    2    3    3    0    0  0.27037098115E+02  0.60464750955E+01  0.24253144857E+02  0.54367087857E+02  0.40000008388E+02 0.  0.
         12    1    3    3    0    0 -0.27037098115E+02 -0.60464750955E+01 -0.24253144857E+02  0.36820912143E+02  0.00000000000E+00 0. -1.
         11    1    4    4    0    0  0.66362314914E+01  0.33223178086E+01  0.61546866639E+00  0.74468896842E+01  0.51100000000E-03 0. -1.
        -11    1    4    4    0    0  0.23103671543E+02  0.45429066412E+01  0.30965469992E+02  0.38900873661E+02  0.51100000000E-03 0.  1.
         12    1    4    4    0    0 -0.27028049195E+01 -0.18187493543E+01 -0.73277938008E+01  0.80193245123E+01  0.00000000000E+00 0. -1.
</event>
<event>
 8    1  0.1212194E-006  0.9118800E+02  0.7816164E-02  0.1184000E+00
        -11   -1    0    0    0    0  0.00000000000E+00  0.00000000000E+00  0.45593999997E+02  0.45594000000E+02  0.51100000000E-03 0.  1.
         11   -1    0    0    0    0 -0.00000000000E+00 -0.00000000000E+00 -0.45593999997E+02  0.45594000000E+02  0.51100000000E-03 0. -1.
         23    2    1    2    0    0  0.17763568394E-14  0.00000000000E+00 -0.88817841970E-15  0.91188000000E+02  0.91188000000E+02 0.  0.
    9900012    2    3    3    0    0  0.59957039850E+01 -0.35898114122E+02  0.55818061312E+01  0.54367087145E+02  0.40000006765E+02 0.  0.
         12    1    3    3    0    0 -0.59957039850E+01  0.35898114122E+02 -0.55818061312E+01  0.36820912855E+02  0.00000000000E+00 0. -1.
         11    1    4    4    0    0 -0.97200250824E+01 -0.83658254448E+01  0.78880875398E+01  0.15056156491E+02  0.51100000000E-03 0. -1.
        -11    1    4    4    0    0  0.11456406340E+02 -0.18672813453E+02  0.95596437620E+01  0.23902091909E+02  0.51100000000E-03 0.  1.
         12    1    4    4    0    0  0.42593227272E+01 -0.88594752240E+01 -0.11865925171E+02  0.15408838746E+02  0.00000000000E+00 0. -1.
</event>
<event>
 8    1  0.1212194E-006  0.9118800E+02  0.7816164E-02  0.1184000E+00
        -11   -1    0    0    0    0  0.00000000000E+00  0.00000000000E+00  0.45593999997E+02  0.45594000000E+02  0.51100000000E-03 0. -1.
         11   -1    0    0    0    0 -0.00000000000E+00 -0.00000000000E+00 -0.45593999997E+02  0.45594000000E+02  0.51100000000E-03 0.  1.
         23    2    1    2    0    0 -0.35527136788E-14 -0.44408920985E-15  0.71054273576E-14  0.91188000000E+02  0.91188000000E+02 0.  0.
    9900012    2    3    3    0    0  0.14375855081E+02 -0.61975078685E+00 -0.33892956549E+02  0.54367057535E+02  0.39999939264E+02 0.  0.
         12    1    3    3    0    0 -0.14375855081E+02  0.61975078685E+00  0.33892956549E+02  0.36820942465E+02  0.00000000000E+00 0. -1.
         11    1    4    4    0    0  0.19857098660E+02 -0.11909910139E+02 -0.10579862250E+02  0.25457490297E+02  0.51100000000E-03 0. -1.
        -11    1    4    4    0    0  0.15461783129E+01 -0.15340285940E+01 -0.51474928588E+01  0.55893285907E+01  0.51100000000E-03 0.  1.
        -12    1    4    4    0    0 -0.70274218923E+01  0.12824187946E+02 -0.18165601440E+02  0.23320238648E+02  0.00000000000E+00 0.  1.
</event>
<event>
 8    1  0.1212194E-006  0.9118800E+02  0.7816164E-02  0.1184000E+00
        -11   -1    0    0    0    0  0.00000000000E+00  0.00000000000E+00  0.45593999997E+02  0.45594000000E+02  0.51100000000E-03 0. -1.
         11   -1    0    0    0    0 -0.00000000000E+00 -0.00000000000E+00 -0.45593999997E+02  0.45594000000E+02  0.51100000000E-03 0.  1.
         23    2    1    2    0    0  0.22204460493E-15 -0.35527136788E-14  0.00000000000E+00  0.91188000000E+02  0.91188000000E+02 0.  0.
    9900012    2    3    3    0    0 -0.19179748527E+01  0.30170222813E+02 -0.21020290560E+02  0.54367169111E+02  0.40000193621E+02 0.  0.
         12    1    3    3    0    0  0.19179748527E+01 -0.30170222813E+02  0.21020290560E+02  0.36820830889E+02  0.00000000000E+00 0. -1.
         11    1    4    4    0    0 -0.23585036065E+00  0.87856160198E+01  0.41149364272E+01  0.97043998424E+01  0.51100000000E-03 0. -1.
        -11    1    4    4    0    0 -0.10388138492E+02  0.42170661974E+01  0.20051509466E+01  0.11389367815E+02  0.51100000000E-03 0.  1.
        -12    1    4    4    0    0  0.87060140001E+01  0.17167540596E+02 -0.27140377934E+02  0.33273401453E+02  0.00000000000E+00 0.  1.
</event>
<event>
 8    1  0.1212194E-006  0.9118800E+02  0.7816164E-02  0.1184000E+00
        -11   -1    0    0    0    0  0.00000000000E+00  0.00000000000E+00  0.45593999997E+02  0.45594000000E+02  0.51100000000E-03 0.  1.
         11   -1    0    0    0    0 -0.00000000000E+00 -0.00000000000E+00 -0.45593999997E+02  0.45594000000E+02  0.51100000000E-03 0. -1.
         23    2    1    2    0    0  0.00000000000E+00  0.00000000000E+00  0.00000000000E+00  0.91188000000E+02  0.91188000000E+02 0.  0.
    9900012    2    3    3    0    0  0.23433689980E+02 -0.27784878589E+02 -0.58858565749E+01  0.54367073722E+02  0.39999976165E+02 0.  0.
         12    1    3    3    0    0 -0.23433689980E+02  0.27784878589E+02  0.58858565749E+01  0.36820926278E+02  0.00000000000E+00 0. -1.
         11    1    4    4    0    0  0.68340810867E+00  0.41799702792E+01 -0.67088692327E+01  0.79339854311E+01  0.51100000000E-03 0. -1.
        -11    1    4    4    0    0  0.19561086717E+01 -0.22112629450E+02 -0.48750779953E+01  0.22727981170E+02  0.51100000000E-03 0.  1.
         12    1    4    4    0    0  0.20794173200E+02 -0.98522194183E+01  0.56980906531E+01  0.23705107121E+02  0.00000000000E+00 0. -1.
</event>
<event>
 8    1  0.1212194E-006  0.9118800E+02  0.7816164E-02  0.1184000E+00
        -11   -1    0    0    0    0  0.00000000000E+00  0.00000000000E+00  0.45593999997E+02  0.45594000000E+02  0.51100000000E-03 0.  1.
         11   -1    0    0    0    0 -0.00000000000E+00 -0.00000000000E+00 -0.45593999997E+02  0.45594000000E+02  0.51100000000E-03 0. -1.
         23    2    1    2    0    0  0.66613381478E-15  0.00000000000E+00  0.00000000000E+00  0.91188000000E+02  0.91188000000E+02 0.  0.
    9900012    2    3    3    0    0 -0.18790763767E+01  0.13730522088E+02 -0.34113364368E+02  0.54367084838E+02  0.40000001506E+02 0.  0.
        -12    1    3    3    0    0  0.18790763767E+01 -0.13730522088E+02  0.34113364368E+02  0.36820915162E+02  0.00000000000E+00 0.  1.
         11    1    4    4    0    0 -0.15788767826E+02  0.25511559017E+00 -0.10044878043E+02  0.18714963227E+02  0.51100000000E-03 0. -1.
        -11    1    4    4    0    0  0.12189115449E+02  0.43174394122E+01 -0.40161395973E+01  0.13540465134E+02  0.51100000000E-03 0.  1.
         12    1    4    4    0    0  0.17205760002E+01  0.91579670855E+01 -0.20052346727E+02  0.22111656478E+02  0.00000000000E+00 0. -1.
</event>
<event>
 8    1  0.1212194E-006  0.9118800E+02  0.7816164E-02  0.1184000E+00
        -11   -1    0    0    0    0  0.00000000000E+00  0.00000000000E+00  0.45593999997E+02  0.45594000000E+02  0.51100000000E-03 0.  1.
         11   -1    0    0    0    0 -0.00000000000E+00 -0.00000000000E+00 -0.45593999997E+02  0.45594000000E+02  0.51100000000E-03 0. -1.
         23    2    1    2    0    0  0.88817841970E-15  0.00000000000E+00 -0.71054273576E-14  0.91188000000E+02  0.91188000000E+02 0.  0.
    9900012    2    3    3    0    0 -0.75771738451E+01 -0.44581676860E+01  0.35755955174E+02  0.54367120692E+02  0.40000083243E+02 0.  0.
         12    1    3    3    0    0  0.75771738451E+01  0.44581676860E+01 -0.35755955174E+02  0.36820879308E+02  0.00000000000E+00 0. -1.
         11    1    4    4    0    0  0.71265819028E+01  0.21206597568E+01 -0.55131370536E+01  0.92563517573E+01  0.51100000000E-03 0. -1.
        -11    1    4    4    0    0  0.27750974070E+00  0.11823558703E+01  0.43983892621E+01  0.45629820756E+01  0.51100000000E-03 0.  1.
        -12    1    4    4    0    0 -0.14981265489E+02 -0.77611833131E+01  0.36870702965E+02  0.40547786860E+02  0.00000000000E+00 0.  1.
</event>
<event>
 8    1  0.1212194E-006  0.9118800E+02  0.7816164E-02  0.1184000E+00
        -11   -1    0    0    0    0  0.00000000000E+00  0.00000000000E+00  0.45593999997E+02  0.45594000000E+02  0.51100000000E-03 0.  1.
         11   -1    0    0    0    0 -0.00000000000E+00 -0.00000000000E+00 -0.45593999997E+02  0.45594000000E+02  0.51100000000E-03 0. -1.
         23    2    1    2    0    0 -0.66613381478E-15  0.35527136788E-14  0.00000000000E+00  0.91188000000E+02  0.91188000000E+02 0.  0.
    9900012    2    3    3    0    0  0.12426195895E+01 -0.11390277817E+02  0.34992811355E+02  0.54367090468E+02  0.40000014341E+02 0.  0.
         12    1    3    3    0    0 -0.12426195895E+01  0.11390277817E+02 -0.34992811355E+02  0.36820909532E+02  0.00000000000E+00 0. -1.
         11    1    4    4    0    0  0.54621166549E+01  0.91739246275E+01  0.38640315569E+01  0.11354574037E+02  0.51100000000E-03 0. -1.
        -11    1    4    4    0    0 -0.58638592579E+01 -0.17860921300E+00  0.17445347415E+02  0.18405349585E+02  0.51100000000E-03 0.  1.
        -12    1    4    4    0    0  0.16443621925E+01 -0.20385593232E+02  0.13683432383E+02  0.24607166847E+02  0.00000000000E+00 0.  1.
</event>
<event>
 8    1  0.1212194E-006  0.9118800E+02  0.7816164E-02  0.1184000E+00
        -11   -1    0    0    0    0  0.00000000000E+00  0.00000000000E+00  0.45593999997E+02  0.45594000000E+02  0.51100000000E-03 0.  1.
         11   -1    0    0    0    0 -0.00000000000E+00 -0.00000000000E+00 -0.45593999997E+02  0.45594000000E+02  0.51100000000E-03 0. -1.
         23    2    1    2    0    0  0.00000000000E+00  0.17763568394E-14  0.00000000000E+00  0.91188000000E+02  0.91188000000E+02 0.  0.
    9900012    2    3    3    0    0 -0.15704682420E+02 -0.11241836874E+02 -0.31349067639E+02  0.54367082194E+02  0.39999995479E+02 0.  0.
        -12    1    3    3    0    0  0.15704682420E+02  0.11241836874E+02  0.31349067639E+02  0.36820917806E+02  0.00000000000E+00 0.  1.
         11    1    4    4    0    0 -0.85061752693E+01 -0.46926459190E+01 -0.13373135915E+02  0.16529268221E+02  0.51100000000E-03 0. -1.
        -11    1    4    4    0    0  0.76253082091E+01 -0.84737099294E+01  0.32708185936E+01  0.11859483116E+02  0.51100000000E-03 0.  1.
        -12    1    4    4    0    0 -0.14823815359E+02  0.19245189746E+01 -0.21246750317E+02  0.25978330858E+02  0.00000000000E+00 0.  1.
</event>
<event>
 8    1  0.1212194E-006  0.9118800E+02  0.7816164E-02  0.1184000E+00
        -11   -1    0    0    0    0  0.00000000000E+00  0.00000000000E+00  0.45593999997E+02  0.45594000000E+02  0.51100000000E-03 0.  1.
         11   -1    0    0    0    0 -0.00000000000E+00 -0.00000000000E+00 -0.45593999997E+02  0.45594000000E+02  0.51100000000E-03 0. -1.
         23    2    1    2    0    0 -0.71054273576E-14  0.44408920985E-15  0.00000000000E+00  0.91188000000E+02  0.91188000000E+02 0.  0.
    9900012    2    3    3    0    0  0.33675256794E+02 -0.33170425331E+01  0.14517128963E+02  0.54367180826E+02  0.40000220329E+02 0.  0.
         12    1    3    3    0    0 -0.33675256794E+02  0.33170425331E+01 -0.14517128963E+02  0.36820819174E+02  0.00000000000E+00 0. -1.
         11    1    4    4    0    0  0.14841698573E+01 -0.17633352297E+01 -0.51345198502E+01  0.56280907643E+01  0.51100000000E-03 0. -1.
        -11    1    4    4    0    0  0.29541936596E+02 -0.54797487080E+01  0.16131011369E+01  0.30089130252E+02  0.51100000000E-03 0.  1.
        -12    1    4    4    0    0  0.26491503402E+01  0.39260414046E+01  0.18038547677E+02  0.18649959810E+02  0.00000000000E+00 0.  1.
</event>
<event>
 8    1  0.1212194E-006  0.9118800E+02  0.7816164E-02  0.1184000E+00
        -11   -1    0    0    0    0  0.00000000000E+00  0.00000000000E+00  0.45593999997E+02  0.45594000000E+02  0.51100000000E-03 0.  1.
         11   -1    0    0    0    0 -0.00000000000E+00 -0.00000000000E+00 -0.45593999997E+02  0.45594000000E+02  0.51100000000E-03 0. -1.
         23    2    1    2    0    0  0.00000000000E+00  0.00000000000E+00  0.35527136788E-14  0.91188000000E+02  0.91188000000E+02 0.  0.
    9900012    2    3    3    0    0 -0.24498146754E+01  0.25033460481E+02  0.26890597296E+02  0.54367082596E+02  0.39999996394E+02 0.  0.
         12    1    3    3    0    0  0.24498146754E+01 -0.25033460481E+02 -0.26890597296E+02  0.36820917404E+02  0.00000000000E+00 0. -1.
         11    1    4    4    0    0 -0.10826664929E+01  0.10634541918E+02 -0.13834168246E+00  0.10690406317E+02  0.51100000000E-03 0. -1.
        -11    1    4    4    0    0 -0.11888563744E+01  0.22687589181E+02  0.27129177655E+02  0.35385482374E+02  0.51100000000E-03 0.  1.
        -12    1    4    4    0    0 -0.17829180804E+00 -0.82886706179E+01 -0.10023867752E+00  0.82911939052E+01  0.00000000000E+00 0.  1.
</event>
<event>
 8    1  0.1212194E-006  0.9118800E+02  0.7816164E-02  0.1184000E+00
        -11   -1    0    0    0    0  0.00000000000E+00  0.00000000000E+00  0.45593999997E+02  0.45594000000E+02  0.51100000000E-03 0.  1.
         11   -1    0    0    0    0 -0.00000000000E+00 -0.00000000000E+00 -0.45593999997E+02  0.45594000000E+02  0.51100000000E-03 0. -1.
         23    2    1    2    0    0 -0.35527136788E-14  0.00000000000E+00  0.88817841970E-15  0.91188000000E+02  0.91188000000E+02 0.  0.
    9900012    2    3    3    0    0 -0.27052269537E+02  0.24376186645E+02  0.54549044995E+01  0.54367085487E+02  0.40000002985E+02 0.  0.
         12    1    3    3    0    0  0.27052269537E+02 -0.24376186645E+02 -0.54549044995E+01  0.36820914513E+02  0.00000000000E+00 0. -1.
         11    1    4    4    0    0 -0.22759770424E+02  0.11264913839E+02  0.17086041551E+00  0.25395563138E+02  0.51100000000E-03 0. -1.
        -11    1    4    4    0    0 -0.13292503912E+02  0.13792998594E+02  0.55447883836E+01  0.19941969535E+02  0.51100000000E-03 0.  1.
         12    1    4    4    0    0  0.90000047989E+01 -0.68172578747E+00 -0.26074429961E+00  0.90295528139E+01  0.00000000000E+00 0. -1.
</event>
<event>
 8    1  0.1212194E-006  0.9118800E+02  0.7816164E-02  0.1184000E+00
        -11   -1    0    0    0    0  0.00000000000E+00  0.00000000000E+00  0.45593999997E+02  0.45594000000E+02  0.51100000000E-03 0. -1.
         11   -1    0    0    0    0 -0.00000000000E+00 -0.00000000000E+00 -0.45593999997E+02  0.45594000000E+02  0.51100000000E-03 0.  1.
         23    2    1    2    0    0  0.35527136788E-14  0.00000000000E+00  0.00000000000E+00  0.91188000000E+02  0.91188000000E+02 0.  0.
    9900012    2    3    3    0    0 -0.16420202502E+02  0.18829213259E+02 -0.27048437863E+02  0.54367077782E+02  0.39999985419E+02 0.  0.
         12    1    3    3    0    0  0.16420202502E+02 -0.18829213259E+02  0.27048437863E+02  0.36820922218E+02  0.00000000000E+00 0. -1.
         11    1    4    4    0    0 -0.18974457097E+02  0.38756449301E+01 -0.29790600491E+01  0.19594015535E+02  0.51100000000E-03 0. -1.
        -11    1    4    4    0    0 -0.11736947755E+01  0.19222066832E+02 -0.20212367169E+02  0.27917829421E+02  0.51100000000E-03 0.  1.
        -12    1    4    4    0    0  0.37279493709E+01 -0.42684985028E+01 -0.38570106450E+01  0.68552328258E+01  0.00000000000E+00 0.  1.
</event>
<event>
 8    1  0.1212194E-006  0.9118800E+02  0.7816164E-02  0.1184000E+00
        -11   -1    0    0    0    0  0.00000000000E+00  0.00000000000E+00  0.45593999997E+02  0.45594000000E+02  0.51100000000E-03 0.  1.
         11   -1    0    0    0    0 -0.00000000000E+00 -0.00000000000E+00 -0.45593999997E+02  0.45594000000E+02  0.51100000000E-03 0. -1.
         23    2    1    2    0    0 -0.71054273576E-14 -0.17763568394E-14  0.35527136788E-14  0.91188000000E+02  0.91188000000E+02 0.  0.
    9900012    2    3    3    0    0 -0.25624247028E+02 -0.12949559065E+02 -0.23053991527E+02  0.54367086907E+02  0.40000006222E+02 0.  0.
        -12    1    3    3    0    0  0.25624247028E+02  0.12949559065E+02  0.23053991527E+02  0.36820913093E+02  0.00000000000E+00 0.  1.
         11    1    4    4    0    0 -0.92154075026E+01 -0.22980722059E+01 -0.17617862877E+02  0.20014843590E+02  0.51100000000E-03 0. -1.
        -11    1    4    4    0    0 -0.47986150281E+01  0.85640359199E+01  0.31589048707E+01  0.10312521402E+02  0.51100000000E-03 0.  1.
         12    1    4    4    0    0 -0.11610224497E+02 -0.19215522779E+02 -0.85950335198E+01  0.24039721915E+02  0.00000000000E+00 0. -1.
</event>
<event>
 8    1  0.1212194E-006  0.9118800E+02  0.7816164E-02  0.1184000E+00
        -11   -1    0    0    0    0  0.00000000000E+00  0.00000000000E+00  0.45593999997E+02  0.45594000000E+02  0.51100000000E-03 0.  1.
         11   -1    0    0    0    0 -0.00000000000E+00 -0.00000000000E+00 -0.45593999997E+02  0.45594000000E+02  0.51100000000E-03 0. -1.
         23    2    1    2    0    0  0.35527136788E-14  0.00000000000E+00  0.35527136788E-14  0.91188000000E+02  0.91188000000E+02 0.  0.
    9900012    2    3    3    0    0  0.21358413515E+02  0.16969964252E+02  0.24730978381E+02  0.54367043925E+02  0.39999908236E+02 0.  0.
         12    1    3    3    0    0 -0.21358413515E+02 -0.16969964252E+02 -0.24730978381E+02  0.36820956075E+02  0.00000000000E+00 0. -1.
         11    1    4    4    0    0  0.15759598986E+01 -0.40306206266E+01  0.59083761286E+01  0.73238283005E+01  0.51100000000E-03 0. -1.
        -11    1    4    4    0    0  0.12970638501E+02  0.66798867391E+01  0.25861498429E+02  0.29693020244E+02  0.51100000000E-03 0.  1.
         12    1    4    4    0    0  0.68118151154E+01  0.14320698139E+02 -0.70388961766E+01  0.17350195381E+02  0.00000000000E+00 0. -1.
</event>
<event>
 8    1  0.1212194E-006  0.9118800E+02  0.7816164E-02  0.1184000E+00
        -11   -1    0    0    0    0  0.00000000000E+00  0.00000000000E+00  0.45593999997E+02  0.45594000000E+02  0.51100000000E-03 0.  1.
         11   -1    0    0    0    0 -0.00000000000E+00 -0.00000000000E+00 -0.45593999997E+02  0.45594000000E+02  0.51100000000E-03 0. -1.
         23    2    1    2    0    0  0.17763568394E-14  0.00000000000E+00 -0.35527136788E-14  0.91188000000E+02  0.91188000000E+02 0.  0.
    9900012    2    3    3    0    0 -0.76690905654E+01  0.18482051460E+02 -0.30909191528E+02  0.54367091576E+02  0.40000016866E+02 0.  0.
        -12    1    3    3    0    0  0.76690905654E+01 -0.18482051460E+02  0.30909191528E+02  0.36820908424E+02  0.00000000000E+00 0.  1.
         11    1    4    4    0    0  0.12622096883E+02  0.74029882707E+01 -0.43608837178E+01  0.15268885753E+02  0.51100000000E-03 0.  1.
        -11    1    4    4    0    0 -0.12376044832E+02  0.14817207926E+02 -0.14216606835E+02  0.23975571872E+02  0.51100000000E-03 0. -1.
         12    1    4    4    0    0 -0.79151426166E+01 -0.37381447370E+01 -0.12331700975E+02  0.15122633952E+02  0.00000000000E+00 0. -1.
</event>
<event>
 8    1  0.1212194E-006  0.9118800E+02  0.7816164E-02  0.1184000E+00
        -11   -1    0    0    0    0  0.00000000000E+00  0.00000000000E+00  0.45593999997E+02  0.45594000000E+02  0.51100000000E-03 0. -1.
         11   -1    0    0    0    0 -0.00000000000E+00 -0.00000000000E+00 -0.45593999997E+02  0.45594000000E+02  0.51100000000E-03 0.  1.
         23    2    1    2    0    0 -0.35527136788E-14  0.35527136788E-14  0.17763568394E-14  0.91188000000E+02  0.91188000000E+02 0.  0.
    9900012    2    3    3    0    0 -0.25181684948E+02  0.26264379026E+02  0.56430954329E+01  0.54367090336E+02  0.40000014039E+02 0.  0.
        -12    1    3    3    0    0  0.25181684948E+02 -0.26264379026E+02 -0.56430954329E+01  0.36820909664E+02  0.00000000000E+00 0.  1.
         11    1    4    4    0    0  0.10323986926E+01  0.84974359985E+01 -0.62306236798E+01  0.10587395209E+02  0.51100000000E-03 0. -1.
        -11    1    4    4    0    0  0.58393433622E+00  0.97401100927E+01  0.12426812501E+02  0.15799885858E+02  0.51100000000E-03 0.  1.
         12    1    4    4    0    0 -0.26798017977E+02  0.80268329345E+01 -0.55309338843E+00  0.27979809269E+02  0.00000000000E+00 0. -1.
</event>
<event>
 8    1  0.1212194E-006  0.9118800E+02  0.7816164E-02  0.1184000E+00
        -11   -1    0    0    0    0  0.00000000000E+00  0.00000000000E+00  0.45593999997E+02  0.45594000000E+02  0.51100000000E-03 0.  1.
         11   -1    0    0    0    0 -0.00000000000E+00 -0.00000000000E+00 -0.45593999997E+02  0.45594000000E+02  0.51100000000E-03 0. -1.
         23    2    1    2    0    0  0.00000000000E+00  0.00000000000E+00 -0.35527136788E-14  0.91188000000E+02  0.91188000000E+02 0.  0.
    9900012    2    3    3    0    0  0.11481499946E+02 -0.27531736636E+02  0.21586082338E+02  0.54367077769E+02  0.39999985391E+02 0.  0.
         12    1    3    3    0    0 -0.11481499946E+02  0.27531736636E+02 -0.21586082338E+02  0.36820922231E+02  0.00000000000E+00 0. -1.
         11    1    4    4    0    0 -0.95838210986E+01  0.16314975491E+01  0.14519667787E+01  0.98295279078E+01  0.51100000000E-03 0.  1.
        -11    1    4    4    0    0  0.11186500213E+02 -0.91590174799E+01 -0.40954911897E-01  0.14457768354E+02  0.51100000000E-03 0. -1.
        -12    1    4    4    0    0  0.98788208321E+01 -0.20004216705E+02  0.20175070472E+02  0.30079781508E+02  0.00000000000E+00 0.  1.
</event>
<event>
 8    1  0.1212194E-006  0.9118800E+02  0.7816164E-02  0.1184000E+00
        -11   -1    0    0    0    0  0.00000000000E+00  0.00000000000E+00  0.45593999997E+02  0.45594000000E+02  0.51100000000E-03 0.  1.
         11   -1    0    0    0    0 -0.00000000000E+00 -0.00000000000E+00 -0.45593999997E+02  0.45594000000E+02  0.51100000000E-03 0. -1.
         23    2    1    2    0    0 -0.17763568394E-14  0.00000000000E+00 -0.44408920985E-15  0.91188000000E+02  0.91188000000E+02 0.  0.
    9900012    2    3    3    0    0 -0.14899443240E+02  0.33527946361E+02 -0.31081350052E+01  0.54367121422E+02  0.40000084905E+02 0.  0.
        -12    1    3    3    0    0  0.14899443240E+02 -0.33527946361E+02  0.31081350052E+01  0.36820878578E+02  0.00000000000E+00 0.  1.
         11    1    4    4    0    0 -0.16398526107E+02  0.42540890063E+01  0.35043032521E+01  0.17299973217E+02  0.51100000000E-03 0. -1.
        -11    1    4    4    0    0  0.87648655713E+01  0.46280868406E+01  0.17106970980E+01  0.10058257359E+02  0.51100000000E-03 0.  1.
         12    1    4    4    0    0 -0.72657827044E+01  0.24645770514E+02 -0.83231353553E+01  0.27008890845E+02  0.00000000000E+00 0. -1.
</event>
<event>
 8    1  0.1212194E-006  0.9118800E+02  0.7816164E-02  0.1184000E+00
        -11   -1    0    0    0    0  0.00000000000E+00  0.00000000000E+00  0.45593999997E+02  0.45594000000E+02  0.51100000000E-03 0. -1.
         11   -1    0    0    0    0 -0.00000000000E+00 -0.00000000000E+00 -0.45593999997E+02  0.45594000000E+02  0.51100000000E-03 0.  1.
         23    2    1    2    0    0 -0.88817841970E-15  0.00000000000E+00  0.00000000000E+00  0.91188000000E+02  0.91188000000E+02 0.  0.
    9900012    2    3    3    0    0  0.42583991425E+01 -0.36534182461E+02  0.17026152750E+01  0.54367090857E+02  0.40000015226E+02 0.  0.
        -12    1    3    3    0    0 -0.42583991425E+01  0.36534182461E+02 -0.17026152750E+01  0.36820909143E+02  0.00000000000E+00 0.  1.
         11    1    4    4    0    0 -0.14147900226E+01 -0.15917841420E+02  0.20130164609E+01  0.16106878711E+02  0.51100000000E-03 0. -1.
        -11    1    4    4    0    0  0.18591962162E+02 -0.15524891661E+02 -0.18346439710E+01  0.24290929107E+02  0.51100000000E-03 0.  1.
        -12    1    4    4    0    0 -0.12918772997E+02 -0.50914493803E+01  0.15242427850E+01  0.13969283039E+02  0.00000000000E+00 0.  1.
</event>
<event>
 8    1  0.1212194E-006  0.9118800E+02  0.7816164E-02  0.1184000E+00
        -11   -1    0    0    0    0  0.00000000000E+00  0.00000000000E+00  0.45593999997E+02  0.45594000000E+02  0.51100000000E-03 0. -1.
         11   -1    0    0    0    0 -0.00000000000E+00 -0.00000000000E+00 -0.45593999997E+02  0.45594000000E+02  0.51100000000E-03 0.  1.
         23    2    1    2    0    0  0.00000000000E+00  0.00000000000E+00  0.88817841970E-15  0.91188000000E+02  0.91188000000E+02 0.  0.
    9900012    2    3    3    0    0  0.23308349588E+02 -0.27721579082E+02  0.66344270809E+01  0.54367072119E+02  0.39999972509E+02 0.  0.
         12    1    3    3    0    0 -0.23308349588E+02  0.27721579082E+02 -0.66344270809E+01  0.36820927881E+02  0.00000000000E+00 0. -1.
         11    1    4    4    0    0  0.19701715728E+02 -0.23359857308E+02  0.13606662660E+02  0.33451185406E+02  0.51100000000E-03 0. -1.
        -11    1    4    4    0    0 -0.36420010779E+01 -0.94697663009E+01 -0.93658844575E+00  0.10189104172E+02  0.51100000000E-03 0.  1.
        -12    1    4    4    0    0  0.72486349384E+01  0.51080445272E+01 -0.60356471331E+01  0.10726782541E+02  0.00000000000E+00 0.  1.
</event>
<event>
 8    1  0.1212194E-006  0.9118800E+02  0.7816164E-02  0.1184000E+00
        -11   -1    0    0    0    0  0.00000000000E+00  0.00000000000E+00  0.45593999997E+02  0.45594000000E+02  0.51100000000E-03 0. -1.
         11   -1    0    0    0    0 -0.00000000000E+00 -0.00000000000E+00 -0.45593999997E+02  0.45594000000E+02  0.51100000000E-03 0.  1.
         23    2    1    2    0    0  0.00000000000E+00  0.00000000000E+00  0.35527136788E-14  0.91188000000E+02  0.91188000000E+02 0.  0.
    9900012    2    3    3    0    0 -0.17045434279E+02 -0.24917317065E+02  0.21079879725E+02  0.54367070507E+02  0.39999968835E+02 0.  0.
        -12    1    3    3    0    0  0.17045434279E+02  0.24917317065E+02 -0.21079879725E+02  0.36820929493E+02  0.00000000000E+00 0.  1.
         11    1    4    4    0    0 -0.71227253560E+00 -0.21498108702E+02  0.52474925892E+01  0.22140735956E+02  0.51100000000E-03 0. -1.
        -11    1    4    4    0    0  0.40838583900E+01  0.30870211891E+01  0.78242918554E+01  0.93502482571E+01  0.51100000000E-03 0.  1.
        -12    1    4    4    0    0 -0.20417020134E+02 -0.65062295526E+01  0.80080952801E+01  0.22876086294E+02  0.00000000000E+00 0.  1.
</event>
<event>
 8    1  0.1212194E-006  0.9118800E+02  0.7816164E-02  0.1184000E+00
        -11   -1    0    0    0    0  0.00000000000E+00  0.00000000000E+00  0.45593999997E+02  0.45594000000E+02  0.51100000000E-03 0. -1.
         11   -1    0    0    0    0 -0.00000000000E+00 -0.00000000000E+00 -0.45593999997E+02  0.45594000000E+02  0.51100000000E-03 0.  1.
         23    2    1    2    0    0  0.00000000000E+00  0.00000000000E+00  0.13322676296E-14  0.91188000000E+02  0.91188000000E+02 0.  0.
    9900012    2    3    3    0    0 -0.33126757850E+02 -0.15704157811E+02  0.34317556103E+01  0.54367087399E+02  0.40000007342E+02 0.  0.
        -12    1    3    3    0    0  0.33126757850E+02  0.15704157811E+02 -0.34317556103E+01  0.36820912601E+02  0.00000000000E+00 0.  1.
         11    1    4    4    0    0 -0.23045468182E+01 -0.17307082595E+02 -0.72476430640E+01  0.18904348024E+02  0.51100000000E-03 0. -1.
        -11    1    4    4    0    0 -0.19603620019E+02 -0.32691911565E+00 -0.35430569688E+00  0.19609546826E+02  0.51100000000E-03 0.  1.
        -12    1    4    4    0    0 -0.11218591014E+02  0.19298438996E+01  0.11033704371E+02  0.15853192548E+02  0.00000000000E+00 0.  1.
</event>
<event>
 8    1  0.1212194E-006  0.9118800E+02  0.7816164E-02  0.1184000E+00
        -11   -1    0    0    0    0  0.00000000000E+00  0.00000000000E+00  0.45593999997E+02  0.45594000000E+02  0.51100000000E-03 0. -1.
         11   -1    0    0    0    0 -0.00000000000E+00 -0.00000000000E+00 -0.45593999997E+02  0.45594000000E+02  0.51100000000E-03 0.  1.
         23    2    1    2    0    0  0.00000000000E+00  0.00000000000E+00  0.00000000000E+00  0.91188000000E+02  0.91188000000E+02 0.  0.
    9900012    2    3    3    0    0 -0.15753844173E+02  0.29226324800E+02  0.15919193711E+02  0.54367049497E+02  0.39999920939E+02 0.  0.
        -12    1    3    3    0    0  0.15753844173E+02 -0.29226324800E+02 -0.15919193711E+02  0.36820950503E+02  0.00000000000E+00 0.  1.
         11    1    4    4    0    0 -0.18423789833E+02  0.17765770042E+02  0.10996749965E+02  0.27856545497E+02  0.51100000000E-03 0. -1.
        -11    1    4    4    0    0 -0.80182717824E+01 -0.15737991919E+01  0.51389399634E+01  0.96528871578E+01  0.51100000000E-03 0.  1.
         12    1    4    4    0    0  0.10688217443E+02  0.13034353950E+02 -0.21649621746E+00  0.16857616842E+02  0.00000000000E+00 0. -1.
</event>
<event>
 8    1  0.1212194E-006  0.9118800E+02  0.7816164E-02  0.1184000E+00
        -11   -1    0    0    0    0  0.00000000000E+00  0.00000000000E+00  0.45593999997E+02  0.45594000000E+02  0.51100000000E-03 0.  1.
         11   -1    0    0    0    0 -0.00000000000E+00 -0.00000000000E+00 -0.45593999997E+02  0.45594000000E+02  0.51100000000E-03 0. -1.
         23    2    1    2    0    0  0.17763568394E-14 -0.17763568394E-14  0.00000000000E+00  0.91188000000E+02  0.91188000000E+02 0.  0.
    9900012    2    3    3    0    0 -0.95151486355E+01  0.11230640387E+02  0.33750754667E+02  0.54367098630E+02  0.40000032947E+02 0.  0.
         12    1    3    3    0    0  0.95151486355E+01 -0.11230640387E+02 -0.33750754667E+02  0.36820901370E+02  0.00000000000E+00 0. -1.
         11    1    4    4    0    0  0.43680676164E+01  0.10068454213E+02  0.21757808997E+02  0.24369161610E+02  0.51100000000E-03 0. -1.
        -11    1    4    4    0    0 -0.15364266162E+02  0.10130568714E+02  0.82331509958E+01  0.20161197205E+02  0.51100000000E-03 0.  1.
         12    1    4    4    0    0  0.14810499104E+01 -0.89683825391E+01  0.37597946744E+01  0.98367398155E+01  0.00000000000E+00 0. -1.
</event>
<event>
 8    1  0.1212194E-006  0.9118800E+02  0.7816164E-02  0.1184000E+00
        -11   -1    0    0    0    0  0.00000000000E+00  0.00000000000E+00  0.45593999997E+02  0.45594000000E+02  0.51100000000E-03 0. -1.
         11   -1    0    0    0    0 -0.00000000000E+00 -0.00000000000E+00 -0.45593999997E+02  0.45594000000E+02  0.51100000000E-03 0.  1.
         23    2    1    2    0    0  0.00000000000E+00  0.00000000000E+00  0.17763568394E-14  0.91188000000E+02  0.91188000000E+02 0.  0.
    9900012    2    3    3    0    0  0.22321179987E+02  0.26291210795E+02 -0.12896067288E+02  0.54367198915E+02  0.40000261565E+02 0.  0.
        -12    1    3    3    0    0 -0.22321179987E+02 -0.26291210795E+02  0.12896067288E+02  0.36820801085E+02  0.00000000000E+00 0.  1.
         11    1    4    4    0    0  0.24452502954E+02  0.22685869726E+02 -0.23447402840E+01  0.33437574571E+02  0.51100000000E-03 0. -1.
        -11    1    4    4    0    0  0.53628363178E+01 -0.43988967848E+01 -0.55242047311E+01  0.88671948477E+01  0.51100000000E-03 0.  1.
         12    1    4    4    0    0 -0.74941592843E+01  0.80042378542E+01 -0.50271222730E+01  0.12062429496E+02  0.00000000000E+00 0. -1.
</event>
<event>
 8    1  0.1212194E-006  0.9118800E+02  0.7816164E-02  0.1184000E+00
        -11   -1    0    0    0    0  0.00000000000E+00  0.00000000000E+00  0.45593999997E+02  0.45594000000E+02  0.51100000000E-03 0. -1.
         11   -1    0    0    0    0 -0.00000000000E+00 -0.00000000000E+00 -0.45593999997E+02  0.45594000000E+02  0.51100000000E-03 0.  1.
         23    2    1    2    0    0 -0.71054273576E-14  0.00000000000E+00  0.88817841970E-15  0.91188000000E+02  0.91188000000E+02 0.  0.
    9900012    2    3    3    0    0  0.32786464492E+02 -0.16227869905E+02  0.41813645283E+01  0.54367084410E+02  0.40000000530E+02 0.  0.
        -12    1    3    3    0    0 -0.32786464492E+02  0.16227869905E+02 -0.41813645283E+01  0.36820915590E+02  0.00000000000E+00 0.  1.
         11    1    4    4    0    0  0.25686831998E+02 -0.17355075725E+02  0.16410264207E+01  0.31043597722E+02  0.51100000000E-03 0.  1.
        -11    1    4    4    0    0 -0.35162868165E+01  0.45566758940E+01 -0.67034208746E+01  0.88353505795E+01  0.51100000000E-03 0. -1.
        -12    1    4    4    0    0  0.10615919311E+02 -0.34294700740E+01  0.92437589821E+01  0.14488136109E+02  0.00000000000E+00 0.  1.
</event>
<event>
 8    1  0.1212194E-006  0.9118800E+02  0.7816164E-02  0.1184000E+00
        -11   -1    0    0    0    0  0.00000000000E+00  0.00000000000E+00  0.45593999997E+02  0.45594000000E+02  0.51100000000E-03 0. -1.
         11   -1    0    0    0    0 -0.00000000000E+00 -0.00000000000E+00 -0.45593999997E+02  0.45594000000E+02  0.51100000000E-03 0.  1.
         23    2    1    2    0    0  0.88817841970E-15 -0.71054273576E-14  0.83266726847E-16  0.91188000000E+02  0.91188000000E+02 0.  0.
    9900012    2    3    3    0    0 -0.43362264380E+01  0.36563971678E+02 -0.22948013162E+00  0.54367088201E+02  0.40000009171E+02 0.  0.
        -12    1    3    3    0    0  0.43362264380E+01 -0.36563971678E+02  0.22948013162E+00  0.36820911799E+02  0.00000000000E+00 0.  1.
         11    1    4    4    0    0 -0.64545017109E+01  0.17736869366E+02  0.14506632265E+02  0.23805451207E+02  0.51100000000E-03 0. -1.
        -11    1    4    4    0    0  0.37472817966E+00 -0.17128933577E+01  0.29292681563E+01  0.34139474302E+01  0.51100000000E-03 0.  1.
        -12    1    4    4    0    0  0.17435470932E+01  0.20539995670E+02 -0.17665380553E+02  0.27147689563E+02  0.00000000000E+00 0.  1.
</event>
<event>
 8    1  0.1212194E-006  0.9118800E+02  0.7816164E-02  0.1184000E+00
        -11   -1    0    0    0    0  0.00000000000E+00  0.00000000000E+00  0.45593999997E+02  0.45594000000E+02  0.51100000000E-03 0. -1.
         11   -1    0    0    0    0 -0.00000000000E+00 -0.00000000000E+00 -0.45593999997E+02  0.45594000000E+02  0.51100000000E-03 0.  1.
         23    2    1    2    0    0  0.88817841970E-15  0.00000000000E+00  0.00000000000E+00  0.91188000000E+02  0.91188000000E+02 0.  0.
    9900012    2    3    3    0    0 -0.42909973851E+01  0.16261606293E+02 -0.32755566105E+02  0.54367087347E+02  0.40000007224E+02 0.  0.
         12    1    3    3    0    0  0.42909973851E+01 -0.16261606293E+02  0.32755566105E+02  0.36820912653E+02  0.00000000000E+00 0. -1.
         11    1    4    4    0    0  0.40249275524E+00 -0.49818191915E+01  0.10158633923E+01  0.51002452458E+01  0.51100000000E-03 0. -1.
        -11    1    4    4    0    0 -0.14672530222E+02  0.10139900164E+02 -0.81408003315E+01  0.19605441815E+02  0.51100000000E-03 0.  1.
        -12    1    4    4    0    0  0.99790400817E+01  0.11103525320E+02 -0.25630629166E+02  0.29661400286E+02  0.00000000000E+00 0.  1.
</event>
<event>
 8    1  0.1212194E-006  0.9118800E+02  0.7816164E-02  0.1184000E+00
        -11   -1    0    0    0    0  0.00000000000E+00  0.00000000000E+00  0.45593999997E+02  0.45594000000E+02  0.51100000000E-03 0.  1.
         11   -1    0    0    0    0 -0.00000000000E+00 -0.00000000000E+00 -0.45593999997E+02  0.45594000000E+02  0.51100000000E-03 0. -1.
         23    2    1    2    0    0 -0.11102230246E-15 -0.35527136788E-14  0.71054273576E-14  0.91188000000E+02  0.91188000000E+02 0.  0.
    9900012    2    3    3    0    0  0.92159587943E+00  0.17297517506E+02 -0.32491946086E+02  0.54367081879E+02  0.39999994759E+02 0.  0.
        -12    1    3    3    0    0 -0.92159587943E+00 -0.17297517506E+02  0.32491946086E+02  0.36820918121E+02  0.00000000000E+00 0.  1.
         11    1    4    4    0    0 -0.44082809661E+01 -0.11759481322E+02 -0.87755552923E+01  0.15320858755E+02  0.51100000000E-03 0. -1.
        -11    1    4    4    0    0 -0.21181297347E+01  0.14615059286E+02 -0.11467243461E+02  0.18697168352E+02  0.51100000000E-03 0.  1.
        -12    1    4    4    0    0  0.74480065802E+01  0.14441939542E+02 -0.12249147332E+02  0.20349054772E+02  0.00000000000E+00 0.  1.
</event>
<event>
 8    1  0.1212194E-006  0.9118800E+02  0.7816164E-02  0.1184000E+00
        -11   -1    0    0    0    0  0.00000000000E+00  0.00000000000E+00  0.45593999997E+02  0.45594000000E+02  0.51100000000E-03 0.  1.
         11   -1    0    0    0    0 -0.00000000000E+00 -0.00000000000E+00 -0.45593999997E+02  0.45594000000E+02  0.51100000000E-03 0. -1.
         23    2    1    2    0    0  0.35527136788E-14  0.00000000000E+00 -0.35527136788E-14  0.91188000000E+02  0.91188000000E+02 0.  0.
    9900012    2    3    3    0    0  0.24789471167E+02 -0.14880964161E+02 -0.22799494875E+02  0.54367109983E+02  0.40000058829E+02 0.  0.
        -12    1    3    3    0    0 -0.24789471167E+02  0.14880964161E+02  0.22799494875E+02  0.36820890017E+02  0.00000000000E+00 0.  1.
         11    1    4    4    0    0  0.63009734750E+01 -0.85466317335E+00 -0.18661736251E+02  0.19715301571E+02  0.51100000000E-03 0. -1.
        -11    1    4    4    0    0  0.56559184577E+00 -0.77882330757E+01 -0.11829851768E+02  0.14174690886E+02  0.51100000000E-03 0.  1.
        -12    1    4    4    0    0  0.17922905846E+02 -0.62380679119E+01  0.76920931450E+01  0.20477117526E+02  0.00000000000E+00 0.  1.
</event>
<event>
 8    1  0.1212194E-006  0.9118800E+02  0.7816164E-02  0.1184000E+00
        -11   -1    0    0    0    0  0.00000000000E+00  0.00000000000E+00  0.45593999997E+02  0.45594000000E+02  0.51100000000E-03 0.  1.
         11   -1    0    0    0    0 -0.00000000000E+00 -0.00000000000E+00 -0.45593999997E+02  0.45594000000E+02  0.51100000000E-03 0. -1.
         23    2    1    2    0    0  0.17763568394E-14 -0.35527136788E-14  0.00000000000E+00  0.91188000000E+02  0.91188000000E+02 0.  0.
    9900012    2    3    3    0    0 -0.15393923622E+02 -0.31301952621E+02 -0.11789560121E+02  0.54367097645E+02  0.40000030702E+02 0.  0.
        -12    1    3    3    0    0  0.15393923622E+02  0.31301952621E+02  0.11789560121E+02  0.36820902355E+02  0.00000000000E+00 0.  1.
         11    1    4    4    0    0  0.39863793526E-01 -0.19605307458E+01 -0.19084171823E+02  0.19184652312E+02  0.51100000000E-03 0. -1.
        -11    1    4    4    0    0 -0.44235236689E+01 -0.10584169107E+02  0.69842819403E+01  0.13430278918E+02  0.51100000000E-03 0.  1.
         12    1    4    4    0    0 -0.11010263747E+02 -0.18757252768E+02  0.31032976117E+00  0.21752166415E+02  0.00000000000E+00 0. -1.
</event>
<event>
 8    1  0.1212194E-006  0.9118800E+02  0.7816164E-02  0.1184000E+00
        -11   -1    0    0    0    0  0.00000000000E+00  0.00000000000E+00  0.45593999997E+02  0.45594000000E+02  0.51100000000E-03 0. -1.
         11   -1    0    0    0    0 -0.00000000000E+00 -0.00000000000E+00 -0.45593999997E+02  0.45594000000E+02  0.51100000000E-03 0.  1.
         23    2    1    2    0    0  0.00000000000E+00  0.35527136788E-14 -0.88817841970E-15  0.91188000000E+02  0.91188000000E+02 0.  0.
    9900012    2    3    3    0    0  0.33478478148E+02 -0.13099278568E+02  0.79611555430E+01  0.54367087523E+02  0.40000007626E+02 0.  0.
         12    1    3    3    0    0 -0.33478478148E+02  0.13099278568E+02 -0.79611555430E+01  0.36820912477E+02  0.00000000000E+00 0. -1.
         11    1    4    4    0    0  0.29533894815E+02 -0.30254873015E+01  0.79130465449E+01  0.30724921843E+02  0.51100000000E-03 0. -1.
        -11    1    4    4    0    0  0.10478827718E+02  0.12550319318E+01  0.36717729337E+00  0.10560102032E+02  0.51100000000E-03 0.  1.
        -12    1    4    4    0    0 -0.65342443852E+01 -0.11328823198E+02 -0.31906829524E+00  0.13082063649E+02  0.00000000000E+00 0.  1.
</event>
<event>
 8    1  0.1212194E-006  0.9118800E+02  0.7816164E-02  0.1184000E+00
        -11   -1    0    0    0    0  0.00000000000E+00  0.00000000000E+00  0.45593999997E+02  0.45594000000E+02  0.51100000000E-03 0.  1.
         11   -1    0    0    0    0 -0.00000000000E+00 -0.00000000000E+00 -0.45593999997E+02  0.45594000000E+02  0.51100000000E-03 0. -1.
         23    2    1    2    0    0  0.00000000000E+00  0.17763568394E-14  0.71054273576E-14  0.91188000000E+02  0.91188000000E+02 0.  0.
    9900012    2    3    3    0    0 -0.16858372690E+02  0.53542734048E+01 -0.32294074943E+02  0.54367078639E+02  0.39999987372E+02 0.  0.
        -12    1    3    3    0    0  0.16858372690E+02 -0.53542734048E+01  0.32294074943E+02  0.36820921361E+02  0.00000000000E+00 0.  1.
         11    1    4    4    0    0 -0.45091321186E+01 -0.79682727203E-02 -0.27993612508E+02  0.28354447225E+02  0.51100000000E-03 0. -1.
        -11    1    4    4    0    0 -0.13258499682E+02 -0.57268035427E+01 -0.34823060132E+01  0.14856330236E+02  0.51100000000E-03 0.  1.
        -12    1    4    4    0    0  0.90925911096E+00  0.11089045220E+02 -0.81815642235E+00  0.11156301177E+02  0.00000000000E+00 0.  1.
</event>
<event>
 8    1  0.1212194E-006  0.9118800E+02  0.7816164E-02  0.1184000E+00
        -11   -1    0    0    0    0  0.00000000000E+00  0.00000000000E+00  0.45593999997E+02  0.45594000000E+02  0.51100000000E-03 0. -1.
         11   -1    0    0    0    0 -0.00000000000E+00 -0.00000000000E+00 -0.45593999997E+02  0.45594000000E+02  0.51100000000E-03 0.  1.
         23    2    1    2    0    0  0.00000000000E+00  0.00000000000E+00  0.35527136788E-14  0.91188000000E+02  0.91188000000E+02 0.  0.
    9900012    2    3    3    0    0 -0.24174331813E+02 -0.14605355232E+02 -0.23623435066E+02  0.54367062962E+02  0.39999951634E+02 0.  0.
         12    1    3    3    0    0  0.24174331813E+02  0.14605355232E+02  0.23623435066E+02  0.36820937038E+02  0.00000000000E+00 0. -1.
         11    1    4    4    0    0 -0.12638786943E+01 -0.21961415327E+02 -0.17886674754E+02  0.28351971475E+02  0.51100000000E-03 0. -1.
        -11    1    4    4    0    0 -0.23378973517E+02  0.64279694218E+01 -0.59215138778E+01  0.24959157046E+02  0.51100000000E-03 0.  1.
         12    1    4    4    0    0  0.46852039833E+00  0.92809067327E+00  0.18475356595E+00  0.10559344400E+01  0.00000000000E+00 0. -1.
</event>
<event>
 8    1  0.1212194E-006  0.9118800E+02  0.7816164E-02  0.1184000E+00
        -11   -1    0    0    0    0  0.00000000000E+00  0.00000000000E+00  0.45593999997E+02  0.45594000000E+02  0.51100000000E-03 0.  1.
         11   -1    0    0    0    0 -0.00000000000E+00 -0.00000000000E+00 -0.45593999997E+02  0.45594000000E+02  0.51100000000E-03 0. -1.
         23    2    1    2    0    0 -0.35527136788E-14  0.00000000000E+00  0.17763568394E-14  0.91188000000E+02  0.91188000000E+02 0.  0.
    9900012    2    3    3    0    0  0.17494393957E+02 -0.29113046853E+02 -0.14218181171E+02  0.54367082130E+02  0.39999995331E+02 0.  0.
        -12    1    3    3    0    0 -0.17494393957E+02  0.29113046853E+02  0.14218181171E+02  0.36820917870E+02  0.00000000000E+00 0.  1.
         11    1    4    4    0    0  0.81013049924E+01 -0.29035002351E+02 -0.20239984392E+02  0.36308669386E+02  0.51100000000E-03 0. -1.
        -11    1    4    4    0    0 -0.20954796276E+01 -0.42439011092E+01  0.24332297176E+01  0.53218736000E+01  0.51100000000E-03 0.  1.
         12    1    4    4    0    0  0.11488568593E+02  0.41658566069E+01  0.35885735037E+01  0.12736539144E+02  0.00000000000E+00 0. -1.
</event>
<event>
 8    1  0.1212194E-006  0.9118800E+02  0.7816164E-02  0.1184000E+00
        -11   -1    0    0    0    0  0.00000000000E+00  0.00000000000E+00  0.45593999997E+02  0.45594000000E+02  0.51100000000E-03 0.  1.
         11   -1    0    0    0    0 -0.00000000000E+00 -0.00000000000E+00 -0.45593999997E+02  0.45594000000E+02  0.51100000000E-03 0. -1.
         23    2    1    2    0    0  0.00000000000E+00 -0.17763568394E-14  0.00000000000E+00  0.91188000000E+02  0.91188000000E+02 0.  0.
    9900012    2    3    3    0    0 -0.26466629117E+02 -0.11749073226E+02  0.22743273726E+02  0.54367086402E+02  0.40000005070E+02 0.  0.
         12    1    3    3    0    0  0.26466629117E+02  0.11749073226E+02 -0.22743273726E+02  0.36820913598E+02  0.00000000000E+00 0. -1.
         11    1    4    4    0    0 -0.55053433617E+01 -0.65111836608E+01 -0.75120794691E+00  0.85597097986E+01  0.51100000000E-03 0. -1.
        -11    1    4    4    0    0 -0.22280132671E+02 -0.13406801649E+02  0.63446782652E+01  0.26765679233E+02  0.51100000000E-03 0.  1.
        -12    1    4    4    0    0  0.13188469157E+01  0.81689120839E+01  0.17149803407E+02  0.19041697370E+02  0.00000000000E+00 0.  1.
</event>
<event>
 8    1  0.1212194E-006  0.9118800E+02  0.7816164E-02  0.1184000E+00
        -11   -1    0    0    0    0  0.00000000000E+00  0.00000000000E+00  0.45593999997E+02  0.45594000000E+02  0.51100000000E-03 0. -1.
         11   -1    0    0    0    0 -0.00000000000E+00 -0.00000000000E+00 -0.45593999997E+02  0.45594000000E+02  0.51100000000E-03 0.  1.
         23    2    1    2    0    0  0.00000000000E+00  0.44408920985E-15  0.88817841970E-15  0.91188000000E+02  0.91188000000E+02 0.  0.
    9900012    2    3    3    0    0 -0.36147699290E+02 -0.12044302417E+01 -0.69045706595E+01  0.54367083225E+02  0.39999997828E+02 0.  0.
        -12    1    3    3    0    0  0.36147699290E+02  0.12044302417E+01  0.69045706595E+01  0.36820916775E+02  0.00000000000E+00 0.  1.
         11    1    4    4    0    0  0.38065573909E+01 -0.45784138344E+01  0.85316295321E+01  0.10403867317E+02  0.51100000000E-03 0. -1.
        -11    1    4    4    0    0 -0.41546316601E+01  0.29075665889E+01 -0.37311296975E+01  0.62957316319E+01  0.51100000000E-03 0.  1.
         12    1    4    4    0    0 -0.35799625021E+02  0.46641700375E+00 -0.11705070494E+02  0.37667484276E+02  0.00000000000E+00 0. -1.
</event>
<event>
 8    1  0.1212194E-006  0.9118800E+02  0.7816164E-02  0.1184000E+00
        -11   -1    0    0    0    0  0.00000000000E+00  0.00000000000E+00  0.45593999997E+02  0.45594000000E+02  0.51100000000E-03 0. -1.
         11   -1    0    0    0    0 -0.00000000000E+00 -0.00000000000E+00 -0.45593999997E+02  0.45594000000E+02  0.51100000000E-03 0.  1.
         23    2    1    2    0    0  0.35527136788E-14  0.00000000000E+00  0.00000000000E+00  0.91188000000E+02  0.91188000000E+02 0.  0.
    9900012    2    3    3    0    0 -0.27883629824E+02 -0.10219967648E+02 -0.21767751775E+02  0.54367087895E+02  0.40000008474E+02 0.  0.
         12    1    3    3    0    0  0.27883629824E+02  0.10219967648E+02  0.21767751775E+02  0.36820912105E+02  0.00000000000E+00 0. -1.
         11    1    4    4    0    0 -0.54666714151E+01 -0.97916933308E+01 -0.10374018934E+02  0.15276846002E+02  0.51100000000E-03 0. -1.
        -11    1    4    4    0    0 -0.91286014989E+01 -0.14468112095E+02 -0.97466314448E+01  0.19688942524E+02  0.51100000000E-03 0.  1.
        -12    1    4    4    0    0 -0.13288356910E+02  0.14039837778E+02 -0.16471013960E+01  0.19401299370E+02  0.00000000000E+00 0.  1.
</event>
<event>
 8    1  0.1212194E-006  0.9118800E+02  0.7816164E-02  0.1184000E+00
        -11   -1    0    0    0    0  0.00000000000E+00  0.00000000000E+00  0.45593999997E+02  0.45594000000E+02  0.51100000000E-03 0.  1.
         11   -1    0    0    0    0 -0.00000000000E+00 -0.00000000000E+00 -0.45593999997E+02  0.45594000000E+02  0.51100000000E-03 0. -1.
         23    2    1    2    0    0  0.00000000000E+00 -0.35527136788E-14  0.35527136788E-14  0.91188000000E+02  0.91188000000E+02 0.  0.
    9900012    2    3    3    0    0  0.10433215209E+02  0.19921078394E+02 -0.29155867871E+02  0.54367272478E+02  0.40000429266E+02 0.  0.
        -12    1    3    3    0    0 -0.10433215209E+02 -0.19921078394E+02  0.29155867871E+02  0.36820727522E+02  0.00000000000E+00 0.  1.
         11    1    4    4    0    0 -0.33841718351E+00 -0.45068620557E+01 -0.11101487895E+02  0.11986215646E+02  0.51100000000E-03 0. -1.
        -11    1    4    4    0    0  0.17509090084E+02  0.57482939424E+01 -0.75370029267E+01  0.19910236870E+02  0.51100000000E-03 0.  1.
         12    1    4    4    0    0 -0.67374576921E+01  0.18679646507E+02 -0.10517377049E+02  0.22470819962E+02  0.00000000000E+00 0. -1.
</event>
<event>
 8    1  0.1212194E-006  0.9118800E+02  0.7816164E-02  0.1184000E+00
        -11   -1    0    0    0    0  0.00000000000E+00  0.00000000000E+00  0.45593999997E+02  0.45594000000E+02  0.51100000000E-03 0.  1.
         11   -1    0    0    0    0 -0.00000000000E+00 -0.00000000000E+00 -0.45593999997E+02  0.45594000000E+02  0.51100000000E-03 0. -1.
         23    2    1    2    0    0 -0.35527136788E-14  0.17763568394E-14 -0.35527136788E-14  0.91188000000E+02  0.91188000000E+02 0.  0.
    9900012    2    3    3    0    0 -0.25579670961E+02 -0.81221294917E+01 -0.25208947485E+02  0.54367087637E+02  0.40000007886E+02 0.  0.
        -12    1    3    3    0    0  0.25579670961E+02  0.81221294917E+01  0.25208947485E+02  0.36820912363E+02  0.00000000000E+00 0.  1.
         11    1    4    4    0    0 -0.68719768569E+00  0.52677499125E+01 -0.21601342166E+02  0.22244986253E+02  0.51100000000E-03 0. -1.
        -11    1    4    4    0    0 -0.17331149012E+02 -0.26780260778E+01  0.23987229405E+01  0.17700124908E+02  0.51100000000E-03 0.  1.
         12    1    4    4    0    0 -0.75613242625E+01 -0.10711853326E+02 -0.60063282599E+01  0.14421976475E+02  0.00000000000E+00 0. -1.
</event>
<event>
 8    1  0.1212194E-006  0.9118800E+02  0.7816164E-02  0.1184000E+00
        -11   -1    0    0    0    0  0.00000000000E+00  0.00000000000E+00  0.45593999997E+02  0.45594000000E+02  0.51100000000E-03 0.  1.
         11   -1    0    0    0    0 -0.00000000000E+00 -0.00000000000E+00 -0.45593999997E+02  0.45594000000E+02  0.51100000000E-03 0. -1.
         23    2    1    2    0    0  0.00000000000E+00 -0.17763568394E-14  0.00000000000E+00  0.91188000000E+02  0.91188000000E+02 0.  0.
    9900012    2    3    3    0    0  0.23228696594E+02  0.61874317629E+01  0.27891267877E+02  0.54367089079E+02  0.40000011174E+02 0.  0.
         12    1    3    3    0    0 -0.23228696594E+02 -0.61874317629E+01 -0.27891267877E+02  0.36820910921E+02  0.00000000000E+00 0. -1.
         11    1    4    4    0    0 -0.50517362900E+01 -0.46278049363E+01  0.23233866661E+01  0.72342756329E+01  0.51100000000E-03 0. -1.
        -11    1    4    4    0    0 -0.10985958767E+01  0.49426264419E+01  0.14221652426E+02  0.15096087806E+02  0.51100000000E-03 0.  1.
         12    1    4    4    0    0  0.29379028760E+02  0.58726102573E+01  0.11346228784E+02  0.32036725640E+02  0.00000000000E+00 0. -1.
</event>
<event>
 8    1  0.1212194E-006  0.9118800E+02  0.7816164E-02  0.1184000E+00
        -11   -1    0    0    0    0  0.00000000000E+00  0.00000000000E+00  0.45593999997E+02  0.45594000000E+02  0.51100000000E-03 0.  1.
         11   -1    0    0    0    0 -0.00000000000E+00 -0.00000000000E+00 -0.45593999997E+02  0.45594000000E+02  0.51100000000E-03 0. -1.
         23    2    1    2    0    0  0.00000000000E+00  0.00000000000E+00 -0.35527136788E-14  0.91188000000E+02  0.91188000000E+02 0.  0.
    9900012    2    3    3    0    0 -0.18497505994E+02  0.19816988118E+02  0.24917985766E+02  0.54367126019E+02  0.40000095386E+02 0.  0.
         12    1    3    3    0    0  0.18497505994E+02 -0.19816988118E+02 -0.24917985766E+02  0.36820873981E+02  0.00000000000E+00 0. -1.
         11    1    4    4    0    0 -0.35389563372E+01  0.75620753526E+01  0.10949762553E+02  0.13769767457E+02  0.51100000000E-03 0. -1.
        -11    1    4    4    0    0 -0.12609922564E+02 -0.23312011635E+01  0.20709271340E+02  0.24358131407E+02  0.51100000000E-03 0.  1.
         12    1    4    4    0    0 -0.23486270933E+01  0.14586113929E+02 -0.67410481266E+01  0.16239227156E+02  0.00000000000E+00 0. -1.
</event>
<event>
 8    1  0.1212194E-006  0.9118800E+02  0.7816164E-02  0.1184000E+00
        -11   -1    0    0    0    0  0.00000000000E+00  0.00000000000E+00  0.45593999997E+02  0.45594000000E+02  0.51100000000E-03 0.  1.
         11   -1    0    0    0    0 -0.00000000000E+00 -0.00000000000E+00 -0.45593999997E+02  0.45594000000E+02  0.51100000000E-03 0. -1.
         23    2    1    2    0    0  0.00000000000E+00  0.00000000000E+00 -0.83266726847E-15  0.91188000000E+02  0.91188000000E+02 0.  0.
    9900012    2    3    3    0    0 -0.15712284864E+02  0.33299222238E+02  0.25604077342E+00  0.54367086728E+02  0.40000005814E+02 0.  0.
         12    1    3    3    0    0  0.15712284864E+02 -0.33299222238E+02 -0.25604077342E+00  0.36820913272E+02  0.00000000000E+00 0. -1.
         11    1    4    4    0    0  0.43225036179E+01  0.17770357541E+02 -0.12681366944E+02  0.22255037912E+02  0.51100000000E-03 0. -1.
        -11    1    4    4    0    0 -0.59470747891E+01  0.10807785549E+02 -0.11329410486E+00  0.12336480974E+02  0.51100000000E-03 0.  1.
         12    1    4    4    0    0 -0.14087713692E+02  0.47210791486E+01  0.13050701822E+02  0.19775567842E+02  0.00000000000E+00 0. -1.
</event>
<event>
 8    1  0.1212194E-006  0.9118800E+02  0.7816164E-02  0.1184000E+00
        -11   -1    0    0    0    0  0.00000000000E+00  0.00000000000E+00  0.45593999997E+02  0.45594000000E+02  0.51100000000E-03 0. -1.
         11   -1    0    0    0    0 -0.00000000000E+00 -0.00000000000E+00 -0.45593999997E+02  0.45594000000E+02  0.51100000000E-03 0.  1.
         23    2    1    2    0    0  0.00000000000E+00  0.00000000000E+00  0.88817841970E-15  0.91188000000E+02  0.91188000000E+02 0.  0.
    9900012    2    3    3    0    0  0.90938276227E+01  0.35568905364E+02 -0.28170655550E+01  0.54367074048E+02  0.39999976907E+02 0.  0.
         12    1    3    3    0    0 -0.90938276227E+01 -0.35568905364E+02  0.28170655550E+01  0.36820925952E+02  0.00000000000E+00 0. -1.
         11    1    4    4    0    0  0.16980097681E+02  0.17069362402E+02  0.13146885150E+02  0.27432233586E+02  0.51100000000E-03 0.  1.
        -11    1    4    4    0    0  0.16875445951E+01  0.19969656998E+01 -0.18372206045E+01  0.31954747030E+01  0.51100000000E-03 0. -1.
         12    1    4    4    0    0 -0.95738146538E+01  0.16502577262E+02 -0.14126730101E+02  0.23739365759E+02  0.00000000000E+00 0. -1.
</event>
<event>
 8    1  0.1212194E-006  0.9118800E+02  0.7816164E-02  0.1184000E+00
        -11   -1    0    0    0    0  0.00000000000E+00  0.00000000000E+00  0.45593999997E+02  0.45594000000E+02  0.51100000000E-03 0.  1.
         11   -1    0    0    0    0 -0.00000000000E+00 -0.00000000000E+00 -0.45593999997E+02  0.45594000000E+02  0.51100000000E-03 0. -1.
         23    2    1    2    0    0  0.00000000000E+00  0.00000000000E+00  0.35527136788E-14  0.91188000000E+02  0.91188000000E+02 0.  0.
    9900012    2    3    3    0    0  0.30996403005E+02  0.38021917195E+01  0.19507678913E+02  0.54367038610E+02  0.39999896119E+02 0.  0.
         12    1    3    3    0    0 -0.30996403005E+02 -0.38021917195E+01 -0.19507678913E+02  0.36820961390E+02  0.00000000000E+00 0. -1.
         11    1    4    4    0    0 -0.39110956817E+01  0.10500128746E+01  0.36760364131E+01  0.54692266766E+01  0.51100000000E-03 0. -1.
        -11    1    4    4    0    0  0.16505742888E+02  0.15810485006E+02  0.12612001007E+02  0.26105048441E+02  0.51100000000E-03 0.  1.
         12    1    4    4    0    0  0.18401755799E+02 -0.13058306162E+02  0.32196414929E+01  0.22792763493E+02  0.00000000000E+00 0. -1.
</event>
<event>
 8    1  0.1212194E-006  0.9118800E+02  0.7816164E-02  0.1184000E+00
        -11   -1    0    0    0    0  0.00000000000E+00  0.00000000000E+00  0.45593999997E+02  0.45594000000E+02  0.51100000000E-03 0. -1.
         11   -1    0    0    0    0 -0.00000000000E+00 -0.00000000000E+00 -0.45593999997E+02  0.45594000000E+02  0.51100000000E-03 0.  1.
         23    2    1    2    0    0  0.00000000000E+00  0.00000000000E+00 -0.35527136788E-14  0.91188000000E+02  0.91188000000E+02 0.  0.
    9900012    2    3    3    0    0  0.25624991996E+01 -0.23301164287E+02  0.28394893775E+02  0.54367073182E+02  0.39999974932E+02 0.  0.
        -12    1    3    3    0    0 -0.25624991996E+01  0.23301164287E+02 -0.28394893775E+02  0.36820926818E+02  0.00000000000E+00 0.  1.
         11    1    4    4    0    0  0.15518899294E+00 -0.25322386739E+01 -0.49742687865E+01  0.55838755848E+01  0.51100000000E-03 0. -1.
        -11    1    4    4    0    0  0.19844834634E+01  0.60763798478E+01  0.60094088116E+00  0.64204125159E+01  0.51100000000E-03 0.  1.
         12    1    4    4    0    0  0.42282674325E+00 -0.26845305461E+02  0.32768221680E+02  0.42362785081E+02  0.00000000000E+00 0. -1.
</event>
<event>
 8    1  0.1212194E-006  0.9118800E+02  0.7816164E-02  0.1184000E+00
        -11   -1    0    0    0    0  0.00000000000E+00  0.00000000000E+00  0.45593999997E+02  0.45594000000E+02  0.51100000000E-03 0.  1.
         11   -1    0    0    0    0 -0.00000000000E+00 -0.00000000000E+00 -0.45593999997E+02  0.45594000000E+02  0.51100000000E-03 0. -1.
         23    2    1    2    0    0  0.00000000000E+00  0.00000000000E+00  0.00000000000E+00  0.91188000000E+02  0.91188000000E+02 0.  0.
    9900012    2    3    3    0    0  0.31367287234E+02 -0.17923876457E+02 -0.71140231943E+01  0.54367063270E+02  0.39999952337E+02 0.  0.
         12    1    3    3    0    0 -0.31367287234E+02  0.17923876457E+02  0.71140231943E+01  0.36820936730E+02  0.00000000000E+00 0. -1.
         11    1    4    4    0    0 -0.55827606764E+01 -0.10673246650E+02 -0.37126640064E+01  0.12604335964E+02  0.51100000000E-03 0. -1.
        -11    1    4    4    0    0  0.31835536099E+02 -0.11569343826E+02 -0.63251431635E+01  0.34458068890E+02  0.51100000000E-03 0.  1.
         12    1    4    4    0    0  0.51145118109E+01  0.43187140186E+01  0.29237839756E+01  0.73046584160E+01  0.00000000000E+00 0. -1.
</event>
<event>
 8    1  0.1212194E-006  0.9118800E+02  0.7816164E-02  0.1184000E+00
        -11   -1    0    0    0    0  0.00000000000E+00  0.00000000000E+00  0.45593999997E+02  0.45594000000E+02  0.51100000000E-03 0. -1.
         11   -1    0    0    0    0 -0.00000000000E+00 -0.00000000000E+00 -0.45593999997E+02  0.45594000000E+02  0.51100000000E-03 0.  1.
         23    2    1    2    0    0  0.00000000000E+00 -0.35527136788E-14  0.00000000000E+00  0.91188000000E+02  0.91188000000E+02 0.  0.
    9900012    2    3    3    0    0 -0.25276772887E+02 -0.14067841345E+02 -0.22780594344E+02  0.54367151472E+02  0.40000153410E+02 0.  0.
         12    1    3    3    0    0  0.25276772887E+02  0.14067841345E+02  0.22780594344E+02  0.36820848528E+02  0.00000000000E+00 0. -1.
         11    1    4    4    0    0 -0.21299123858E+02 -0.76807927316E+01 -0.25932736170E+02  0.34426066572E+02  0.51100000000E-03 0. -1.
        -11    1    4    4    0    0 -0.25363060275E+01  0.54171209436E+01 -0.28438824506E+01  0.66231197510E+01  0.51100000000E-03 0.  1.
         12    1    4    4    0    0 -0.14413430013E+01 -0.11804169557E+02  0.59960242765E+01  0.13317965149E+02  0.00000000000E+00 0. -1.
</event>
<event>
 8    1  0.1212194E-006  0.9118800E+02  0.7816164E-02  0.1184000E+00
        -11   -1    0    0    0    0  0.00000000000E+00  0.00000000000E+00  0.45593999997E+02  0.45594000000E+02  0.51100000000E-03 0.  1.
         11   -1    0    0    0    0 -0.00000000000E+00 -0.00000000000E+00 -0.45593999997E+02  0.45594000000E+02  0.51100000000E-03 0. -1.
         23    2    1    2    0    0  0.00000000000E+00 -0.66613381478E-15  0.00000000000E+00  0.91188000000E+02  0.91188000000E+02 0.  0.
    9900012    2    3    3    0    0  0.22453393218E+01  0.18511766796E+01  0.36705747381E+02  0.54367078032E+02  0.39999985989E+02 0.  0.
         12    1    3    3    0    0 -0.22453393218E+01 -0.18511766796E+01 -0.36705747381E+02  0.36820921968E+02  0.00000000000E+00 0. -1.
         11    1    4    4    0    0 -0.42246188795E+01 -0.72509261517E+01  0.45056091206E+01  0.95249067472E+01  0.51100000000E-03 0. -1.
        -11    1    4    4    0    0  0.98640169580E+01  0.70031309605E+01 -0.29705947990E+00  0.12100864366E+02  0.51100000000E-03 0.  1.
         12    1    4    4    0    0 -0.33940587568E+01  0.20989718708E+01  0.32497197741E+02  0.32741306919E+02  0.00000000000E+00 0. -1.
</event>
<event>
 8    1  0.1212194E-006  0.9118800E+02  0.7816164E-02  0.1184000E+00
        -11   -1    0    0    0    0  0.00000000000E+00  0.00000000000E+00  0.45593999997E+02  0.45594000000E+02  0.51100000000E-03 0.  1.
         11   -1    0    0    0    0 -0.00000000000E+00 -0.00000000000E+00 -0.45593999997E+02  0.45594000000E+02  0.51100000000E-03 0. -1.
         23    2    1    2    0    0  0.00000000000E+00  0.00000000000E+00  0.00000000000E+00  0.91188000000E+02  0.91188000000E+02 0.  0.
    9900012    2    3    3    0    0  0.10081684545E+02  0.34103417294E+02  0.95444757507E+01  0.54367075898E+02  0.39999981125E+02 0.  0.
         12    1    3    3    0    0 -0.10081684545E+02 -0.34103417294E+02 -0.95444757507E+01  0.36820924102E+02  0.00000000000E+00 0. -1.
         11    1    4    4    0    0 -0.87484150824E+01  0.52100478061E+01  0.62379322195E+00  0.10201396122E+02  0.51100000000E-03 0.  1.
        -11    1    4    4    0    0  0.55828668043E+01  0.15147714104E+02  0.16993073658E+02  0.23438988821E+02  0.51100000000E-03 0. -1.
         12    1    4    4    0    0  0.13247232823E+02  0.13745655384E+02 -0.80723911293E+01  0.20726690955E+02  0.00000000000E+00 0. -1.
</event>
<event>
 8    1  0.1212194E-006  0.9118800E+02  0.7816164E-02  0.1184000E+00
        -11   -1    0    0    0    0  0.00000000000E+00  0.00000000000E+00  0.45593999997E+02  0.45594000000E+02  0.51100000000E-03 0. -1.
         11   -1    0    0    0    0 -0.00000000000E+00 -0.00000000000E+00 -0.45593999997E+02  0.45594000000E+02  0.51100000000E-03 0.  1.
         23    2    1    2    0    0 -0.26645352591E-14  0.17763568394E-14  0.00000000000E+00  0.91188000000E+02  0.91188000000E+02 0.  0.
    9900012    2    3    3    0    0 -0.40974927108E+01  0.13886316402E+02 -0.33855025620E+02  0.54367055017E+02  0.39999933522E+02 0.  0.
         12    1    3    3    0    0  0.40974927108E+01 -0.13886316402E+02  0.33855025620E+02  0.36820944983E+02  0.00000000000E+00 0. -1.
         11    1    4    4    0    0  0.85404370771E+01 -0.28088669457E+01 -0.84297604610E+01  0.12324352343E+02  0.51100000000E-03 0. -1.
        -11    1    4    4    0    0 -0.17338359139E+02  0.59890333476E+01 -0.24082961016E+02  0.30273358413E+02  0.51100000000E-03 0.  1.
         12    1    4    4    0    0  0.47004293512E+01  0.10706150000E+02 -0.13423041433E+01  0.11769344260E+02  0.00000000000E+00 0. -1.
</event>
<event>
 8    1  0.1212194E-006  0.9118800E+02  0.7816164E-02  0.1184000E+00
        -11   -1    0    0    0    0  0.00000000000E+00  0.00000000000E+00  0.45593999997E+02  0.45594000000E+02  0.51100000000E-03 0.  1.
         11   -1    0    0    0    0 -0.00000000000E+00 -0.00000000000E+00 -0.45593999997E+02  0.45594000000E+02  0.51100000000E-03 0. -1.
         23    2    1    2    0    0 -0.35527136788E-14 -0.35527136788E-14 -0.35527136788E-14  0.91188000000E+02  0.91188000000E+02 0.  0.
    9900012    2    3    3    0    0 -0.20394958992E+02  0.17721900488E+02 -0.25015182818E+02  0.54367089085E+02  0.40000011186E+02 0.  0.
        -12    1    3    3    0    0  0.20394958992E+02 -0.17721900488E+02  0.25015182818E+02  0.36820910915E+02  0.00000000000E+00 0.  1.
         11    1    4    4    0    0 -0.25734889224E+02  0.85445159054E+01 -0.28962096140E+02  0.39674882338E+02  0.51100000000E-03 0. -1.
        -11    1    4    4    0    0 -0.12605647442E+01  0.10069149178E+01  0.38652117631E+01  0.41884082133E+01  0.51100000000E-03 0.  1.
        -12    1    4    4    0    0  0.66004949764E+01  0.81704696650E+01  0.81701558833E-01  0.10503798533E+02  0.00000000000E+00 0.  1.
</event>
<event>
 8    1  0.1212194E-006  0.9118800E+02  0.7816164E-02  0.1184000E+00
        -11   -1    0    0    0    0  0.00000000000E+00  0.00000000000E+00  0.45593999997E+02  0.45594000000E+02  0.51100000000E-03 0.  1.
         11   -1    0    0    0    0 -0.00000000000E+00 -0.00000000000E+00 -0.45593999997E+02  0.45594000000E+02  0.51100000000E-03 0. -1.
         23    2    1    2    0    0  0.00000000000E+00 -0.71054273576E-14  0.66613381478E-15  0.91188000000E+02  0.91188000000E+02 0.  0.
    9900012    2    3    3    0    0 -0.70509485422E+01  0.36132658222E+02 -0.70289431205E+00  0.54367096617E+02  0.40000028358E+02 0.  0.
         12    1    3    3    0    0  0.70509485422E+01 -0.36132658222E+02  0.70289431205E+00  0.36820903383E+02  0.00000000000E+00 0. -1.
         11    1    4    4    0    0  0.25284683372E+01  0.13025744409E+02 -0.34320071033E+00  0.13273317465E+02  0.51100000000E-03 0. -1.
        -11    1    4    4    0    0  0.44338807640E+01  0.11261757560E+01  0.11558418964E+02  0.12430793204E+02  0.51100000000E-03 0.  1.
        -12    1    4    4    0    0 -0.14013297643E+02  0.21980738056E+02 -0.11918112566E+02  0.28662985948E+02  0.00000000000E+00 0.  1.
</event>
<event>
 8    1  0.1212194E-006  0.9118800E+02  0.7816164E-02  0.1184000E+00
        -11   -1    0    0    0    0  0.00000000000E+00  0.00000000000E+00  0.45593999997E+02  0.45594000000E+02  0.51100000000E-03 0. -1.
         11   -1    0    0    0    0 -0.00000000000E+00 -0.00000000000E+00 -0.45593999997E+02  0.45594000000E+02  0.51100000000E-03 0.  1.
         23    2    1    2    0    0 -0.17763568394E-14  0.88817841970E-15  0.00000000000E+00  0.91188000000E+02  0.91188000000E+02 0.  0.
    9900012    2    3    3    0    0  0.65926740117E+01  0.36266971230E+01 -0.36043890243E+02  0.54367105028E+02  0.40000047533E+02 0.  0.
         12    1    3    3    0    0 -0.65926740117E+01 -0.36266971230E+01  0.36043890243E+02  0.36820894972E+02  0.00000000000E+00 0. -1.
         11    1    4    4    0    0  0.95070006593E+01 -0.33828495128E+01 -0.35121227896E+02  0.36542131596E+02  0.51100000000E-03 0. -1.
        -11    1    4    4    0    0  0.49630048147E+01  0.13598272521E+01 -0.51220494041E+01  0.72605741718E+01  0.51100000000E-03 0.  1.
         12    1    4    4    0    0 -0.78773314623E+01  0.56497193837E+01  0.41993870573E+01  0.10564399261E+02  0.00000000000E+00 0. -1.
</event>
<event>
 8    1  0.1212194E-006  0.9118800E+02  0.7816164E-02  0.1184000E+00
        -11   -1    0    0    0    0  0.00000000000E+00  0.00000000000E+00  0.45593999997E+02  0.45594000000E+02  0.51100000000E-03 0.  1.
         11   -1    0    0    0    0 -0.00000000000E+00 -0.00000000000E+00 -0.45593999997E+02  0.45594000000E+02  0.51100000000E-03 0. -1.
         23    2    1    2    0    0  0.71054273576E-14  0.88817841970E-15 -0.17763568394E-14  0.91188000000E+02  0.91188000000E+02 0.  0.
    9900012    2    3    3    0    0 -0.34782619107E+02 -0.74634660058E+01  0.94998179738E+01  0.54367075809E+02  0.39999980921E+02 0.  0.
         12    1    3    3    0    0  0.34782619107E+02  0.74634660058E+01 -0.94998179738E+01  0.36820924191E+02  0.00000000000E+00 0. -1.
         11    1    4    4    0    0 -0.12322935631E+02 -0.21999885325E+01  0.20319566291E+01  0.12681622140E+02  0.51100000000E-03 0. -1.
        -11    1    4    4    0    0 -0.19633414702E+02  0.83952681663E+01  0.14748712585E+02  0.25951416601E+02  0.51100000000E-03 0.  1.
         12    1    4    4    0    0 -0.28262687744E+01 -0.13658745640E+02 -0.72808512408E+01  0.15734037067E+02  0.00000000000E+00 0. -1.
</event>
<event>
 8    1  0.1212194E-006  0.9118800E+02  0.7816164E-02  0.1184000E+00
        -11   -1    0    0    0    0  0.00000000000E+00  0.00000000000E+00  0.45593999997E+02  0.45594000000E+02  0.51100000000E-03 0.  1.
         11   -1    0    0    0    0 -0.00000000000E+00 -0.00000000000E+00 -0.45593999997E+02  0.45594000000E+02  0.51100000000E-03 0. -1.
         23    2    1    2    0    0 -0.35527136788E-14  0.00000000000E+00  0.35527136788E-14  0.91188000000E+02  0.91188000000E+02 0.  0.
    9900012    2    3    3    0    0 -0.19391501782E+02 -0.24957765039E+01  0.31201319386E+02  0.54367060670E+02  0.39999946409E+02 0.  0.
         12    1    3    3    0    0  0.19391501782E+02  0.24957765039E+01 -0.31201319386E+02  0.36820939330E+02  0.00000000000E+00 0. -1.
         11    1    4    4    0    0 -0.92355799396E+01 -0.24664874326E+01  0.12205296870E+01  0.96368661946E+01  0.51100000000E-03 0. -1.
        -11    1    4    4    0    0 -0.14448218693E+02 -0.46722781119E+01  0.34000707145E+02  0.37237471622E+02  0.51100000000E-03 0.  1.
        -12    1    4    4    0    0  0.42922968504E+01  0.46429890406E+01 -0.40199174464E+01  0.74927228535E+01  0.00000000000E+00 0.  1.
</event>
<event>
 8    1  0.1212194E-006  0.9118800E+02  0.7816164E-02  0.1184000E+00
        -11   -1    0    0    0    0  0.00000000000E+00  0.00000000000E+00  0.45593999997E+02  0.45594000000E+02  0.51100000000E-03 0.  1.
         11   -1    0    0    0    0 -0.00000000000E+00 -0.00000000000E+00 -0.45593999997E+02  0.45594000000E+02  0.51100000000E-03 0. -1.
         23    2    1    2    0    0  0.17763568394E-14  0.00000000000E+00  0.00000000000E+00  0.91188000000E+02  0.91188000000E+02 0.  0.
    9900012    2    3    3    0    0 -0.11466349784E+02 -0.20232291274E+01  0.34931500208E+02  0.54367077412E+02  0.39999984576E+02 0.  0.
         12    1    3    3    0    0  0.11466349784E+02  0.20232291274E+01 -0.34931500208E+02  0.36820922588E+02  0.00000000000E+00 0. -1.
         11    1    4    4    0    0  0.12003249627E+02 -0.36246800477E+01  0.22552042501E+02  0.25803312351E+02  0.51100000000E-03 0. -1.
        -11    1    4    4    0    0 -0.17455109850E+02 -0.28499947323E+01  0.11339514906E+02  0.21009234360E+02  0.51100000000E-03 0.  1.
         12    1    4    4    0    0 -0.60144895614E+01  0.44514456526E+01  0.10399428009E+01  0.75545307009E+01  0.00000000000E+00 0. -1.
</event>
<event>
 8    1  0.1212194E-006  0.9118800E+02  0.7816164E-02  0.1184000E+00
        -11   -1    0    0    0    0  0.00000000000E+00  0.00000000000E+00  0.45593999997E+02  0.45594000000E+02  0.51100000000E-03 0.  1.
         11   -1    0    0    0    0 -0.00000000000E+00 -0.00000000000E+00 -0.45593999997E+02  0.45594000000E+02  0.51100000000E-03 0. -1.
         23    2    1    2    0    0  0.00000000000E+00  0.00000000000E+00 -0.38302694350E-14  0.91188000000E+02  0.91188000000E+02 0.  0.
    9900012    2    3    3    0    0 -0.18262803301E+02 -0.31971711350E+02 -0.24451673226E+00  0.54367080681E+02  0.39999992029E+02 0.  0.
        -12    1    3    3    0    0  0.18262803301E+02  0.31971711350E+02  0.24451673226E+00  0.36820919319E+02  0.00000000000E+00 0.  1.
         11    1    4    4    0    0 -0.11061247750E+01 -0.45090264804E+01  0.14413796499E+02  0.15143063151E+02  0.51100000000E-03 0. -1.
        -11    1    4    4    0    0  0.19754574634E+01 -0.21940328133E+01  0.18538922352E+01  0.34861337978E+01  0.51100000000E-03 0.  1.
         12    1    4    4    0    0 -0.19132135990E+02 -0.25268652056E+02 -0.16512205467E+02  0.35737883732E+02  0.00000000000E+00 0. -1.
</event>
<event>
 8    1  0.1212194E-006  0.9118800E+02  0.7816164E-02  0.1184000E+00
        -11   -1    0    0    0    0  0.00000000000E+00  0.00000000000E+00  0.45593999997E+02  0.45594000000E+02  0.51100000000E-03 0.  1.
         11   -1    0    0    0    0 -0.00000000000E+00 -0.00000000000E+00 -0.45593999997E+02  0.45594000000E+02  0.51100000000E-03 0. -1.
         23    2    1    2    0    0 -0.71054273576E-14  0.35527136788E-14 -0.35527136788E-14  0.91188000000E+02  0.91188000000E+02 0.  0.
    9900012    2    3    3    0    0 -0.27288931852E+02  0.18922771439E+02 -0.15906700659E+02  0.54367079229E+02  0.39999988718E+02 0.  0.
        -12    1    3    3    0    0  0.27288931852E+02 -0.18922771439E+02  0.15906700659E+02  0.36820920771E+02  0.00000000000E+00 0.  1.
         11    1    4    4    0    0 -0.24169928615E+02  0.18185337923E+02 -0.18901960651E+02  0.35667577452E+02  0.51100000000E-03 0. -1.
        -11    1    4    4    0    0  0.17309780712E+01 -0.37368941086E+01 -0.61625601208E+01  0.74120044634E+01  0.51100000000E-03 0.  1.
        -12    1    4    4    0    0 -0.48499813089E+01  0.44743276251E+01  0.91578201119E+01  0.11287497313E+02  0.00000000000E+00 0.  1.
</event>
<event>
 8    1  0.1212194E-006  0.9118800E+02  0.7816164E-02  0.1184000E+00
        -11   -1    0    0    0    0  0.00000000000E+00  0.00000000000E+00  0.45593999997E+02  0.45594000000E+02  0.51100000000E-03 0.  1.
         11   -1    0    0    0    0 -0.00000000000E+00 -0.00000000000E+00 -0.45593999997E+02  0.45594000000E+02  0.51100000000E-03 0. -1.
         23    2    1    2    0    0  0.17763568394E-14 -0.35527136788E-14 -0.35527136788E-14  0.91188000000E+02  0.91188000000E+02 0.  0.
    9900012    2    3    3    0    0 -0.14159413557E+02  0.27035887159E+02  0.20599818804E+02  0.54367072234E+02  0.39999972772E+02 0.  0.
         12    1    3    3    0    0  0.14159413557E+02 -0.27035887159E+02 -0.20599818804E+02  0.36820927766E+02  0.00000000000E+00 0. -1.
         11    1    4    4    0    0 -0.47501894848E+01  0.70956835679E+01 -0.14511414136E+01  0.86613415301E+01  0.51100000000E-03 0. -1.
        -11    1    4    4    0    0  0.61343860832E+01 -0.56275095756E+00 -0.53208185880E+01  0.81399319386E+01  0.51100000000E-03 0.  1.
        -12    1    4    4    0    0 -0.15543610155E+02  0.20502954549E+02  0.27371778806E+02  0.37565798766E+02  0.00000000000E+00 0.  1.
</event>
<event>
 8    1  0.1212194E-006  0.9118800E+02  0.7816164E-02  0.1184000E+00
        -11   -1    0    0    0    0  0.00000000000E+00  0.00000000000E+00  0.45593999997E+02  0.45594000000E+02  0.51100000000E-03 0.  1.
         11   -1    0    0    0    0 -0.00000000000E+00 -0.00000000000E+00 -0.45593999997E+02  0.45594000000E+02  0.51100000000E-03 0. -1.
         23    2    1    2    0    0  0.00000000000E+00  0.00000000000E+00  0.17763568394E-14  0.91188000000E+02  0.91188000000E+02 0.  0.
    9900012    2    3    3    0    0  0.32437976029E+02 -0.10207227450E+02 -0.14119858196E+02  0.54367079635E+02  0.39999989643E+02 0.  0.
        -12    1    3    3    0    0 -0.32437976029E+02  0.10207227450E+02  0.14119858196E+02  0.36820920365E+02  0.00000000000E+00 0.  1.
         11    1    4    4    0    0 -0.68262434162E+00  0.89826992770E+00 -0.37205576392E+00  0.11879775281E+01  0.51100000000E-03 0. -1.
        -11    1    4    4    0    0  0.69611208545E+01 -0.13339196999E+02 -0.21099217931E+02  0.25914636361E+02  0.51100000000E-03 0.  1.
        -12    1    4    4    0    0  0.26159479516E+02  0.22336996210E+01  0.73514154996E+01  0.27264465746E+02  0.00000000000E+00 0.  1.
</event>
<event>
 8    1  0.1212194E-006  0.9118800E+02  0.7816164E-02  0.1184000E+00
        -11   -1    0    0    0    0  0.00000000000E+00  0.00000000000E+00  0.45593999997E+02  0.45594000000E+02  0.51100000000E-03 0.  1.
         11   -1    0    0    0    0 -0.00000000000E+00 -0.00000000000E+00 -0.45593999997E+02  0.45594000000E+02  0.51100000000E-03 0. -1.
         23    2    1    2    0    0  0.00000000000E+00  0.00000000000E+00  0.00000000000E+00  0.91188000000E+02  0.91188000000E+02 0.  0.
    9900012    2    3    3    0    0  0.15087360465E+02  0.83930821340E+01  0.32522444352E+02  0.54367059489E+02  0.39999943716E+02 0.  0.
         12    1    3    3    0    0 -0.15087360465E+02 -0.83930821340E+01 -0.32522444352E+02  0.36820940511E+02  0.00000000000E+00 0. -1.
         11    1    4    4    0    0  0.74849204257E+01  0.49791420931E+01 -0.76075512433E+01  0.11776702677E+02  0.51100000000E-03 0. -1.
        -11    1    4    4    0    0  0.42320439595E+00 -0.21459753875E+01  0.23842815420E+02  0.23942935487E+02  0.51100000000E-03 0.  1.
         12    1    4    4    0    0  0.71792356438E+01  0.55599154284E+01  0.16287180175E+02  0.18647421325E+02  0.00000000000E+00 0. -1.
</event>
<event>
 8    1  0.1212194E-006  0.9118800E+02  0.7816164E-02  0.1184000E+00
        -11   -1    0    0    0    0  0.00000000000E+00  0.00000000000E+00  0.45593999997E+02  0.45594000000E+02  0.51100000000E-03 0.  1.
         11   -1    0    0    0    0 -0.00000000000E+00 -0.00000000000E+00 -0.45593999997E+02  0.45594000000E+02  0.51100000000E-03 0. -1.
         23    2    1    2    0    0  0.17763568394E-14  0.00000000000E+00  0.35527136788E-14  0.91188000000E+02  0.91188000000E+02 0.  0.
    9900012    2    3    3    0    0 -0.14626748049E+02 -0.24943740005E+02 -0.22795784371E+02  0.54367085984E+02  0.40000004117E+02 0.  0.
        -12    1    3    3    0    0  0.14626748049E+02  0.24943740005E+02  0.22795784371E+02  0.36820914016E+02  0.00000000000E+00 0.  1.
         11    1    4    4    0    0 -0.81960401376E+01 -0.11126183083E+02  0.11876147834E+01  0.13870019938E+02  0.51100000000E-03 0. -1.
        -11    1    4    4    0    0  0.23643683388E+01  0.45203451989E+01 -0.18840540428E+02  0.19518958021E+02  0.51100000000E-03 0.  1.
        -12    1    4    4    0    0 -0.87950762507E+01 -0.18337902120E+02 -0.51428587267E+01  0.20978108025E+02  0.00000000000E+00 0.  1.
</event>
<event>
 8    1  0.1212194E-006  0.9118800E+02  0.7816164E-02  0.1184000E+00
        -11   -1    0    0    0    0  0.00000000000E+00  0.00000000000E+00  0.45593999997E+02  0.45594000000E+02  0.51100000000E-03 0. -1.
         11   -1    0    0    0    0 -0.00000000000E+00 -0.00000000000E+00 -0.45593999997E+02  0.45594000000E+02  0.51100000000E-03 0.  1.
         23    2    1    2    0    0  0.35527136788E-14 -0.35527136788E-14 -0.88817841970E-15  0.91188000000E+02  0.91188000000E+02 0.  0.
    9900012    2    3    3    0    0 -0.21420396448E+02  0.29329817241E+02  0.60587315753E+01  0.54367084861E+02  0.40000001558E+02 0.  0.
        -12    1    3    3    0    0  0.21420396448E+02 -0.29329817241E+02 -0.60587315753E+01  0.36820915139E+02  0.00000000000E+00 0.  1.
         11    1    4    4    0    0  0.86121726673E+00  0.16393268717E+02  0.18383014887E+01  0.16518483799E+02  0.51100000000E-03 0. -1.
        -11    1    4    4    0    0  0.64320297262E+01  0.18867264512E+01 -0.50227005017E+00  0.67218314889E+01  0.51100000000E-03 0.  1.
         12    1    4    4    0    0 -0.28713643441E+02  0.11049822073E+02  0.47227001368E+01  0.31126769573E+02  0.00000000000E+00 0. -1.
</event>
<event>
 8    1  0.1212194E-006  0.9118800E+02  0.7816164E-02  0.1184000E+00
        -11   -1    0    0    0    0  0.00000000000E+00  0.00000000000E+00  0.45593999997E+02  0.45594000000E+02  0.51100000000E-03 0.  1.
         11   -1    0    0    0    0 -0.00000000000E+00 -0.00000000000E+00 -0.45593999997E+02  0.45594000000E+02  0.51100000000E-03 0. -1.
         23    2    1    2    0    0  0.17763568394E-14  0.88817841970E-15  0.00000000000E+00  0.91188000000E+02  0.91188000000E+02 0.  0.
    9900012    2    3    3    0    0  0.10081967674E+02  0.53598947627E+01  0.35005791502E+02  0.54367082267E+02  0.39999995644E+02 0.  0.
         12    1    3    3    0    0 -0.10081967674E+02 -0.53598947627E+01 -0.35005791502E+02  0.36820917733E+02  0.00000000000E+00 0. -1.
         11    1    4    4    0    0  0.20783207896E+02 -0.22026542678E+01  0.75838018997E+01  0.22233026510E+02  0.51100000000E-03 0. -1.
        -11    1    4    4    0    0 -0.27321433734E+01  0.11964116889E+01  0.18010000540E+02  0.18255304107E+02  0.51100000000E-03 0.  1.
         12    1    4    4    0    0 -0.79690968489E+01  0.63661373416E+01  0.94119890623E+01  0.13878751649E+02  0.00000000000E+00 0. -1.
</event>
<event>
 8    1  0.1212194E-006  0.9118800E+02  0.7816164E-02  0.1184000E+00
        -11   -1    0    0    0    0  0.00000000000E+00  0.00000000000E+00  0.45593999997E+02  0.45594000000E+02  0.51100000000E-03 0.  1.
         11   -1    0    0    0    0 -0.00000000000E+00 -0.00000000000E+00 -0.45593999997E+02  0.45594000000E+02  0.51100000000E-03 0. -1.
         23    2    1    2    0    0 -0.35527136788E-14  0.35527136788E-14  0.35527136788E-14  0.91188000000E+02  0.91188000000E+02 0.  0.
    9900012    2    3    3    0    0  0.14820830278E+02 -0.17176992745E+02 -0.29001293035E+02  0.54367067264E+02  0.39999961441E+02 0.  0.
        -12    1    3    3    0    0 -0.14820830278E+02  0.17176992745E+02  0.29001293035E+02  0.36820932736E+02  0.00000000000E+00 0.  1.
         11    1    4    4    0    0  0.99737824784E+01 -0.17362247594E+02 -0.18390266109E+02  0.27186869372E+02  0.51100000000E-03 0. -1.
        -11    1    4    4    0    0  0.34794765111E+01 -0.13529537468E+01  0.78037428066E+01  0.86507596594E+01  0.51100000000E-03 0.  1.
        -12    1    4    4    0    0  0.13675712887E+01  0.15382085960E+01 -0.18414769732E+02  0.18529438232E+02  0.00000000000E+00 0.  1.
</event>
<event>
 8    1  0.1212194E-006  0.9118800E+02  0.7816164E-02  0.1184000E+00
        -11   -1    0    0    0    0  0.00000000000E+00  0.00000000000E+00  0.45593999997E+02  0.45594000000E+02  0.51100000000E-03 0. -1.
         11   -1    0    0    0    0 -0.00000000000E+00 -0.00000000000E+00 -0.45593999997E+02  0.45594000000E+02  0.51100000000E-03 0.  1.
         23    2    1    2    0    0  0.71054273576E-14 -0.26645352591E-14  0.35527136788E-14  0.91188000000E+02  0.91188000000E+02 0.  0.
    9900012    2    3    3    0    0  0.32976492132E+02 -0.57777423477E+01 -0.15328054186E+02  0.54367074087E+02  0.39999976996E+02 0.  0.
         12    1    3    3    0    0 -0.32976492132E+02  0.57777423477E+01  0.15328054186E+02  0.36820925913E+02  0.00000000000E+00 0. -1.
         11    1    4    4    0    0 -0.24991523069E+01 -0.22590978289E+00  0.17838615513E+01  0.30787919349E+01  0.51100000000E-03 0. -1.
        -11    1    4    4    0    0  0.21583539417E+02  0.11817260232E+02 -0.15294766853E+02  0.28972861551E+02  0.51100000000E-03 0.  1.
         12    1    4    4    0    0  0.13892105022E+02 -0.17369092796E+02 -0.18171488846E+01  0.22315420601E+02  0.00000000000E+00 0. -1.
</event>
<event>
 8    1  0.1212194E-006  0.9118800E+02  0.7816164E-02  0.1184000E+00
        -11   -1    0    0    0    0  0.00000000000E+00  0.00000000000E+00  0.45593999997E+02  0.45594000000E+02  0.51100000000E-03 0.  1.
         11   -1    0    0    0    0 -0.00000000000E+00 -0.00000000000E+00 -0.45593999997E+02  0.45594000000E+02  0.51100000000E-03 0. -1.
         23    2    1    2    0    0 -0.35527136788E-14 -0.35527136788E-14 -0.35527136788E-14  0.91188000000E+02  0.91188000000E+02 0.  0.
    9900012    2    3    3    0    0 -0.86346069859E+01 -0.25509353151E+02 -0.25109678869E+02  0.54367088701E+02  0.40000010312E+02 0.  0.
        -12    1    3    3    0    0  0.86346069859E+01  0.25509353151E+02  0.25109678869E+02  0.36820911299E+02  0.00000000000E+00 0.  1.
         11    1    4    4    0    0  0.66133065976E+01 -0.11008724875E+01 -0.20601832845E+01  0.70137079933E+01  0.51100000000E-03 0. -1.
        -11    1    4    4    0    0  0.83718052181E+01 -0.21651287995E+01 -0.71598363273E+01  0.11226671894E+02  0.51100000000E-03 0.  1.
        -12    1    4    4    0    0 -0.23619718802E+02 -0.22243351864E+02 -0.15889659257E+02  0.36126708814E+02  0.00000000000E+00 0.  1.
</event>
<event>
 8    1  0.1212194E-006  0.9118800E+02  0.7816164E-02  0.1184000E+00
        -11   -1    0    0    0    0  0.00000000000E+00  0.00000000000E+00  0.45593999997E+02  0.45594000000E+02  0.51100000000E-03 0.  1.
         11   -1    0    0    0    0 -0.00000000000E+00 -0.00000000000E+00 -0.45593999997E+02  0.45594000000E+02  0.51100000000E-03 0. -1.
         23    2    1    2    0    0  0.00000000000E+00  0.71054273576E-14 -0.88817841970E-15  0.91188000000E+02  0.91188000000E+02 0.  0.
    9900012    2    3    3    0    0 -0.12733314286E+02 -0.34482213949E+02  0.21493010809E+01  0.54367083843E+02  0.39999999236E+02 0.  0.
        -12    1    3    3    0    0  0.12733314286E+02  0.34482213949E+02 -0.21493010809E+01  0.36820916157E+02  0.00000000000E+00 0.  1.
         11    1    4    4    0    0  0.68632884551E+01 -0.12882076999E+02 -0.31939021425E+01  0.14941674852E+02  0.51100000000E-03 0. -1.
        -11    1    4    4    0    0 -0.12356579774E+02 -0.12539594961E+02  0.15915117060E+02  0.23732202949E+02  0.51100000000E-03 0.  1.
         12    1    4    4    0    0 -0.72400229675E+01 -0.90605419890E+01 -0.10571913837E+02  0.15693206042E+02  0.00000000000E+00 0. -1.
</event>
<event>
 8    1  0.1212194E-006  0.9118800E+02  0.7816164E-02  0.1184000E+00
        -11   -1    0    0    0    0  0.00000000000E+00  0.00000000000E+00  0.45593999997E+02  0.45594000000E+02  0.51100000000E-03 0.  1.
         11   -1    0    0    0    0 -0.00000000000E+00 -0.00000000000E+00 -0.45593999997E+02  0.45594000000E+02  0.51100000000E-03 0. -1.
         23    2    1    2    0    0  0.00000000000E+00  0.00000000000E+00  0.88817841970E-15  0.91188000000E+02  0.91188000000E+02 0.  0.
    9900012    2    3    3    0    0 -0.73848127178E+01 -0.35645377307E+02 -0.55364238470E+01  0.54367076991E+02  0.39999983617E+02 0.  0.
        -12    1    3    3    0    0  0.73848127178E+01  0.35645377307E+02  0.55364238470E+01  0.36820923009E+02  0.00000000000E+00 0.  1.
         11    1    4    4    0    0 -0.12518176267E+02 -0.14450776705E+02  0.36145201315E+01  0.19457503449E+02  0.51100000000E-03 0. -1.
        -11    1    4    4    0    0 -0.22951063589E+01 -0.10318380867E+02  0.80202350325E+01  0.13268785444E+02  0.51100000000E-03 0.  1.
        -12    1    4    4    0    0  0.74284699079E+01 -0.10876219734E+02 -0.17171179011E+02  0.21640788098E+02  0.00000000000E+00 0.  1.
</event>
<event>
 8    1  0.1212194E-006  0.9118800E+02  0.7816164E-02  0.1184000E+00
        -11   -1    0    0    0    0  0.00000000000E+00  0.00000000000E+00  0.45593999997E+02  0.45594000000E+02  0.51100000000E-03 0. -1.
         11   -1    0    0    0    0 -0.00000000000E+00 -0.00000000000E+00 -0.45593999997E+02  0.45594000000E+02  0.51100000000E-03 0.  1.
         23    2    1    2    0    0  0.00000000000E+00  0.00000000000E+00  0.44408920985E-15  0.91188000000E+02  0.91188000000E+02 0.  0.
    9900012    2    3    3    0    0  0.17742057019E+02 -0.32211202467E+02  0.18540630561E+01  0.54367086086E+02  0.40000004350E+02 0.  0.
        -12    1    3    3    0    0 -0.17742057019E+02  0.32211202467E+02 -0.18540630561E+01  0.36820913914E+02  0.00000000000E+00 0.  1.
         11    1    4    4    0    0 -0.25175228507E+01 -0.14851415063E+01  0.48673228672E+01  0.56775345664E+01  0.51100000000E-03 0. -1.
        -11    1    4    4    0    0  0.13214038022E+02 -0.36473019335E+02  0.87037887683E+00  0.38802699647E+02  0.51100000000E-03 0.  1.
        -12    1    4    4    0    0  0.70455418484E+01  0.57469583740E+01 -0.38836386880E+01  0.98868518725E+01  0.00000000000E+00 0.  1.
</event>
<event>
 8    1  0.1212194E-006  0.9118800E+02  0.7816164E-02  0.1184000E+00
        -11   -1    0    0    0    0  0.00000000000E+00  0.00000000000E+00  0.45593999997E+02  0.45594000000E+02  0.51100000000E-03 0.  1.
         11   -1    0    0    0    0 -0.00000000000E+00 -0.00000000000E+00 -0.45593999997E+02  0.45594000000E+02  0.51100000000E-03 0. -1.
         23    2    1    2    0    0  0.00000000000E+00  0.00000000000E+00  0.00000000000E+00  0.91188000000E+02  0.91188000000E+02 0.  0.
    9900012    2    3    3    0    0 -0.17114057389E+02 -0.10150069228E+02  0.30981687093E+02  0.54367084738E+02  0.40000001276E+02 0.  0.
         12    1    3    3    0    0  0.17114057389E+02  0.10150069228E+02 -0.30981687093E+02  0.36820915262E+02  0.00000000000E+00 0. -1.
         11    1    4    4    0    0 -0.75485224784E+01 -0.12728425371E+02 -0.16055919211E+01  0.14885258805E+02  0.51100000000E-03 0. -1.
        -11    1    4    4    0    0 -0.19015039663E+01  0.23902703978E+01  0.31605654483E+02  0.31752897592E+02  0.51100000000E-03 0.  1.
        -12    1    4    4    0    0 -0.76640309446E+01  0.18808574527E+00  0.98162453027E+00  0.77289283401E+01  0.00000000000E+00 0.  1.
</event>
<event>
 8    1  0.1212194E-006  0.9118800E+02  0.7816164E-02  0.1184000E+00
        -11   -1    0    0    0    0  0.00000000000E+00  0.00000000000E+00  0.45593999997E+02  0.45594000000E+02  0.51100000000E-03 0.  1.
         11   -1    0    0    0    0 -0.00000000000E+00 -0.00000000000E+00 -0.45593999997E+02  0.45594000000E+02  0.51100000000E-03 0. -1.
         23    2    1    2    0    0  0.00000000000E+00 -0.70082828429E-15 -0.44408920985E-15  0.91188000000E+02  0.91188000000E+02 0.  0.
    9900012    2    3    3    0    0  0.36812028382E+02 -0.57795969584E-01 -0.80633935175E+00  0.54367096194E+02  0.40000027393E+02 0.  0.
        -12    1    3    3    0    0 -0.36812028382E+02  0.57795969584E-01  0.80633935175E+00  0.36820903806E+02  0.00000000000E+00 0.  1.
         11    1    4    4    0    0  0.18778457061E+02  0.13004788859E+02 -0.57649520304E+01  0.23558218418E+02  0.51100000000E-03 0. -1.
        -11    1    4    4    0    0  0.20330141460E+02 -0.10085773310E+02 -0.21205125050E+01  0.22793289552E+02  0.51100000000E-03 0.  1.
        -12    1    4    4    0    0 -0.22965701390E+01 -0.29768115180E+01  0.70791251837E+01  0.80155882244E+01  0.00000000000E+00 0.  1.
</event>
<event>
 8    1  0.1212194E-006  0.9118800E+02  0.7816164E-02  0.1184000E+00
        -11   -1    0    0    0    0  0.00000000000E+00  0.00000000000E+00  0.45593999997E+02  0.45594000000E+02  0.51100000000E-03 0. -1.
         11   -1    0    0    0    0 -0.00000000000E+00 -0.00000000000E+00 -0.45593999997E+02  0.45594000000E+02  0.51100000000E-03 0.  1.
         23    2    1    2    0    0 -0.17763568394E-14  0.00000000000E+00  0.00000000000E+00  0.91188000000E+02  0.91188000000E+02 0.  0.
    9900012    2    3    3    0    0 -0.26741787873E+01  0.33442249587E+02  0.15173780868E+02  0.54367096759E+02  0.40000028682E+02 0.  0.
        -12    1    3    3    0    0  0.26741787873E+01 -0.33442249587E+02 -0.15173780868E+02  0.36820903241E+02  0.00000000000E+00 0.  1.
         11    1    4    4    0    0 -0.12254051750E+02  0.37457833299E+02  0.11645892370E+02  0.41095959280E+02  0.51100000000E-03 0. -1.
        -11    1    4    4    0    0  0.13537100012E+01 -0.42707537474E+01  0.19732797907E+01  0.48954776817E+01  0.51100000000E-03 0.  1.
         12    1    4    4    0    0  0.82261629618E+01  0.25517003520E+00  0.15546087073E+01  0.83756597981E+01  0.00000000000E+00 0. -1.
</event>
<event>
 8    1  0.1212194E-006  0.9118800E+02  0.7816164E-02  0.1184000E+00
        -11   -1    0    0    0    0  0.00000000000E+00  0.00000000000E+00  0.45593999997E+02  0.45594000000E+02  0.51100000000E-03 0.  1.
         11   -1    0    0    0    0 -0.00000000000E+00 -0.00000000000E+00 -0.45593999997E+02  0.45594000000E+02  0.51100000000E-03 0. -1.
         23    2    1    2    0    0  0.00000000000E+00 -0.71054273576E-14 -0.88817841970E-15  0.91188000000E+02  0.91188000000E+02 0.  0.
    9900012    2    3    3    0    0  0.16115318791E+02  0.32894546544E+02  0.37448099747E+01  0.54367105201E+02  0.40000047926E+02 0.  0.
         12    1    3    3    0    0 -0.16115318791E+02 -0.32894546544E+02 -0.37448099747E+01  0.36820894799E+02  0.00000000000E+00 0. -1.
         11    1    4    4    0    0  0.11746244340E+02  0.15493147780E+02 -0.31983383116E+01  0.19703838520E+02  0.51100000000E-03 0. -1.
        -11    1    4    4    0    0  0.93154484819E+01  0.98386440685E+01 -0.90500896419E+01  0.16293576044E+02  0.51100000000E-03 0.  1.
        -12    1    4    4    0    0 -0.49463740309E+01  0.75627546959E+01  0.15993237928E+02  0.18369690636E+02  0.00000000000E+00 0.  1.
</event>
<event>
 8    1  0.1212194E-006  0.9118800E+02  0.7816164E-02  0.1184000E+00
        -11   -1    0    0    0    0  0.00000000000E+00  0.00000000000E+00  0.45593999997E+02  0.45594000000E+02  0.51100000000E-03 0. -1.
         11   -1    0    0    0    0 -0.00000000000E+00 -0.00000000000E+00 -0.45593999997E+02  0.45594000000E+02  0.51100000000E-03 0.  1.
         23    2    1    2    0    0 -0.17763568394E-14 -0.17763568394E-14  0.00000000000E+00  0.91188000000E+02  0.91188000000E+02 0.  0.
    9900012    2    3    3    0    0  0.11791114567E+02  0.93216137107E+01  0.33613348843E+02  0.54367080873E+02  0.39999992467E+02 0.  0.
        -12    1    3    3    0    0 -0.11791114567E+02 -0.93216137107E+01 -0.33613348843E+02  0.36820919127E+02  0.00000000000E+00 0.  1.
         11    1    4    4    0    0  0.13268146230E+02 -0.40197403920E+01  0.21414511058E+02  0.25510454745E+02  0.51100000000E-03 0. -1.
        -11    1    4    4    0    0 -0.83124726784E+01  0.49062543170E+01  0.14821428493E+02  0.17687376185E+02  0.51100000000E-03 0.  1.
        -12    1    4    4    0    0  0.68354410156E+01  0.84350997857E+01 -0.26225907089E+01  0.11169249943E+02  0.00000000000E+00 0.  1.
</event>
<event>
 8    1  0.1212194E-006  0.9118800E+02  0.7816164E-02  0.1184000E+00
        -11   -1    0    0    0    0  0.00000000000E+00  0.00000000000E+00  0.45593999997E+02  0.45594000000E+02  0.51100000000E-03 0.  1.
         11   -1    0    0    0    0 -0.00000000000E+00 -0.00000000000E+00 -0.45593999997E+02  0.45594000000E+02  0.51100000000E-03 0. -1.
         23    2    1    2    0    0 -0.22204460493E-15  0.00000000000E+00  0.35527136788E-14  0.91188000000E+02  0.91188000000E+02 0.  0.
    9900012    2    3    3    0    0 -0.16719994960E+01 -0.33300607045E+02  0.15621950343E+02  0.54367199569E+02  0.40000263056E+02 0.  0.
         12    1    3    3    0    0  0.16719994960E+01  0.33300607045E+02 -0.15621950343E+02  0.36820800431E+02  0.00000000000E+00 0. -1.
         11    1    4    4    0    0 -0.22148596854E+01  0.40814666828E+01 -0.38251599847E+01  0.60162964420E+01  0.51100000000E-03 0. -1.
        -11    1    4    4    0    0 -0.79286074442E+01 -0.30217857517E+02  0.20246106779E+02  0.37227497483E+02  0.51100000000E-03 0.  1.
        -12    1    4    4    0    0  0.84714676336E+01 -0.71642162112E+01 -0.79899645071E+00  0.11123405644E+02  0.00000000000E+00 0.  1.
</event>
<event>
 8    1  0.1212194E-006  0.9118800E+02  0.7816164E-02  0.1184000E+00
        -11   -1    0    0    0    0  0.00000000000E+00  0.00000000000E+00  0.45593999997E+02  0.45594000000E+02  0.51100000000E-03 0.  1.
         11   -1    0    0    0    0 -0.00000000000E+00 -0.00000000000E+00 -0.45593999997E+02  0.45594000000E+02  0.51100000000E-03 0. -1.
         23    2    1    2    0    0 -0.17763568394E-14  0.00000000000E+00  0.00000000000E+00  0.91188000000E+02  0.91188000000E+02 0.  0.
    9900012    2    3    3    0    0  0.97445662615E+01 -0.98246000623E+01 -0.34121842468E+02  0.54367089210E+02  0.40000011471E+02 0.  0.
        -12    1    3    3    0    0 -0.97445662615E+01  0.98246000623E+01  0.34121842468E+02  0.36820910790E+02  0.00000000000E+00 0.  1.
         11    1    4    4    0    0  0.12962895497E+02 -0.81931620991E+01 -0.89918561844E+01  0.17776896319E+02  0.51100000000E-03 0. -1.
        -11    1    4    4    0    0 -0.12739861086E+02 -0.22843336280E+01 -0.23611453151E+02  0.26926250403E+02  0.51100000000E-03 0.  1.
        -12    1    4    4    0    0  0.95215318504E+01  0.65289566478E+00 -0.15185331331E+01  0.96639424876E+01  0.00000000000E+00 0.  1.
</event>
<event>
 8    1  0.1212194E-006  0.9118800E+02  0.7816164E-02  0.1184000E+00
        -11   -1    0    0    0    0  0.00000000000E+00  0.00000000000E+00  0.45593999997E+02  0.45594000000E+02  0.51100000000E-03 0.  1.
         11   -1    0    0    0    0 -0.00000000000E+00 -0.00000000000E+00 -0.45593999997E+02  0.45594000000E+02  0.51100000000E-03 0. -1.
         23    2    1    2    0    0  0.00000000000E+00 -0.35527136788E-14  0.35527136788E-14  0.91188000000E+02  0.91188000000E+02 0.  0.
    9900012    2    3    3    0    0  0.19671940792E+02  0.24096367584E+02 -0.19701748010E+02  0.54367094798E+02  0.40000024210E+02 0.  0.
        -12    1    3    3    0    0 -0.19671940792E+02 -0.24096367584E+02  0.19701748010E+02  0.36820905202E+02  0.00000000000E+00 0.  1.
         11    1    4    4    0    0  0.20698049995E+02  0.12294832653E+02 -0.43663858136E+01  0.24467069888E+02  0.51100000000E-03 0. -1.
        -11    1    4    4    0    0 -0.41665489759E+01  0.14433596696E+02 -0.10735597753E+01  0.15061254091E+02  0.51100000000E-03 0.  1.
        -12    1    4    4    0    0  0.31404397727E+01 -0.26320617647E+01 -0.14261802421E+02  0.14838770818E+02  0.00000000000E+00 0.  1.
</event>
<event>
 8    1  0.1212194E-006  0.9118800E+02  0.7816164E-02  0.1184000E+00
        -11   -1    0    0    0    0  0.00000000000E+00  0.00000000000E+00  0.45593999997E+02  0.45594000000E+02  0.51100000000E-03 0. -1.
         11   -1    0    0    0    0 -0.00000000000E+00 -0.00000000000E+00 -0.45593999997E+02  0.45594000000E+02  0.51100000000E-03 0.  1.
         23    2    1    2    0    0  0.22204460493E-15  0.26645352591E-14 -0.71054273576E-14  0.91188000000E+02  0.91188000000E+02 0.  0.
    9900012    2    3    3    0    0  0.11210695667E+01  0.71439757172E+01 -0.36103839339E+02  0.54367076586E+02  0.39999982694E+02 0.  0.
         12    1    3    3    0    0 -0.11210695667E+01 -0.71439757172E+01  0.36103839339E+02  0.36820923414E+02  0.00000000000E+00 0. -1.
         11    1    4    4    0    0 -0.34498053100E+00  0.15803232294E+02 -0.89186042117E+01  0.18149453541E+02  0.51100000000E-03 0. -1.
        -11    1    4    4    0    0 -0.51053770045E+01 -0.14329847694E+02 -0.18287975002E+02  0.23787800218E+02  0.51100000000E-03 0.  1.
        -12    1    4    4    0    0  0.65714271022E+01  0.56705911168E+01 -0.88972601255E+01  0.12429822827E+02  0.00000000000E+00 0.  1.
</event>
<event>
 8    1  0.1212194E-006  0.9118800E+02  0.7816164E-02  0.1184000E+00
        -11   -1    0    0    0    0  0.00000000000E+00  0.00000000000E+00  0.45593999997E+02  0.45594000000E+02  0.51100000000E-03 0. -1.
         11   -1    0    0    0    0 -0.00000000000E+00 -0.00000000000E+00 -0.45593999997E+02  0.45594000000E+02  0.51100000000E-03 0.  1.
         23    2    1    2    0    0 -0.52735593670E-15  0.17763568394E-14  0.00000000000E+00  0.91188000000E+02  0.91188000000E+02 0.  0.
    9900012    2    3    3    0    0  0.96322338264E-01 -0.14341497272E+02 -0.33913018742E+02  0.54367073040E+02  0.39999974609E+02 0.  0.
         12    1    3    3    0    0 -0.96322338264E-01  0.14341497272E+02  0.33913018742E+02  0.36820926960E+02  0.00000000000E+00 0. -1.
         11    1    4    4    0    0 -0.59602813436E+01  0.43198481025E+01 -0.61380989386E+01  0.95844822586E+01  0.51100000000E-03 0. -1.
        -11    1    4    4    0    0  0.74297814918E+01 -0.24834718703E+01  0.42241463473E+01  0.89001515814E+01  0.51100000000E-03 0.  1.
        -12    1    4    4    0    0 -0.13731778100E+01 -0.16177873504E+02 -0.31999066151E+02  0.35882439200E+02  0.00000000000E+00 0.  1.
</event>
<event>
 8    1  0.1212194E-006  0.9118800E+02  0.7816164E-02  0.1184000E+00
        -11   -1    0    0    0    0  0.00000000000E+00  0.00000000000E+00  0.45593999997E+02  0.45594000000E+02  0.51100000000E-03 0. -1.
         11   -1    0    0    0    0 -0.00000000000E+00 -0.00000000000E+00 -0.45593999997E+02  0.45594000000E+02  0.51100000000E-03 0.  1.
         23    2    1    2    0    0  0.15543122345E-14  0.00000000000E+00  0.00000000000E+00  0.91188000000E+02  0.91188000000E+02 0.  0.
    9900012    2    3    3    0    0  0.12499436123E+01 -0.18382577304E+02  0.31879460167E+02  0.54367061828E+02  0.39999949049E+02 0.  0.
        -12    1    3    3    0    0 -0.12499436123E+01  0.18382577304E+02 -0.31879460167E+02  0.36820938172E+02  0.00000000000E+00 0.  1.
         11    1    4    4    0    0 -0.50239849465E+01  0.36148910302E+01 -0.26234688780E+01  0.67223843328E+01  0.51100000000E-03 0.  1.
        -11    1    4    4    0    0  0.13193728467E+02 -0.45374665072E+01  0.16764837699E+02  0.21811071879E+02  0.51100000000E-03 0. -1.
        -12    1    4    4    0    0 -0.69197999085E+01 -0.17460001827E+02  0.17738091346E+02  0.25833605616E+02  0.00000000000E+00 0.  1.
</event>
<event>
 8    1  0.1212194E-006  0.9118800E+02  0.7816164E-02  0.1184000E+00
        -11   -1    0    0    0    0  0.00000000000E+00  0.00000000000E+00  0.45593999997E+02  0.45594000000E+02  0.51100000000E-03 0.  1.
         11   -1    0    0    0    0 -0.00000000000E+00 -0.00000000000E+00 -0.45593999997E+02  0.45594000000E+02  0.51100000000E-03 0. -1.
         23    2    1    2    0    0  0.00000000000E+00 -0.17763568394E-14  0.88817841970E-15  0.91188000000E+02  0.91188000000E+02 0.  0.
    9900012    2    3    3    0    0  0.35593231516E+02  0.84882787055E+01  0.41039545599E+01  0.54367198159E+02  0.40000259843E+02 0.  0.
         12    1    3    3    0    0 -0.35593231516E+02 -0.84882787055E+01 -0.41039545599E+01  0.36820801841E+02  0.00000000000E+00 0. -1.
         11    1    4    4    0    0  0.22471610400E+01  0.13320569499E+02  0.13771564322E+02  0.19291015749E+02  0.51100000000E-03 0. -1.
        -11    1    4    4    0    0  0.28784490569E+02 -0.41587758887E+01 -0.78924272068E+01  0.30135240528E+02  0.51100000000E-03 0.  1.
         12    1    4    4    0    0  0.45615799077E+01 -0.67351490462E+00 -0.17751825549E+01  0.49409418823E+01  0.00000000000E+00 0. -1.
</event>
<event>
 8    1  0.1212194E-006  0.9118800E+02  0.7816164E-02  0.1184000E+00
        -11   -1    0    0    0    0  0.00000000000E+00  0.00000000000E+00  0.45593999997E+02  0.45594000000E+02  0.51100000000E-03 0.  1.
         11   -1    0    0    0    0 -0.00000000000E+00 -0.00000000000E+00 -0.45593999997E+02  0.45594000000E+02  0.51100000000E-03 0. -1.
         23    2    1    2    0    0  0.55858095926E-15  0.00000000000E+00  0.00000000000E+00  0.91188000000E+02  0.91188000000E+02 0.  0.
    9900012    2    3    3    0    0 -0.11023532942E-01 -0.28240144118E+02  0.23627832749E+02  0.54367077391E+02  0.39999984529E+02 0.  0.
         12    1    3    3    0    0  0.11023532942E-01  0.28240144118E+02 -0.23627832749E+02  0.36820922609E+02  0.00000000000E+00 0. -1.
         11    1    4    4    0    0  0.10835042692E+02 -0.10282753449E+02  0.12373038187E+01  0.14988798805E+02  0.51100000000E-03 0. -1.
        -11    1    4    4    0    0  0.65924006167E+01 -0.12056856959E+02  0.72169838593E+01  0.15521353095E+02  0.51100000000E-03 0.  1.
         12    1    4    4    0    0 -0.17438466841E+02 -0.59005337109E+01  0.15173545071E+02  0.23856925491E+02  0.00000000000E+00 0. -1.
</event>
<event>
 8    1  0.1212194E-006  0.9118800E+02  0.7816164E-02  0.1184000E+00
        -11   -1    0    0    0    0  0.00000000000E+00  0.00000000000E+00  0.45593999997E+02  0.45594000000E+02  0.51100000000E-03 0.  1.
         11   -1    0    0    0    0 -0.00000000000E+00 -0.00000000000E+00 -0.45593999997E+02  0.45594000000E+02  0.51100000000E-03 0. -1.
         23    2    1    2    0    0  0.00000000000E+00  0.00000000000E+00 -0.17763568394E-14  0.91188000000E+02  0.91188000000E+02 0.  0.
    9900012    2    3    3    0    0 -0.16277316234E+02 -0.32270250275E+02  0.70327756388E+01  0.54367081900E+02  0.39999994806E+02 0.  0.
         12    1    3    3    0    0  0.16277316234E+02  0.32270250275E+02 -0.70327756388E+01  0.36820918100E+02  0.00000000000E+00 0. -1.
         11    1    4    4    0    0  0.46183290335E+01 -0.14909030325E+02  0.14074365959E+02  0.21016563128E+02  0.51100000000E-03 0.  1.
        -11    1    4    4    0    0 -0.38508297278E+01  0.25999290647E+01  0.26751658978E+01  0.53614395060E+01  0.51100000000E-03 0. -1.
        -12    1    4    4    0    0 -0.17044815540E+02 -0.19961149015E+02 -0.97167562178E+01  0.27989079266E+02  0.00000000000E+00 0.  1.
</event>
<event>
 8    1  0.1212194E-006  0.9118800E+02  0.7816164E-02  0.1184000E+00
        -11   -1    0    0    0    0  0.00000000000E+00  0.00000000000E+00  0.45593999997E+02  0.45594000000E+02  0.51100000000E-03 0. -1.
         11   -1    0    0    0    0 -0.00000000000E+00 -0.00000000000E+00 -0.45593999997E+02  0.45594000000E+02  0.51100000000E-03 0.  1.
         23    2    1    2    0    0  0.17763568394E-14  0.35527136788E-14  0.00000000000E+00  0.91188000000E+02  0.91188000000E+02 0.  0.
    9900012    2    3    3    0    0  0.89324905320E+01  0.12535225530E+02 -0.33449359671E+02  0.54367069422E+02  0.39999966362E+02 0.  0.
         12    1    3    3    0    0 -0.89324905320E+01 -0.12535225530E+02  0.33449359671E+02  0.36820930578E+02  0.00000000000E+00 0. -1.
         11    1    4    4    0    0 -0.26514324251E+01  0.15862890180E+02 -0.16774874933E+01  0.16170199235E+02  0.51100000000E-03 0. -1.
        -11    1    4    4    0    0  0.48979132622E+01 -0.67471878873E+01 -0.29027904154E+02  0.30201544970E+02  0.51100000000E-03 0.  1.
        -12    1    4    4    0    0  0.66860096949E+01  0.34195232378E+01 -0.27439680239E+01  0.79953252173E+01  0.00000000000E+00 0.  1.
</event>
<event>
 8    1  0.1212194E-006  0.9118800E+02  0.7816164E-02  0.1184000E+00
        -11   -1    0    0    0    0  0.00000000000E+00  0.00000000000E+00  0.45593999997E+02  0.45594000000E+02  0.51100000000E-03 0. -1.
         11   -1    0    0    0    0 -0.00000000000E+00 -0.00000000000E+00 -0.45593999997E+02  0.45594000000E+02  0.51100000000E-03 0.  1.
         23    2    1    2    0    0  0.17763568394E-14  0.71054273576E-14 -0.17763568394E-14  0.91188000000E+02  0.91188000000E+02 0.  0.
    9900012    2    3    3    0    0 -0.10072788667E+02 -0.34312919408E+02  0.87717095818E+01  0.54367076617E+02  0.39999982763E+02 0.  0.
        -12    1    3    3    0    0  0.10072788667E+02  0.34312919408E+02 -0.87717095818E+01  0.36820923383E+02  0.00000000000E+00 0.  1.
         11    1    4    4    0    0 -0.66264847008E+01 -0.43535200949E+01  0.43050399948E+01  0.90220178633E+01  0.51100000000E-03 0.  1.
        -11    1    4    4    0    0 -0.25762518518E+01 -0.20818523400E+02  0.18901826555E+02  0.28236979965E+02  0.51100000000E-03 0. -1.
         12    1    4    4    0    0 -0.87005211479E+00 -0.91408759127E+01 -0.14435156968E+02  0.17108078788E+02  0.00000000000E+00 0. -1.
</event>
<event>
 8    1  0.1212194E-006  0.9118800E+02  0.7816164E-02  0.1184000E+00
        -11   -1    0    0    0    0  0.00000000000E+00  0.00000000000E+00  0.45593999997E+02  0.45594000000E+02  0.51100000000E-03 0.  1.
         11   -1    0    0    0    0 -0.00000000000E+00 -0.00000000000E+00 -0.45593999997E+02  0.45594000000E+02  0.51100000000E-03 0. -1.
         23    2    1    2    0    0  0.00000000000E+00  0.00000000000E+00 -0.17763568394E-14  0.91188000000E+02  0.91188000000E+02 0.  0.
    9900012    2    3    3    0    0 -0.65850745600E+01 -0.35208056553E+02 -0.85328503579E+01  0.54367082190E+02  0.39999995468E+02 0.  0.
         12    1    3    3    0    0  0.65850745600E+01  0.35208056553E+02  0.85328503579E+01  0.36820917810E+02  0.00000000000E+00 0. -1.
         11    1    4    4    0    0 -0.12151014942E+02  0.80399147411E+00 -0.64294345059E+01  0.13770664281E+02  0.51100000000E-03 0. -1.
        -11    1    4    4    0    0  0.36358457590E+01 -0.70123606138E+01  0.65612072377E+01  0.10268496309E+02  0.51100000000E-03 0.  1.
         12    1    4    4    0    0  0.19300946231E+01 -0.28999687413E+02 -0.86646230897E+01  0.30327921600E+02  0.00000000000E+00 0. -1.
</event>
<event>
 8    1  0.1212194E-006  0.9118800E+02  0.7816164E-02  0.1184000E+00
        -11   -1    0    0    0    0  0.00000000000E+00  0.00000000000E+00  0.45593999997E+02  0.45594000000E+02  0.51100000000E-03 0.  1.
         11   -1    0    0    0    0 -0.00000000000E+00 -0.00000000000E+00 -0.45593999997E+02  0.45594000000E+02  0.51100000000E-03 0. -1.
         23    2    1    2    0    0 -0.17763568394E-14 -0.35527136788E-14  0.00000000000E+00  0.91188000000E+02  0.91188000000E+02 0.  0.
    9900012    2    3    3    0    0  0.91129950322E+01  0.29493438689E+02  0.20071479573E+02  0.54367164914E+02  0.40000184055E+02 0.  0.
         12    1    3    3    0    0 -0.91129950322E+01 -0.29493438689E+02 -0.20071479573E+02  0.36820835086E+02  0.00000000000E+00 0. -1.
         11    1    4    4    0    0 -0.16377507776E+01  0.71314419970E+01 -0.24258624046E+01  0.77087288987E+01  0.51100000000E-03 0. -1.
        -11    1    4    4    0    0  0.57986822869E+01  0.18192488631E+02 -0.38918053699E+01  0.19486854752E+02  0.51100000000E-03 0.  1.
         12    1    4    4    0    0  0.49520635229E+01  0.41695080608E+01  0.26389147348E+02  0.27171581263E+02  0.00000000000E+00 0. -1.
</event>
<event>
 8    1  0.1212194E-006  0.9118800E+02  0.7816164E-02  0.1184000E+00
        -11   -1    0    0    0    0  0.00000000000E+00  0.00000000000E+00  0.45593999997E+02  0.45594000000E+02  0.51100000000E-03 0.  1.
         11   -1    0    0    0    0 -0.00000000000E+00 -0.00000000000E+00 -0.45593999997E+02  0.45594000000E+02  0.51100000000E-03 0. -1.
         23    2    1    2    0    0  0.71054273576E-14  0.00000000000E+00  0.17763568394E-14  0.91188000000E+02  0.91188000000E+02 0.  0.
    9900012    2    3    3    0    0 -0.32852099647E+02 -0.11774683314E+02 -0.11742074665E+02  0.54367082904E+02  0.39999997096E+02 0.  0.
        -12    1    3    3    0    0  0.32852099647E+02  0.11774683314E+02  0.11742074665E+02  0.36820917096E+02  0.00000000000E+00 0.  1.
         11    1    4    4    0    0 -0.34553939258E+02 -0.96291041574E+01 -0.13069393894E+02  0.38177263157E+02  0.51100000000E-03 0. -1.
        -11    1    4    4    0    0 -0.56230471433E+01 -0.45271209962E+01 -0.24338813669E+01  0.76182191134E+01  0.51100000000E-03 0.  1.
        -12    1    4    4    0    0  0.73248867547E+01  0.23815418400E+01  0.37612005954E+01  0.85716006336E+01  0.00000000000E+00 0.  1.
</event>
<event>
 8    1  0.1212194E-006  0.9118800E+02  0.7816164E-02  0.1184000E+00
        -11   -1    0    0    0    0  0.00000000000E+00  0.00000000000E+00  0.45593999997E+02  0.45594000000E+02  0.51100000000E-03 0. -1.
         11   -1    0    0    0    0 -0.00000000000E+00 -0.00000000000E+00 -0.45593999997E+02  0.45594000000E+02  0.51100000000E-03 0.  1.
         23    2    1    2    0    0  0.35527136788E-14 -0.17763568394E-14  0.00000000000E+00  0.91188000000E+02  0.91188000000E+02 0.  0.
    9900012    2    3    3    0    0  0.31834286903E+02  0.11612196585E+02 -0.14405372617E+02  0.54367086210E+02  0.40000004632E+02 0.  0.
         12    1    3    3    0    0 -0.31834286903E+02 -0.11612196585E+02  0.14405372617E+02  0.36820913790E+02  0.00000000000E+00 0. -1.
         11    1    4    4    0    0  0.23558015723E+01  0.99026678823E+01  0.88671231594E+01  0.13499574276E+02  0.51100000000E-03 0. -1.
        -11    1    4    4    0    0 -0.14219313120E+00 -0.47008373775E+00 -0.69689529668E+01  0.69862367067E+01  0.51100000000E-03 0.  1.
        -12    1    4    4    0    0  0.29620678462E+02  0.21796124404E+01 -0.16303542809E+02  0.33881275228E+02  0.00000000000E+00 0.  1.
</event>
<event>
 8    1  0.1212194E-006  0.9118800E+02  0.7816164E-02  0.1184000E+00
        -11   -1    0    0    0    0  0.00000000000E+00  0.00000000000E+00  0.45593999997E+02  0.45594000000E+02  0.51100000000E-03 0. -1.
         11   -1    0    0    0    0 -0.00000000000E+00 -0.00000000000E+00 -0.45593999997E+02  0.45594000000E+02  0.51100000000E-03 0.  1.
         23    2    1    2    0    0  0.00000000000E+00  0.00000000000E+00 -0.88817841970E-15  0.91188000000E+02  0.91188000000E+02 0.  0.
    9900012    2    3    3    0    0 -0.28905325907E+02  0.22294979722E+02  0.48161999813E+01  0.54367085171E+02  0.40000002264E+02 0.  0.
         12    1    3    3    0    0  0.28905325907E+02 -0.22294979722E+02 -0.48161999813E+01  0.36820914829E+02  0.00000000000E+00 0. -1.
         11    1    4    4    0    0 -0.11326675093E+02  0.17711853331E+02 -0.13725611573E+02  0.25107682697E+02  0.51100000000E-03 0. -1.
        -11    1    4    4    0    0  0.12584400963E+01 -0.21521183852E+01  0.11255811502E+01  0.27353643645E+01  0.51100000000E-03 0.  1.
        -12    1    4    4    0    0 -0.18837090910E+02  0.67352447758E+01  0.17416230404E+02  0.26524038110E+02  0.00000000000E+00 0.  1.
</event>
<event>
 8    1  0.1212194E-006  0.9118800E+02  0.7816164E-02  0.1184000E+00
        -11   -1    0    0    0    0  0.00000000000E+00  0.00000000000E+00  0.45593999997E+02  0.45594000000E+02  0.51100000000E-03 0.  1.
         11   -1    0    0    0    0 -0.00000000000E+00 -0.00000000000E+00 -0.45593999997E+02  0.45594000000E+02  0.51100000000E-03 0. -1.
         23    2    1    2    0    0  0.00000000000E+00  0.00000000000E+00  0.71054273576E-14  0.91188000000E+02  0.91188000000E+02 0.  0.
    9900012    2    3    3    0    0  0.16695896837E+02 -0.14361267365E+02 -0.29509001469E+02  0.54367080141E+02  0.39999990798E+02 0.  0.
        -12    1    3    3    0    0 -0.16695896837E+02  0.14361267365E+02  0.29509001469E+02  0.36820919859E+02  0.00000000000E+00 0.  1.
         11    1    4    4    0    0 -0.17777445053E+01  0.13409297015E+01  0.36929407127E+01  0.43123403575E+01  0.51100000000E-03 0. -1.
        -11    1    4    4    0    0  0.59998878101E+01  0.66508270030E+01 -0.11427817959E+01  0.90298451843E+01  0.51100000000E-03 0.  1.
         12    1    4    4    0    0  0.12473753533E+02 -0.22353024070E+02 -0.32059160386E+02  0.41024894599E+02  0.00000000000E+00 0. -1.
</event>
<event>
 8    1  0.1212194E-006  0.9118800E+02  0.7816164E-02  0.1184000E+00
        -11   -1    0    0    0    0  0.00000000000E+00  0.00000000000E+00  0.45593999997E+02  0.45594000000E+02  0.51100000000E-03 0.  1.
         11   -1    0    0    0    0 -0.00000000000E+00 -0.00000000000E+00 -0.45593999997E+02  0.45594000000E+02  0.51100000000E-03 0. -1.
         23    2    1    2    0    0  0.00000000000E+00 -0.71054273576E-14  0.00000000000E+00  0.91188000000E+02  0.91188000000E+02 0.  0.
    9900012    2    3    3    0    0 -0.11890267016E+02 -0.33447741066E+02 -0.97800942250E+01  0.54367081011E+02  0.39999992781E+02 0.  0.
        -12    1    3    3    0    0  0.11890267016E+02  0.33447741066E+02  0.97800942250E+01  0.36820918989E+02  0.00000000000E+00 0.  1.
         11    1    4    4    0    0 -0.69522687519E+01 -0.30644318472E+02 -0.11020891910E+02  0.33299674986E+02  0.51100000000E-03 0. -1.
        -11    1    4    4    0    0 -0.61024726251E+01 -0.43131450748E-01  0.10052760208E+02  0.11760102913E+02  0.51100000000E-03 0.  1.
         12    1    4    4    0    0  0.11644743606E+01 -0.27602911438E+01 -0.88119625224E+01  0.93073031127E+01  0.00000000000E+00 0. -1.
</event>
<event>
 8    1  0.1212194E-006  0.9118800E+02  0.7816164E-02  0.1184000E+00
        -11   -1    0    0    0    0  0.00000000000E+00  0.00000000000E+00  0.45593999997E+02  0.45594000000E+02  0.51100000000E-03 0.  1.
         11   -1    0    0    0    0 -0.00000000000E+00 -0.00000000000E+00 -0.45593999997E+02  0.45594000000E+02  0.51100000000E-03 0. -1.
         23    2    1    2    0    0  0.00000000000E+00  0.17763568394E-14 -0.35527136788E-14  0.91188000000E+02  0.91188000000E+02 0.  0.
    9900012    2    3    3    0    0  0.22834934488E+02  0.12560344517E+02 -0.26011201631E+02  0.54367094284E+02  0.40000023039E+02 0.  0.
        -12    1    3    3    0    0 -0.22834934488E+02 -0.12560344517E+02  0.26011201631E+02  0.36820905716E+02  0.00000000000E+00 0.  1.
         11    1    4    4    0    0 -0.10075610249E+02  0.53071690207E+01 -0.46732652185E+01  0.12309483051E+02  0.51100000000E-03 0. -1.
        -11    1    4    4    0    0  0.21961304606E+01  0.36837572918E+01  0.32830538535E+00  0.43012604516E+01  0.51100000000E-03 0.  1.
         12    1    4    4    0    0  0.30714414277E+02  0.35694182048E+01 -0.21666241798E+02  0.37756350782E+02  0.00000000000E+00 0. -1.
</event>
<event>
 8    1  0.1212194E-006  0.9118800E+02  0.7816164E-02  0.1184000E+00
        -11   -1    0    0    0    0  0.00000000000E+00  0.00000000000E+00  0.45593999997E+02  0.45594000000E+02  0.51100000000E-03 0.  1.
         11   -1    0    0    0    0 -0.00000000000E+00 -0.00000000000E+00 -0.45593999997E+02  0.45594000000E+02  0.51100000000E-03 0. -1.
         23    2    1    2    0    0  0.00000000000E+00  0.00000000000E+00  0.17763568394E-14  0.91188000000E+02  0.91188000000E+02 0.  0.
    9900012    2    3    3    0    0  0.33071540749E+02  0.92444664388E+01 -0.13288802010E+02  0.54367092541E+02  0.40000019065E+02 0.  0.
         12    1    3    3    0    0 -0.33071540749E+02 -0.92444664388E+01  0.13288802010E+02  0.36820907459E+02  0.00000000000E+00 0. -1.
         11    1    4    4    0    0  0.15295772017E+02  0.14051401394E+02  0.45241207093E+01  0.21257238559E+02  0.51100000000E-03 0. -1.
        -11    1    4    4    0    0  0.22368600010E+02 -0.30810541565E+01 -0.12236568594E+02  0.25682304654E+02  0.51100000000E-03 0.  1.
         12    1    4    4    0    0 -0.45928312778E+01 -0.17258807984E+01 -0.55763541251E+01  0.74275493270E+01  0.00000000000E+00 0. -1.
</event>
<event>
 8    1  0.1212194E-006  0.9118800E+02  0.7816164E-02  0.1184000E+00
        -11   -1    0    0    0    0  0.00000000000E+00  0.00000000000E+00  0.45593999997E+02  0.45594000000E+02  0.51100000000E-03 0. -1.
         11   -1    0    0    0    0 -0.00000000000E+00 -0.00000000000E+00 -0.45593999997E+02  0.45594000000E+02  0.51100000000E-03 0.  1.
         23    2    1    2    0    0  0.00000000000E+00  0.00000000000E+00  0.17763568394E-14  0.91188000000E+02  0.91188000000E+02 0.  0.
    9900012    2    3    3    0    0  0.24446674457E+02  0.26183869431E+02 -0.85173720013E+01  0.54367074750E+02  0.39999978509E+02 0.  0.
         12    1    3    3    0    0 -0.24446674457E+02 -0.26183869431E+02  0.85173720013E+01  0.36820925250E+02  0.00000000000E+00 0. -1.
         11    1    4    4    0    0  0.10127178208E+02  0.83678145709E+01 -0.67589009830E+01  0.14773719975E+02  0.51100000000E-03 0.  1.
        -11    1    4    4    0    0  0.21856356668E+02  0.82517028955E+01 -0.94384346255E+01  0.25196725500E+02  0.51100000000E-03 0. -1.
         12    1    4    4    0    0 -0.75368604187E+01  0.95643519651E+01  0.76799636072E+01  0.14396629275E+02  0.00000000000E+00 0. -1.
</event>
<event>
 8    1  0.1212194E-006  0.9118800E+02  0.7816164E-02  0.1184000E+00
        -11   -1    0    0    0    0  0.00000000000E+00  0.00000000000E+00  0.45593999997E+02  0.45594000000E+02  0.51100000000E-03 0.  1.
         11   -1    0    0    0    0 -0.00000000000E+00 -0.00000000000E+00 -0.45593999997E+02  0.45594000000E+02  0.51100000000E-03 0. -1.
         23    2    1    2    0    0 -0.15543122345E-14  0.00000000000E+00  0.00000000000E+00  0.91188000000E+02  0.91188000000E+02 0.  0.
    9900012    2    3    3    0    0 -0.18435646229E+01 -0.18430395502E+02 -0.31822875698E+02  0.54367168579E+02  0.40000192409E+02 0.  0.
        -12    1    3    3    0    0  0.18435646229E+01  0.18430395502E+02  0.31822875698E+02  0.36820831421E+02  0.00000000000E+00 0.  1.
         11    1    4    4    0    0  0.62037937531E+01 -0.15487179654E+02 -0.15644511366E+02  0.22871172395E+02  0.51100000000E-03 0. -1.
        -11    1    4    4    0    0  0.24472406414E+01  0.52182367012E+01 -0.17221678014E+02  0.18160538948E+02  0.51100000000E-03 0.  1.
         12    1    4    4    0    0 -0.10494599017E+02 -0.81614525492E+01  0.10433136820E+01  0.13335457236E+02  0.00000000000E+00 0. -1.
</event>
<event>
 8    1  0.1212194E-006  0.9118800E+02  0.7816164E-02  0.1184000E+00
        -11   -1    0    0    0    0  0.00000000000E+00  0.00000000000E+00  0.45593999997E+02  0.45594000000E+02  0.51100000000E-03 0. -1.
         11   -1    0    0    0    0 -0.00000000000E+00 -0.00000000000E+00 -0.45593999997E+02  0.45594000000E+02  0.51100000000E-03 0.  1.
         23    2    1    2    0    0  0.17763568394E-14  0.00000000000E+00  0.44408920985E-15  0.91188000000E+02  0.91188000000E+02 0.  0.
    9900012    2    3    3    0    0 -0.14736298675E+02 -0.33739642891E+02 -0.50823636244E+00  0.54367077887E+02  0.39999985659E+02 0.  0.
         12    1    3    3    0    0  0.14736298675E+02  0.33739642891E+02  0.50823636244E+00  0.36820922113E+02  0.00000000000E+00 0. -1.
         11    1    4    4    0    0 -0.42206415017E+01 -0.13122741320E+02 -0.19603879834E+01  0.13923479297E+02  0.51100000000E-03 0. -1.
        -11    1    4    4    0    0 -0.22298997086E+02 -0.13042091802E+02  0.41899348622E+01  0.26170536564E+02  0.51100000000E-03 0.  1.
         12    1    4    4    0    0  0.11783339913E+02 -0.75748097685E+01 -0.27377832412E+01  0.14273062026E+02  0.00000000000E+00 0. -1.
</event>
<event>
 8    1  0.1212194E-006  0.9118800E+02  0.7816164E-02  0.1184000E+00
        -11   -1    0    0    0    0  0.00000000000E+00  0.00000000000E+00  0.45593999997E+02  0.45594000000E+02  0.51100000000E-03 0. -1.
         11   -1    0    0    0    0 -0.00000000000E+00 -0.00000000000E+00 -0.45593999997E+02  0.45594000000E+02  0.51100000000E-03 0.  1.
         23    2    1    2    0    0  0.00000000000E+00  0.35527136788E-14  0.17763568394E-14  0.91188000000E+02  0.91188000000E+02 0.  0.
    9900012    2    3    3    0    0 -0.22470288750E+02  0.24998396835E+02 -0.15031514300E+02  0.54367080090E+02  0.39999990681E+02 0.  0.
         12    1    3    3    0    0  0.22470288750E+02 -0.24998396835E+02  0.15031514300E+02  0.36820919910E+02  0.00000000000E+00 0. -1.
         11    1    4    4    0    0 -0.57780329782E+00 -0.86114590437E+01 -0.68113735248E+01  0.10994812098E+02  0.51100000000E-03 0. -1.
        -11    1    4    4    0    0 -0.23537782865E+02  0.32047474381E+02 -0.93357581438E+01  0.40843900607E+02  0.51100000000E-03 0.  1.
         12    1    4    4    0    0  0.16452974126E+01  0.15623814980E+01  0.11156173682E+01  0.25283673850E+01  0.00000000000E+00 0. -1.
</event>
<event>
 8    1  0.1212194E-006  0.9118800E+02  0.7816164E-02  0.1184000E+00
        -11   -1    0    0    0    0  0.00000000000E+00  0.00000000000E+00  0.45593999997E+02  0.45594000000E+02  0.51100000000E-03 0.  1.
         11   -1    0    0    0    0 -0.00000000000E+00 -0.00000000000E+00 -0.45593999997E+02  0.45594000000E+02  0.51100000000E-03 0. -1.
         23    2    1    2    0    0  0.00000000000E+00  0.00000000000E+00  0.00000000000E+00  0.91188000000E+02  0.91188000000E+02 0.  0.
    9900012    2    3    3    0    0 -0.19012903193E+02 -0.30819739244E+02  0.66658085198E+01  0.54367084502E+02  0.40000000740E+02 0.  0.
         12    1    3    3    0    0  0.19012903193E+02  0.30819739244E+02 -0.66658085198E+01  0.36820915498E+02  0.00000000000E+00 0. -1.
         11    1    4    4    0    0 -0.11541378583E+02 -0.25571090238E+02  0.79796977100E+01  0.29167784478E+02  0.51100000000E-03 0. -1.
        -11    1    4    4    0    0 -0.50226586687E+01 -0.12279907584E+02 -0.77435391086E+01  0.15361823738E+02  0.51100000000E-03 0.  1.
         12    1    4    4    0    0 -0.24488659413E+01  0.70312585786E+01  0.64296499184E+01  0.98374762857E+01  0.00000000000E+00 0. -1.
</event>
<event>
 8    1  0.1212194E-006  0.9118800E+02  0.7816164E-02  0.1184000E+00
        -11   -1    0    0    0    0  0.00000000000E+00  0.00000000000E+00  0.45593999997E+02  0.45594000000E+02  0.51100000000E-03 0. -1.
         11   -1    0    0    0    0 -0.00000000000E+00 -0.00000000000E+00 -0.45593999997E+02  0.45594000000E+02  0.51100000000E-03 0.  1.
         23    2    1    2    0    0 -0.17763568394E-14 -0.71054273576E-14  0.00000000000E+00  0.91188000000E+02  0.91188000000E+02 0.  0.
    9900012    2    3    3    0    0 -0.98462158111E+01 -0.34110519643E+02 -0.97624086537E+01  0.54367080147E+02  0.39999990810E+02 0.  0.
         12    1    3    3    0    0  0.98462158111E+01  0.34110519643E+02  0.97624086537E+01  0.36820919853E+02  0.00000000000E+00 0. -1.
         11    1    4    4    0    0  0.29712186907E+01  0.19826339677E+01  0.96179991581E+01  0.10259867739E+02  0.51100000000E-03 0. -1.
        -11    1    4    4    0    0 -0.32193158883E+01 -0.13216345834E+02 -0.12220523224E+02  0.18285977691E+02  0.51100000000E-03 0.  1.
         12    1    4    4    0    0 -0.95981186134E+01 -0.22876807777E+02 -0.71598845878E+01  0.25821234716E+02  0.00000000000E+00 0. -1.
</event>
<event>
 8    1  0.1212194E-006  0.9118800E+02  0.7816164E-02  0.1184000E+00
        -11   -1    0    0    0    0  0.00000000000E+00  0.00000000000E+00  0.45593999997E+02  0.45594000000E+02  0.51100000000E-03 0. -1.
         11   -1    0    0    0    0 -0.00000000000E+00 -0.00000000000E+00 -0.45593999997E+02  0.45594000000E+02  0.51100000000E-03 0.  1.
         23    2    1    2    0    0  0.00000000000E+00  0.17763568394E-14  0.00000000000E+00  0.91188000000E+02  0.91188000000E+02 0.  0.
    9900012    2    3    3    0    0  0.44589298592E+01 -0.22572040358E+01  0.36480188266E+02  0.54367066260E+02  0.39999959153E+02 0.  0.
        -12    1    3    3    0    0 -0.44589298592E+01  0.22572040358E+01 -0.36480188266E+02  0.36820933740E+02  0.00000000000E+00 0.  1.
         11    1    4    4    0    0  0.35646803512E+01  0.15737702755E+02  0.15208585541E+02  0.22173933084E+02  0.51100000000E-03 0. -1.
        -11    1    4    4    0    0  0.50108258895E+01  0.15422576869E+00  0.19851683340E+01  0.53919435511E+01  0.51100000000E-03 0.  1.
         12    1    4    4    0    0 -0.41165763816E+01 -0.18149132559E+02  0.19286434391E+02  0.26801189624E+02  0.00000000000E+00 0. -1.
</event>
<event>
 8    1  0.1212194E-006  0.9118800E+02  0.7816164E-02  0.1184000E+00
        -11   -1    0    0    0    0  0.00000000000E+00  0.00000000000E+00  0.45593999997E+02  0.45594000000E+02  0.51100000000E-03 0.  1.
         11   -1    0    0    0    0 -0.00000000000E+00 -0.00000000000E+00 -0.45593999997E+02  0.45594000000E+02  0.51100000000E-03 0. -1.
         23    2    1    2    0    0 -0.35527136788E-14  0.00000000000E+00  0.00000000000E+00  0.91188000000E+02  0.91188000000E+02 0.  0.
    9900012    2    3    3    0    0  0.29523114563E+02  0.49613771097E+01  0.21436849388E+02  0.54367244060E+02  0.40000364481E+02 0.  0.
         12    1    3    3    0    0 -0.29523114563E+02 -0.49613771097E+01 -0.21436849388E+02  0.36820755940E+02  0.00000000000E+00 0. -1.
         11    1    4    4    0    0 -0.13276666123E+01 -0.13836732232E+01  0.24121110406E+01  0.30814818116E+01  0.51100000000E-03 0. -1.
        -11    1    4    4    0    0  0.17368941801E+02  0.19450661748E+02  0.19364499414E+02  0.32480643767E+02  0.51100000000E-03 0.  1.
        -12    1    4    4    0    0  0.13481839375E+02 -0.13105611415E+02 -0.33976106661E+00  0.18805118481E+02  0.00000000000E+00 0.  1.
</event>
<event>
 8    1  0.1212194E-006  0.9118800E+02  0.7816164E-02  0.1184000E+00
        -11   -1    0    0    0    0  0.00000000000E+00  0.00000000000E+00  0.45593999997E+02  0.45594000000E+02  0.51100000000E-03 0.  1.
         11   -1    0    0    0    0 -0.00000000000E+00 -0.00000000000E+00 -0.45593999997E+02  0.45594000000E+02  0.51100000000E-03 0. -1.
         23    2    1    2    0    0 -0.17763568394E-14  0.14432899320E-14 -0.71054273576E-14  0.91188000000E+02  0.91188000000E+02 0.  0.
    9900012    2    3    3    0    0  0.89680820860E+01 -0.66766163012E+00  0.35705847534E+02  0.54367084524E+02  0.40000000790E+02 0.  0.
         12    1    3    3    0    0 -0.89680820860E+01  0.66766163012E+00 -0.35705847534E+02  0.36820915476E+02  0.00000000000E+00 0. -1.
         11    1    4    4    0    0 -0.12065022136E+01  0.82666378969E+01  0.60757967132E+01  0.10329968813E+02  0.51100000000E-03 0. -1.
        -11    1    4    4    0    0 -0.63886842507E+01 -0.78737028155E+00  0.23837172553E+02  0.24691011198E+02  0.51100000000E-03 0.  1.
         12    1    4    4    0    0  0.16563268550E+02 -0.81469292455E+01  0.57928782679E+01  0.19346104513E+02  0.00000000000E+00 0. -1.
</event>
<event>
 8    1  0.1212194E-006  0.9118800E+02  0.7816164E-02  0.1184000E+00
        -11   -1    0    0    0    0  0.00000000000E+00  0.00000000000E+00  0.45593999997E+02  0.45594000000E+02  0.51100000000E-03 0.  1.
         11   -1    0    0    0    0 -0.00000000000E+00 -0.00000000000E+00 -0.45593999997E+02  0.45594000000E+02  0.51100000000E-03 0. -1.
         23    2    1    2    0    0  0.00000000000E+00  0.00000000000E+00 -0.35527136788E-14  0.91188000000E+02  0.91188000000E+02 0.  0.
    9900012    2    3    3    0    0 -0.20943683527E+02  0.27817834271E+01  0.30156319723E+02  0.54367084505E+02  0.40000000745E+02 0.  0.
         12    1    3    3    0    0  0.20943683527E+02 -0.27817834271E+01 -0.30156319723E+02  0.36820915495E+02  0.00000000000E+00 0. -1.
         11    1    4    4    0    0 -0.94532898312E+01 -0.97460162120E+00 -0.36065065200E+01  0.10164714777E+02  0.51100000000E-03 0. -1.
        -11    1    4    4    0    0 -0.16264945984E+02 -0.37305998666E+01  0.11589441190E+02  0.20317012344E+02  0.51100000000E-03 0.  1.
         12    1    4    4    0    0  0.47745522884E+01  0.74869849149E+01  0.22173385053E+02  0.23885357384E+02  0.00000000000E+00 0. -1.
</event>
<event>
 8    1  0.1212194E-006  0.9118800E+02  0.7816164E-02  0.1184000E+00
        -11   -1    0    0    0    0  0.00000000000E+00  0.00000000000E+00  0.45593999997E+02  0.45594000000E+02  0.51100000000E-03 0.  1.
         11   -1    0    0    0    0 -0.00000000000E+00 -0.00000000000E+00 -0.45593999997E+02  0.45594000000E+02  0.51100000000E-03 0. -1.
         23    2    1    2    0    0  0.00000000000E+00  0.00000000000E+00  0.00000000000E+00  0.91188000000E+02  0.91188000000E+02 0.  0.
    9900012    2    3    3    0    0  0.56640015838E+01 -0.36258740505E+02 -0.30006590703E+01  0.54367066663E+02  0.39999960071E+02 0.  0.
         12    1    3    3    0    0 -0.56640015838E+01  0.36258740505E+02  0.30006590703E+01  0.36820933337E+02  0.00000000000E+00 0. -1.
         11    1    4    4    0    0  0.73671967097E+01  0.57451855362E+01 -0.11979778264E+01  0.94190177481E+01  0.51100000000E-03 0. -1.
        -11    1    4    4    0    0 -0.59166104759E+01 -0.53277331831E+01  0.33396267078E+00  0.79688488328E+01  0.51100000000E-03 0.  1.
         12    1    4    4    0    0  0.42134153500E+01 -0.36676192858E+02 -0.21366439147E+01  0.36979200082E+02  0.00000000000E+00 0. -1.
</event>
<event>
 8    1  0.1212194E-006  0.9118800E+02  0.7816164E-02  0.1184000E+00
        -11   -1    0    0    0    0  0.00000000000E+00  0.00000000000E+00  0.45593999997E+02  0.45594000000E+02  0.51100000000E-03 0. -1.
         11   -1    0    0    0    0 -0.00000000000E+00 -0.00000000000E+00 -0.45593999997E+02  0.45594000000E+02  0.51100000000E-03 0.  1.
         23    2    1    2    0    0  0.00000000000E+00  0.00000000000E+00  0.00000000000E+00  0.91188000000E+02  0.91188000000E+02 0.  0.
    9900012    2    3    3    0    0 -0.30981199076E+02 -0.17575838209E+02  0.93293637596E+01  0.54367057411E+02  0.39999938981E+02 0.  0.
        -12    1    3    3    0    0  0.30981199076E+02  0.17575838209E+02 -0.93293637596E+01  0.36820942589E+02  0.00000000000E+00 0.  1.
         11    1    4    4    0    0 -0.12517110742E+01 -0.93589930650E+01  0.94887327114E+00  0.94898836953E+01  0.51100000000E-03 0. -1.
        -11    1    4    4    0    0 -0.29669174136E+02  0.66115318421E+00 -0.36772273502E+01  0.29903495092E+02  0.51100000000E-03 0.  1.
        -12    1    4    4    0    0 -0.60313866022E-01 -0.88779983278E+01  0.12057717839E+02  0.14973678624E+02  0.00000000000E+00 0.  1.
</event>
<event>
 8    1  0.1212194E-006  0.9118800E+02  0.7816164E-02  0.1184000E+00
        -11   -1    0    0    0    0  0.00000000000E+00  0.00000000000E+00  0.45593999997E+02  0.45594000000E+02  0.51100000000E-03 0.  1.
         11   -1    0    0    0    0 -0.00000000000E+00 -0.00000000000E+00 -0.45593999997E+02  0.45594000000E+02  0.51100000000E-03 0. -1.
         23    2    1    2    0    0 -0.71054273576E-14 -0.44408920985E-15 -0.17763568394E-14  0.91188000000E+02  0.91188000000E+02 0.  0.
    9900012    2    3    3    0    0 -0.36573531707E+02  0.92325142377E+00  0.41595322605E+01  0.54367118379E+02  0.40000077968E+02 0.  0.
        -12    1    3    3    0    0  0.36573531707E+02 -0.92325142377E+00 -0.41595322605E+01  0.36820881621E+02  0.00000000000E+00 0.  1.
         11    1    4    4    0    0  0.34804716599E+01  0.33183245439E+01 -0.27879686393E+01  0.55585726719E+01  0.51100000000E-03 0. -1.
        -11    1    4    4    0    0 -0.13826064422E+02  0.64977674683E+01 -0.80986327096E+01  0.17290716917E+02  0.51100000000E-03 0.  1.
        -12    1    4    4    0    0 -0.26227938946E+02 -0.88928405884E+01  0.15046133609E+02  0.31517828790E+02  0.00000000000E+00 0.  1.
</event>
<event>
 8    1  0.1212194E-006  0.9118800E+02  0.7816164E-02  0.1184000E+00
        -11   -1    0    0    0    0  0.00000000000E+00  0.00000000000E+00  0.45593999997E+02  0.45594000000E+02  0.51100000000E-03 0.  1.
         11   -1    0    0    0    0 -0.00000000000E+00 -0.00000000000E+00 -0.45593999997E+02  0.45594000000E+02  0.51100000000E-03 0. -1.
         23    2    1    2    0    0  0.35527136788E-14 -0.17763568394E-14  0.00000000000E+00  0.91188000000E+02  0.91188000000E+02 0.  0.
    9900012    2    3    3    0    0 -0.19621644460E+02 -0.13654944185E+02 -0.28005605094E+02  0.54367077297E+02  0.39999984314E+02 0.  0.
        -12    1    3    3    0    0  0.19621644460E+02  0.13654944185E+02  0.28005605094E+02  0.36820922703E+02  0.00000000000E+00 0.  1.
         11    1    4    4    0    0 -0.16750817351E+02 -0.34994101199E+01 -0.29874552873E+02  0.34428544302E+02  0.51100000000E-03 0. -1.
        -11    1    4    4    0    0  0.21861366058E+01  0.28324458004E+01 -0.34974249380E+01  0.50033912429E+01  0.51100000000E-03 0.  1.
        -12    1    4    4    0    0 -0.50569637146E+01 -0.12987979866E+02  0.53663727174E+01  0.14935141752E+02  0.00000000000E+00 0.  1.
</event>
<event>
 8    1  0.1212194E-006  0.9118800E+02  0.7816164E-02  0.1184000E+00
        -11   -1    0    0    0    0  0.00000000000E+00  0.00000000000E+00  0.45593999997E+02  0.45594000000E+02  0.51100000000E-03 0. -1.
         11   -1    0    0    0    0 -0.00000000000E+00 -0.00000000000E+00 -0.45593999997E+02  0.45594000000E+02  0.51100000000E-03 0.  1.
         23    2    1    2    0    0  0.00000000000E+00 -0.35527136788E-14  0.55511151231E-15  0.91188000000E+02  0.91188000000E+02 0.  0.
    9900012    2    3    3    0    0 -0.19112225119E+02 -0.31469522608E+02  0.41475726989E+00  0.54367081682E+02  0.39999994311E+02 0.  0.
        -12    1    3    3    0    0  0.19112225119E+02  0.31469522608E+02 -0.41475726989E+00  0.36820918318E+02  0.00000000000E+00 0.  1.
         11    1    4    4    0    0  0.14059292233E+01  0.93507578209E+00 -0.49010014744E+01  0.51837071110E+01  0.51100000000E-03 0. -1.
        -11    1    4    4    0    0 -0.12868026900E+02 -0.16770049557E+02 -0.12269189956E+02  0.24440820381E+02  0.51100000000E-03 0.  1.
         12    1    4    4    0    0 -0.76501274423E+01 -0.15634548833E+02  0.17584948700E+02  0.24742554190E+02  0.00000000000E+00 0. -1.
</event>
<event>
 8    1  0.1212194E-006  0.9118800E+02  0.7816164E-02  0.1184000E+00
        -11   -1    0    0    0    0  0.00000000000E+00  0.00000000000E+00  0.45593999997E+02  0.45594000000E+02  0.51100000000E-03 0.  1.
         11   -1    0    0    0    0 -0.00000000000E+00 -0.00000000000E+00 -0.45593999997E+02  0.45594000000E+02  0.51100000000E-03 0. -1.
         23    2    1    2    0    0  0.00000000000E+00  0.00000000000E+00  0.00000000000E+00  0.91188000000E+02  0.91188000000E+02 0.  0.
    9900012    2    3    3    0    0  0.15674259676E+02  0.40445128869E+01 -0.33071717455E+02  0.54367095661E+02  0.40000026179E+02 0.  0.
        -12    1    3    3    0    0 -0.15674259676E+02 -0.40445128869E+01  0.33071717455E+02  0.36820904339E+02  0.00000000000E+00 0.  1.
         11    1    4    4    0    0  0.38597960444E+01  0.10420206555E+02 -0.33797629205E+02  0.35577499494E+02  0.51100000000E-03 0. -1.
        -11    1    4    4    0    0  0.29005257071E+01 -0.24534326649E+01  0.64555510548E+01  0.74904286193E+01  0.51100000000E-03 0.  1.
         12    1    4    4    0    0  0.89139379240E+01 -0.39222610037E+01 -0.57296393057E+01  0.11299167548E+02  0.00000000000E+00 0. -1.
</event>
<event>
 8    1  0.1212194E-006  0.9118800E+02  0.7816164E-02  0.1184000E+00
        -11   -1    0    0    0    0  0.00000000000E+00  0.00000000000E+00  0.45593999997E+02  0.45594000000E+02  0.51100000000E-03 0. -1.
         11   -1    0    0    0    0 -0.00000000000E+00 -0.00000000000E+00 -0.45593999997E+02  0.45594000000E+02  0.51100000000E-03 0.  1.
         23    2    1    2    0    0  0.00000000000E+00  0.17763568394E-14 -0.35527136788E-14  0.91188000000E+02  0.91188000000E+02 0.  0.
    9900012    2    3    3    0    0  0.20795177546E+02  0.12163236753E+02  0.27845926645E+02  0.54367090611E+02  0.40000014667E+02 0.  0.
        -12    1    3    3    0    0 -0.20795177546E+02 -0.12163236753E+02 -0.27845926645E+02  0.36820909389E+02  0.00000000000E+00 0.  1.
         11    1    4    4    0    0  0.16588407080E+02  0.90570440109E+00  0.65561981867E+00  0.16626045457E+02  0.51100000000E-03 0.  1.
        -11    1    4    4    0    0 -0.18055580503E+01 -0.68291945320E+01  0.63377457879E+01  0.94902560430E+01  0.51100000000E-03 0. -1.
        -12    1    4    4    0    0  0.60123285155E+01  0.18086726884E+02  0.20852561039E+02  0.28250789112E+02  0.00000000000E+00 0.  1.
</event>
<event>
 8    1  0.1212194E-006  0.9118800E+02  0.7816164E-02  0.1184000E+00
        -11   -1    0    0    0    0  0.00000000000E+00  0.00000000000E+00  0.45593999997E+02  0.45594000000E+02  0.51100000000E-03 0.  1.
         11   -1    0    0    0    0 -0.00000000000E+00 -0.00000000000E+00 -0.45593999997E+02  0.45594000000E+02  0.51100000000E-03 0. -1.
         23    2    1    2    0    0 -0.17763568394E-14  0.00000000000E+00  0.00000000000E+00  0.91188000000E+02  0.91188000000E+02 0.  0.
    9900012    2    3    3    0    0 -0.13037975226E+02 -0.21731215395E+02 -0.26712247833E+02  0.54367099620E+02  0.40000035204E+02 0.  0.
        -12    1    3    3    0    0  0.13037975226E+02  0.21731215395E+02  0.26712247833E+02  0.36820900380E+02  0.00000000000E+00 0.  1.
         11    1    4    4    0    0 -0.88906160703E+01 -0.28101338617E+02 -0.85588204026E+01  0.30691720269E+02  0.51100000000E-03 0. -1.
        -11    1    4    4    0    0  0.24136749794E+01  0.80496879386E+01 -0.10676045312E+02  0.13586804134E+02  0.51100000000E-03 0.  1.
        -12    1    4    4    0    0 -0.65610341348E+01 -0.16795647166E+01 -0.74773821180E+01  0.10088575216E+02  0.00000000000E+00 0.  1.
</event>
<event>
 8    1  0.1212194E-006  0.9118800E+02  0.7816164E-02  0.1184000E+00
        -11   -1    0    0    0    0  0.00000000000E+00  0.00000000000E+00  0.45593999997E+02  0.45594000000E+02  0.51100000000E-03 0. -1.
         11   -1    0    0    0    0 -0.00000000000E+00 -0.00000000000E+00 -0.45593999997E+02  0.45594000000E+02  0.51100000000E-03 0.  1.
         23    2    1    2    0    0  0.00000000000E+00  0.35527136788E-14  0.00000000000E+00  0.91188000000E+02  0.91188000000E+02 0.  0.
    9900012    2    3    3    0    0 -0.29741151813E+02  0.17378181996E+02  0.13009365626E+02  0.54367069613E+02  0.39999966796E+02 0.  0.
         12    1    3    3    0    0  0.29741151813E+02 -0.17378181996E+02 -0.13009365626E+02  0.36820930387E+02  0.00000000000E+00 0. -1.
         11    1    4    4    0    0 -0.56296942233E+01  0.91029554614E+00 -0.97105976726E+01  0.11261341059E+02  0.51100000000E-03 0. -1.
        -11    1    4    4    0    0 -0.28254638734E+02  0.14351419007E+02  0.17855309801E+02  0.36374440558E+02  0.51100000000E-03 0.  1.
         12    1    4    4    0    0  0.41431811451E+01  0.21164674424E+01  0.48646534969E+01  0.67312879957E+01  0.00000000000E+00 0. -1.
</event>
<event>
 8    1  0.1212194E-006  0.9118800E+02  0.7816164E-02  0.1184000E+00
        -11   -1    0    0    0    0  0.00000000000E+00  0.00000000000E+00  0.45593999997E+02  0.45594000000E+02  0.51100000000E-03 0.  1.
         11   -1    0    0    0    0 -0.00000000000E+00 -0.00000000000E+00 -0.45593999997E+02  0.45594000000E+02  0.51100000000E-03 0. -1.
         23    2    1    2    0    0  0.00000000000E+00 -0.35527136788E-14  0.00000000000E+00  0.91188000000E+02  0.91188000000E+02 0.  0.
    9900012    2    3    3    0    0  0.24154545260E+02 -0.97802165392E+01 -0.26013165779E+02  0.54367089010E+02  0.40000011017E+02 0.  0.
        -12    1    3    3    0    0 -0.24154545260E+02  0.97802165392E+01  0.26013165779E+02  0.36820910990E+02  0.00000000000E+00 0.  1.
         11    1    4    4    0    0  0.14906859368E+02 -0.20392252833E+02 -0.11480683550E+02  0.27746432687E+02  0.51100000000E-03 0. -1.
        -11    1    4    4    0    0  0.97129707059E+01  0.13258485796E+02 -0.16500967608E+02  0.23289722579E+02  0.51100000000E-03 0.  1.
        -12    1    4    4    0    0 -0.46528481414E+00 -0.26464495019E+01  0.19684853787E+01  0.33309337445E+01  0.00000000000E+00 0.  1.
</event>
<event>
 8    1  0.1212194E-006  0.9118800E+02  0.7816164E-02  0.1184000E+00
        -11   -1    0    0    0    0  0.00000000000E+00  0.00000000000E+00  0.45593999997E+02  0.45594000000E+02  0.51100000000E-03 0. -1.
         11   -1    0    0    0    0 -0.00000000000E+00 -0.00000000000E+00 -0.45593999997E+02  0.45594000000E+02  0.51100000000E-03 0.  1.
         23    2    1    2    0    0  0.17763568394E-14  0.13322676296E-14  0.00000000000E+00  0.91188000000E+02  0.91188000000E+02 0.  0.
    9900012    2    3    3    0    0 -0.95022760051E+01  0.21935061584E+01  0.35505980293E+02  0.54367090789E+02  0.40000015071E+02 0.  0.
        -12    1    3    3    0    0  0.95022760051E+01 -0.21935061584E+01 -0.35505980293E+02  0.36820909211E+02  0.00000000000E+00 0.  1.
         11    1    4    4    0    0 -0.33331533346E+01  0.84409146961E+01  0.16128551480E+02  0.18506461713E+02  0.51100000000E-03 0. -1.
        -11    1    4    4    0    0 -0.12339767100E+02  0.79602499897E+01  0.94857569308E+01  0.17481848209E+02  0.51100000000E-03 0.  1.
        -12    1    4    4    0    0  0.61706444294E+01 -0.14207658527E+02  0.98916718831E+01  0.18378780867E+02  0.00000000000E+00 0.  1.
</event>
<event>
 8    1  0.1212194E-006  0.9118800E+02  0.7816164E-02  0.1184000E+00
        -11   -1    0    0    0    0  0.00000000000E+00  0.00000000000E+00  0.45593999997E+02  0.45594000000E+02  0.51100000000E-03 0.  1.
         11   -1    0    0    0    0 -0.00000000000E+00 -0.00000000000E+00 -0.45593999997E+02  0.45594000000E+02  0.51100000000E-03 0. -1.
         23    2    1    2    0    0  0.00000000000E+00  0.00000000000E+00  0.00000000000E+00  0.91188000000E+02  0.91188000000E+02 0.  0.
    9900012    2    3    3    0    0 -0.32530445612E+02 -0.14547602660E+02  0.92691845373E+01  0.54367076371E+02  0.39999982204E+02 0.  0.
         12    1    3    3    0    0  0.32530445612E+02  0.14547602660E+02 -0.92691845373E+01  0.36820923629E+02  0.00000000000E+00 0. -1.
         11    1    4    4    0    0 -0.70209072105E+01  0.30209151616E+01  0.27117516179E+01  0.81100347454E+01  0.51100000000E-03 0. -1.
        -11    1    4    4    0    0  0.53648334598E+00 -0.15711587526E+02 -0.65609105325E+01  0.17034886094E+02  0.51100000000E-03 0.  1.
        -12    1    4    4    0    0 -0.26046021748E+02 -0.18569302958E+01  0.13118343452E+02  0.29222155532E+02  0.00000000000E+00 0.  1.
</event>
<event>
 8    1  0.1212194E-006  0.9118800E+02  0.7816164E-02  0.1184000E+00
        -11   -1    0    0    0    0  0.00000000000E+00  0.00000000000E+00  0.45593999997E+02  0.45594000000E+02  0.51100000000E-03 0.  1.
         11   -1    0    0    0    0 -0.00000000000E+00 -0.00000000000E+00 -0.45593999997E+02  0.45594000000E+02  0.51100000000E-03 0. -1.
         23    2    1    2    0    0  0.00000000000E+00  0.17763568394E-14  0.71054273576E-14  0.91188000000E+02  0.91188000000E+02 0.  0.
    9900012    2    3    3    0    0 -0.13956209079E+02 -0.65032199881E+01  0.33447133025E+02  0.54367104442E+02  0.40000046197E+02 0.  0.
         12    1    3    3    0    0  0.13956209079E+02  0.65032199881E+01 -0.33447133025E+02  0.36820895558E+02  0.00000000000E+00 0. -1.
         11    1    4    4    0    0 -0.96116510570E+01  0.33914573269E+01 -0.25691491988E+01  0.10511248580E+02  0.51100000000E-03 0. -1.
        -11    1    4    4    0    0 -0.11492438564E+00 -0.16522835395E+02  0.19468533875E+02  0.25535095626E+02  0.51100000000E-03 0.  1.
         12    1    4    4    0    0 -0.42296336361E+01  0.66281580803E+01  0.16547748349E+02  0.18320760237E+02  0.00000000000E+00 0. -1.
</event>
<event>
 8    1  0.1212194E-006  0.9118800E+02  0.7816164E-02  0.1184000E+00
        -11   -1    0    0    0    0  0.00000000000E+00  0.00000000000E+00  0.45593999997E+02  0.45594000000E+02  0.51100000000E-03 0.  1.
         11   -1    0    0    0    0 -0.00000000000E+00 -0.00000000000E+00 -0.45593999997E+02  0.45594000000E+02  0.51100000000E-03 0. -1.
         23    2    1    2    0    0 -0.71054273576E-14  0.00000000000E+00  0.00000000000E+00  0.91188000000E+02  0.91188000000E+02 0.  0.
    9900012    2    3    3    0    0  0.26814944717E+02 -0.46067459640E+01 -0.24809680670E+02  0.54367032827E+02  0.39999882937E+02 0.  0.
        -12    1    3    3    0    0 -0.26814944717E+02  0.46067459640E+01  0.24809680670E+02  0.36820967173E+02  0.00000000000E+00 0.  1.
         11    1    4    4    0    0  0.26071671925E+02  0.97204685187E+01 -0.93392324453E+01  0.29350312573E+02  0.51100000000E-03 0. -1.
        -11    1    4    4    0    0 -0.21444291290E+01 -0.56203056808E+01 -0.14613872409E+02  0.15803533759E+02  0.51100000000E-03 0.  1.
        -12    1    4    4    0    0  0.28877019211E+01 -0.87069088020E+01 -0.85657581613E+00  0.92131864955E+01  0.00000000000E+00 0.  1.
</event>
<event>
 8    1  0.1212194E-006  0.9118800E+02  0.7816164E-02  0.1184000E+00
        -11   -1    0    0    0    0  0.00000000000E+00  0.00000000000E+00  0.45593999997E+02  0.45594000000E+02  0.51100000000E-03 0.  1.
         11   -1    0    0    0    0 -0.00000000000E+00 -0.00000000000E+00 -0.45593999997E+02  0.45594000000E+02  0.51100000000E-03 0. -1.
         23    2    1    2    0    0  0.00000000000E+00  0.00000000000E+00  0.00000000000E+00  0.91188000000E+02  0.91188000000E+02 0.  0.
    9900012    2    3    3    0    0  0.24683886961E+02  0.22982885650E+02 -0.14774054598E+02  0.54367082065E+02  0.39999995183E+02 0.  0.
        -12    1    3    3    0    0 -0.24683886961E+02 -0.22982885650E+02  0.14774054598E+02  0.36820917935E+02  0.00000000000E+00 0.  1.
         11    1    4    4    0    0  0.12599932947E+02  0.10797265342E+02 -0.15511921197E+02  0.22714729772E+02  0.51100000000E-03 0. -1.
        -11    1    4    4    0    0  0.45453121039E+01 -0.56064463720E+01  0.82129302827E+01  0.10933632842E+02  0.51100000000E-03 0.  1.
         12    1    4    4    0    0  0.75386419110E+01  0.17792066680E+02 -0.74750636839E+01  0.20718719451E+02  0.00000000000E+00 0. -1.
</event>
<event>
 8    1  0.1212194E-006  0.9118800E+02  0.7816164E-02  0.1184000E+00
        -11   -1    0    0    0    0  0.00000000000E+00  0.00000000000E+00  0.45593999997E+02  0.45594000000E+02  0.51100000000E-03 0.  1.
         11   -1    0    0    0    0 -0.00000000000E+00 -0.00000000000E+00 -0.45593999997E+02  0.45594000000E+02  0.51100000000E-03 0. -1.
         23    2    1    2    0    0  0.00000000000E+00  0.00000000000E+00  0.00000000000E+00  0.91188000000E+02  0.91188000000E+02 0.  0.
    9900012    2    3    3    0    0  0.23925912187E+02  0.78891684596E+01  0.26853156494E+02  0.54367078411E+02  0.39999986854E+02 0.  0.
        -12    1    3    3    0    0 -0.23925912187E+02 -0.78891684596E+01 -0.26853156494E+02  0.36820921589E+02  0.00000000000E+00 0.  1.
         11    1    4    4    0    0 -0.25155096101E+01 -0.64695305176E+01 -0.38078477002E+01  0.79172165618E+01  0.51100000000E-03 0. -1.
        -11    1    4    4    0    0 -0.93492821956E+00 -0.24313190645E+01  0.36607824592E+01  0.44929646832E+01  0.51100000000E-03 0.  1.
         12    1    4    4    0    0  0.27376350017E+02  0.16790018042E+02  0.27000221734E+02  0.41956897166E+02  0.00000000000E+00 0. -1.
</event>
<event>
 8    1  0.1212194E-006  0.9118800E+02  0.7816164E-02  0.1184000E+00
        -11   -1    0    0    0    0  0.00000000000E+00  0.00000000000E+00  0.45593999997E+02  0.45594000000E+02  0.51100000000E-03 0.  1.
         11   -1    0    0    0    0 -0.00000000000E+00 -0.00000000000E+00 -0.45593999997E+02  0.45594000000E+02  0.51100000000E-03 0. -1.
         23    2    1    2    0    0  0.00000000000E+00  0.66613381478E-15  0.17763568394E-14  0.91188000000E+02  0.91188000000E+02 0.  0.
    9900012    2    3    3    0    0 -0.35096980139E+02  0.41202160847E+00  0.11127089007E+02  0.54367083574E+02  0.39999998624E+02 0.  0.
         12    1    3    3    0    0  0.35096980139E+02 -0.41202160847E+00 -0.11127089007E+02  0.36820916426E+02  0.00000000000E+00 0. -1.
         11    1    4    4    0    0 -0.14248343010E+02  0.51726226522E+01  0.11560081947E+02  0.19063231586E+02  0.51100000000E-03 0. -1.
        -11    1    4    4    0    0 -0.62047977252E+01  0.92805060055E+01 -0.79101712653E+01  0.13682036261E+02  0.51100000000E-03 0.  1.
         12    1    4    4    0    0 -0.14643839404E+02 -0.14041107049E+02  0.74771783248E+01  0.21621815728E+02  0.00000000000E+00 0. -1.
</event>
<event>
 8    1  0.1212194E-006  0.9118800E+02  0.7816164E-02  0.1184000E+00
        -11   -1    0    0    0    0  0.00000000000E+00  0.00000000000E+00  0.45593999997E+02  0.45594000000E+02  0.51100000000E-03 0.  1.
         11   -1    0    0    0    0 -0.00000000000E+00 -0.00000000000E+00 -0.45593999997E+02  0.45594000000E+02  0.51100000000E-03 0. -1.
         23    2    1    2    0    0  0.00000000000E+00  0.17763568394E-14 -0.17763568394E-14  0.91188000000E+02  0.91188000000E+02 0.  0.
    9900012    2    3    3    0    0 -0.33834234792E+02 -0.22968515663E+01 -0.14343940144E+02  0.54367087601E+02  0.40000007803E+02 0.  0.
        -12    1    3    3    0    0  0.33834234792E+02  0.22968515663E+01  0.14343940144E+02  0.36820912399E+02  0.00000000000E+00 0.  1.
         11    1    4    4    0    0 -0.53524766085E+01  0.20139252329E+01 -0.51787594562E+01  0.77152090351E+01  0.51100000000E-03 0. -1.
        -11    1    4    4    0    0 -0.31155614034E+01  0.13042610122E+02 -0.85658489328E+01  0.15911950536E+02  0.51100000000E-03 0.  1.
        -12    1    4    4    0    0 -0.25366196780E+02 -0.17353386921E+02 -0.59933175547E+00  0.30739928030E+02  0.00000000000E+00 0.  1.
</event>
<event>
 8    1  0.1212194E-006  0.9118800E+02  0.7816164E-02  0.1184000E+00
        -11   -1    0    0    0    0  0.00000000000E+00  0.00000000000E+00  0.45593999997E+02  0.45594000000E+02  0.51100000000E-03 0.  1.
         11   -1    0    0    0    0 -0.00000000000E+00 -0.00000000000E+00 -0.45593999997E+02  0.45594000000E+02  0.51100000000E-03 0. -1.
         23    2    1    2    0    0  0.00000000000E+00  0.00000000000E+00 -0.17763568394E-14  0.91188000000E+02  0.91188000000E+02 0.  0.
    9900012    2    3    3    0    0  0.16910671078E+02 -0.29130131419E+02 -0.14874263699E+02  0.54367094615E+02  0.40000023795E+02 0.  0.
        -12    1    3    3    0    0 -0.16910671078E+02  0.29130131419E+02  0.14874263699E+02  0.36820905385E+02  0.00000000000E+00 0.  1.
         11    1    4    4    0    0  0.18142654906E+02 -0.24281993935E+01 -0.14984338425E+02  0.23655495717E+02  0.51100000000E-03 0. -1.
        -11    1    4    4    0    0  0.42304188052E+01 -0.23408795502E+02  0.24585468896E+01  0.23914694294E+02  0.51100000000E-03 0.  1.
         12    1    4    4    0    0 -0.54624026335E+01 -0.32931365232E+01 -0.23484721634E+01  0.67969046038E+01  0.00000000000E+00 0. -1.
</event>
<event>
 8    1  0.1212194E-006  0.9118800E+02  0.7816164E-02  0.1184000E+00
        -11   -1    0    0    0    0  0.00000000000E+00  0.00000000000E+00  0.45593999997E+02  0.45594000000E+02  0.51100000000E-03 0.  1.
         11   -1    0    0    0    0 -0.00000000000E+00 -0.00000000000E+00 -0.45593999997E+02  0.45594000000E+02  0.51100000000E-03 0. -1.
         23    2    1    2    0    0  0.71054273576E-14 -0.17763568394E-14 -0.35527136788E-14  0.91188000000E+02  0.91188000000E+02 0.  0.
    9900012    2    3    3    0    0 -0.22861600177E+02  0.12796286589E+02  0.25872425114E+02  0.54367080750E+02  0.39999992187E+02 0.  0.
         12    1    3    3    0    0  0.22861600177E+02 -0.12796286589E+02 -0.25872425114E+02  0.36820919250E+02  0.00000000000E+00 0. -1.
         11    1    4    4    0    0 -0.11432142902E+02  0.54200495512E+01  0.79537515724E+01  0.14944329788E+02  0.51100000000E-03 0. -1.
        -11    1    4    4    0    0 -0.15347453282E+02  0.14757663775E+02  0.19262994576E+01  0.21378577881E+02  0.51100000000E-03 0.  1.
         12    1    4    4    0    0  0.39179960068E+01 -0.73814267372E+01  0.15992374084E+02  0.18044173082E+02  0.00000000000E+00 0. -1.
</event>
<event>
 8    1  0.1212194E-006  0.9118800E+02  0.7816164E-02  0.1184000E+00
        -11   -1    0    0    0    0  0.00000000000E+00  0.00000000000E+00  0.45593999997E+02  0.45594000000E+02  0.51100000000E-03 0.  1.
         11   -1    0    0    0    0 -0.00000000000E+00 -0.00000000000E+00 -0.45593999997E+02  0.45594000000E+02  0.51100000000E-03 0. -1.
         23    2    1    2    0    0  0.00000000000E+00  0.35527136788E-14 -0.71054273576E-14  0.91188000000E+02  0.91188000000E+02 0.  0.
    9900012    2    3    3    0    0 -0.11025907145E+02 -0.21925142208E+02  0.27449639418E+02  0.54367283095E+02  0.40000453469E+02 0.  0.
        -12    1    3    3    0    0  0.11025907145E+02  0.21925142208E+02 -0.27449639418E+02  0.36820716905E+02  0.00000000000E+00 0.  1.
         11    1    4    4    0    0 -0.13892382429E+02 -0.48864721912E+01 -0.81906255841E+00  0.14749466558E+02  0.51100000000E-03 0. -1.
        -11    1    4    4    0    0  0.94470101188E+01  0.16273347269E-01  0.87747247475E+01  0.12893489042E+02  0.51100000000E-03 0.  1.
        -12    1    4    4    0    0 -0.65805348355E+01 -0.17054943364E+02  0.19493977229E+02  0.26724327495E+02  0.00000000000E+00 0.  1.
</event>
<event>
 8    1  0.1212194E-006  0.9118800E+02  0.7816164E-02  0.1184000E+00
        -11   -1    0    0    0    0  0.00000000000E+00  0.00000000000E+00  0.45593999997E+02  0.45594000000E+02  0.51100000000E-03 0.  1.
         11   -1    0    0    0    0 -0.00000000000E+00 -0.00000000000E+00 -0.45593999997E+02  0.45594000000E+02  0.51100000000E-03 0. -1.
         23    2    1    2    0    0  0.17763568394E-14 -0.35527136788E-14  0.00000000000E+00  0.91188000000E+02  0.91188000000E+02 0.  0.
    9900012    2    3    3    0    0  0.11347175683E+02 -0.28121225295E+02  0.20885811282E+02  0.54367098042E+02  0.40000031607E+02 0.  0.
         12    1    3    3    0    0 -0.11347175683E+02  0.28121225295E+02 -0.20885811282E+02  0.36820901958E+02  0.00000000000E+00 0. -1.
         11    1    4    4    0    0  0.72609023276E+01 -0.18109019313E+02 -0.82771900642E+01  0.21193611271E+02  0.51100000000E-03 0. -1.
        -11    1    4    4    0    0 -0.19774607440E+01 -0.62539070558E+01  0.58345103569E+01  0.87785657041E+01  0.51100000000E-03 0.  1.
        -12    1    4    4    0    0  0.60637340994E+01 -0.37582989265E+01  0.23328490989E+02  0.24394921067E+02  0.00000000000E+00 0.  1.
</event>
<event>
 8    1  0.1212194E-006  0.9118800E+02  0.7816164E-02  0.1184000E+00
        -11   -1    0    0    0    0  0.00000000000E+00  0.00000000000E+00  0.45593999997E+02  0.45594000000E+02  0.51100000000E-03 0.  1.
         11   -1    0    0    0    0 -0.00000000000E+00 -0.00000000000E+00 -0.45593999997E+02  0.45594000000E+02  0.51100000000E-03 0. -1.
         23    2    1    2    0    0  0.00000000000E+00  0.00000000000E+00 -0.35527136788E-14  0.91188000000E+02  0.91188000000E+02 0.  0.
    9900012    2    3    3    0    0  0.39396355020E+01  0.28337731579E+02  0.23178260565E+02  0.54367088526E+02  0.40000009913E+02 0.  0.
         12    1    3    3    0    0 -0.39396355020E+01 -0.28337731579E+02 -0.23178260565E+02  0.36820911474E+02  0.00000000000E+00 0. -1.
         11    1    4    4    0    0  0.76008566872E+01 -0.72845474700E+01  0.70248274228E+01  0.12656455065E+02  0.51100000000E-03 0. -1.
        -11    1    4    4    0    0 -0.41019614954E+01  0.13016855656E+02  0.13060680038E+02  0.18890367456E+02  0.51100000000E-03 0.  1.
        -12    1    4    4    0    0  0.44074031032E+00  0.22605423393E+02  0.30927531038E+01  0.22820266005E+02  0.00000000000E+00 0.  1.
</event>
<event>
 8    1  0.1212194E-006  0.9118800E+02  0.7816164E-02  0.1184000E+00
        -11   -1    0    0    0    0  0.00000000000E+00  0.00000000000E+00  0.45593999997E+02  0.45594000000E+02  0.51100000000E-03 0.  1.
         11   -1    0    0    0    0 -0.00000000000E+00 -0.00000000000E+00 -0.45593999997E+02  0.45594000000E+02  0.51100000000E-03 0. -1.
         23    2    1    2    0    0 -0.17763568394E-14 -0.17763568394E-14  0.00000000000E+00  0.91188000000E+02  0.91188000000E+02 0.  0.
    9900012    2    3    3    0    0  0.69396694002E+01  0.11304524605E+02 -0.34348526764E+02  0.54367182806E+02  0.40000224843E+02 0.  0.
        -12    1    3    3    0    0 -0.69396694002E+01 -0.11304524605E+02  0.34348526764E+02  0.36820817194E+02  0.00000000000E+00 0.  1.
         11    1    4    4    0    0  0.21313298110E+02 -0.26827283573E+01 -0.17127704894E+02  0.27473841794E+02  0.51100000000E-03 0. -1.
        -11    1    4    4    0    0 -0.80695509339E+01  0.57388143864E+01 -0.10956830299E+02  0.14768336849E+02  0.51100000000E-03 0.  1.
         12    1    4    4    0    0 -0.63040777756E+01  0.82484385757E+01 -0.62639915719E+01  0.12125004163E+02  0.00000000000E+00 0. -1.
</event>
<event>
 8    1  0.1212194E-006  0.9118800E+02  0.7816164E-02  0.1184000E+00
        -11   -1    0    0    0    0  0.00000000000E+00  0.00000000000E+00  0.45593999997E+02  0.45594000000E+02  0.51100000000E-03 0. -1.
         11   -1    0    0    0    0 -0.00000000000E+00 -0.00000000000E+00 -0.45593999997E+02  0.45594000000E+02  0.51100000000E-03 0.  1.
         23    2    1    2    0    0  0.00000000000E+00  0.00000000000E+00  0.00000000000E+00  0.91188000000E+02  0.91188000000E+02 0.  0.
    9900012    2    3    3    0    0 -0.40398542571E+01 -0.30131939980E+02  0.20773202932E+02  0.54367079460E+02  0.39999989244E+02 0.  0.
        -12    1    3    3    0    0  0.40398542571E+01  0.30131939980E+02 -0.20773202932E+02  0.36820920540E+02  0.00000000000E+00 0.  1.
         11    1    4    4    0    0 -0.13136253400E+02  0.29499136665E+01  0.32940351003E+01  0.13860512672E+02  0.51100000000E-03 0.  1.
        -11    1    4    4    0    0 -0.75213450543E+00 -0.89050834864E+01  0.98693827150E+01  0.13314313112E+02  0.51100000000E-03 0. -1.
        -12    1    4    4    0    0  0.98485336486E+01 -0.24176770160E+02  0.76097851169E+01  0.27192253675E+02  0.00000000000E+00 0.  1.
</event>
<event>
 8    1  0.1212194E-006  0.9118800E+02  0.7816164E-02  0.1184000E+00
        -11   -1    0    0    0    0  0.00000000000E+00  0.00000000000E+00  0.45593999997E+02  0.45594000000E+02  0.51100000000E-03 0.  1.
         11   -1    0    0    0    0 -0.00000000000E+00 -0.00000000000E+00 -0.45593999997E+02  0.45594000000E+02  0.51100000000E-03 0. -1.
         23    2    1    2    0    0  0.00000000000E+00 -0.44408920985E-15  0.71054273576E-14  0.91188000000E+02  0.91188000000E+02 0.  0.
    9900012    2    3    3    0    0 -0.41818593356E+01  0.31505189296E+01  0.36446759027E+02  0.54367082567E+02  0.39999996327E+02 0.  0.
         12    1    3    3    0    0  0.41818593356E+01 -0.31505189296E+01 -0.36446759027E+02  0.36820917433E+02  0.00000000000E+00 0. -1.
         11    1    4    4    0    0  0.51301142775E+01  0.53076767546E+01  0.55237632934E+00  0.74023391507E+01  0.51100000000E-03 0.  1.
        -11    1    4    4    0    0 -0.41978283633E+01 -0.69185862692E+01 -0.20778078261E+01  0.83549915952E+01  0.51100000000E-03 0. -1.
         12    1    4    4    0    0 -0.51141452498E+01  0.47614284441E+01  0.37972190524E+02  0.38609751821E+02  0.00000000000E+00 0. -1.
</event>
<event>
 8    1  0.1212194E-006  0.9118800E+02  0.7816164E-02  0.1184000E+00
        -11   -1    0    0    0    0  0.00000000000E+00  0.00000000000E+00  0.45593999997E+02  0.45594000000E+02  0.51100000000E-03 0.  1.
         11   -1    0    0    0    0 -0.00000000000E+00 -0.00000000000E+00 -0.45593999997E+02  0.45594000000E+02  0.51100000000E-03 0. -1.
         23    2    1    2    0    0 -0.44408920985E-15  0.00000000000E+00  0.17763568394E-14  0.91188000000E+02  0.91188000000E+02 0.  0.
    9900012    2    3    3    0    0  0.22753066077E+01 -0.33331146411E+02  0.15480230959E+02  0.54367083501E+02  0.39999998458E+02 0.  0.
         12    1    3    3    0    0 -0.22753066077E+01  0.33331146411E+02 -0.15480230959E+02  0.36820916499E+02  0.00000000000E+00 0. -1.
         11    1    4    4    0    0  0.25463694162E+01 -0.20054237451E+01 -0.91230074996E+01  0.96816831027E+01  0.51100000000E-03 0. -1.
        -11    1    4    4    0    0 -0.79052448636E+00 -0.33955090429E+02  0.24711931879E+02  0.42003007898E+02  0.51100000000E-03 0.  1.
         12    1    4    4    0    0  0.51946167789E+00  0.26293677632E+01 -0.10869342027E+00  0.26823925009E+01  0.00000000000E+00 0. -1.
</event>
<event>
 8    1  0.1212194E-006  0.9118800E+02  0.7816164E-02  0.1184000E+00
        -11   -1    0    0    0    0  0.00000000000E+00  0.00000000000E+00  0.45593999997E+02  0.45594000000E+02  0.51100000000E-03 0. -1.
         11   -1    0    0    0    0 -0.00000000000E+00 -0.00000000000E+00 -0.45593999997E+02  0.45594000000E+02  0.51100000000E-03 0.  1.
         23    2    1    2    0    0 -0.44408920985E-15 -0.71054273576E-14  0.35527136788E-14  0.91188000000E+02  0.91188000000E+02 0.  0.
    9900012    2    3    3    0    0 -0.98571745551E+00 -0.26448775344E+02  0.25598252618E+02  0.54367083483E+02  0.39999998415E+02 0.  0.
        -12    1    3    3    0    0  0.98571745551E+00  0.26448775344E+02 -0.25598252618E+02  0.36820916517E+02  0.00000000000E+00 0.  1.
         11    1    4    4    0    0 -0.32718958221E+00  0.67282481767E+01  0.27388229216E+00  0.67417644812E+01  0.51100000000E-03 0. -1.
        -11    1    4    4    0    0  0.77982365266E+01 -0.32365269018E+01  0.95357399378E+01  0.12736480508E+02  0.51100000000E-03 0.  1.
         12    1    4    4    0    0 -0.84567644000E+01 -0.29940496618E+02  0.15788630388E+02  0.34888838493E+02  0.00000000000E+00 0. -1.
</event>
<event>
 8    1  0.1212194E-006  0.9118800E+02  0.7816164E-02  0.1184000E+00
        -11   -1    0    0    0    0  0.00000000000E+00  0.00000000000E+00  0.45593999997E+02  0.45594000000E+02  0.51100000000E-03 0. -1.
         11   -1    0    0    0    0 -0.00000000000E+00 -0.00000000000E+00 -0.45593999997E+02  0.45594000000E+02  0.51100000000E-03 0.  1.
         23    2    1    2    0    0  0.00000000000E+00  0.00000000000E+00 -0.71054273576E-14  0.91188000000E+02  0.91188000000E+02 0.  0.
    9900012    2    3    3    0    0 -0.17980544936E+01  0.13845222526E+02 -0.34071350125E+02  0.54367080863E+02  0.39999992444E+02 0.  0.
         12    1    3    3    0    0  0.17980544936E+01 -0.13845222526E+02  0.34071350125E+02  0.36820919137E+02  0.00000000000E+00 0. -1.
         11    1    4    4    0    0  0.11034723441E+02  0.62049793681E+01 -0.15022013218E+02  0.19645044458E+02  0.51100000000E-03 0. -1.
        -11    1    4    4    0    0 -0.11611511966E+02 -0.74494670936E+01 -0.10489173518E+02  0.17330450989E+02  0.51100000000E-03 0.  1.
        -12    1    4    4    0    0 -0.12212659679E+01  0.15089710252E+02 -0.85601633881E+01  0.17391585416E+02  0.00000000000E+00 0.  1.
</event>
<event>
 8    1  0.1212194E-006  0.9118800E+02  0.7816164E-02  0.1184000E+00
        -11   -1    0    0    0    0  0.00000000000E+00  0.00000000000E+00  0.45593999997E+02  0.45594000000E+02  0.51100000000E-03 0. -1.
         11   -1    0    0    0    0 -0.00000000000E+00 -0.00000000000E+00 -0.45593999997E+02  0.45594000000E+02  0.51100000000E-03 0.  1.
         23    2    1    2    0    0  0.00000000000E+00  0.00000000000E+00  0.17763568394E-14  0.91188000000E+02  0.91188000000E+02 0.  0.
    9900012    2    3    3    0    0  0.33963108130E+02 -0.54077731235E+01  0.13154561135E+02  0.54367092860E+02  0.40000019792E+02 0.  0.
        -12    1    3    3    0    0 -0.33963108130E+02  0.54077731235E+01 -0.13154561135E+02  0.36820907140E+02  0.00000000000E+00 0.  1.
         11    1    4    4    0    0 -0.27760567070E+01  0.15916994759E+01 -0.97317164568E+00  0.33447064707E+01  0.51100000000E-03 0. -1.
        -11    1    4    4    0    0 -0.17344433023E+01 -0.88925781842E+01 -0.19733669395E+01  0.92725626269E+01  0.51100000000E-03 0.  1.
         12    1    4    4    0    0  0.38473608139E+02  0.18931055849E+01  0.16101099720E+02  0.41749823762E+02  0.00000000000E+00 0. -1.
</event>
<event>
 8    1  0.1212194E-006  0.9118800E+02  0.7816164E-02  0.1184000E+00
        -11   -1    0    0    0    0  0.00000000000E+00  0.00000000000E+00  0.45593999997E+02  0.45594000000E+02  0.51100000000E-03 0.  1.
         11   -1    0    0    0    0 -0.00000000000E+00 -0.00000000000E+00 -0.45593999997E+02  0.45594000000E+02  0.51100000000E-03 0. -1.
         23    2    1    2    0    0  0.71054273576E-14  0.00000000000E+00  0.00000000000E+00  0.91188000000E+02  0.91188000000E+02 0.  0.
    9900012    2    3    3    0    0 -0.25598683350E+02  0.89487210747E+01  0.24907967754E+02  0.54367094854E+02  0.40000024339E+02 0.  0.
         12    1    3    3    0    0  0.25598683350E+02 -0.89487210747E+01 -0.24907967754E+02  0.36820905146E+02  0.00000000000E+00 0. -1.
         11    1    4    4    0    0  0.80271289524E+01  0.46789598772E+01  0.10409913728E+02  0.13953270901E+02  0.51100000000E-03 0. -1.
        -11    1    4    4    0    0 -0.24904460742E+02  0.44738246016E+01  0.22863664902E+01  0.25406194981E+02  0.51100000000E-03 0.  1.
         12    1    4    4    0    0 -0.87213515606E+01 -0.20406340411E+00  0.12211687536E+02  0.15007628973E+02  0.00000000000E+00 0. -1.
</event>
<event>
 8    1  0.1212194E-006  0.9118800E+02  0.7816164E-02  0.1184000E+00
        -11   -1    0    0    0    0  0.00000000000E+00  0.00000000000E+00  0.45593999997E+02  0.45594000000E+02  0.51100000000E-03 0.  1.
         11   -1    0    0    0    0 -0.00000000000E+00 -0.00000000000E+00 -0.45593999997E+02  0.45594000000E+02  0.51100000000E-03 0. -1.
         23    2    1    2    0    0  0.00000000000E+00 -0.35527136788E-14  0.00000000000E+00  0.91188000000E+02  0.91188000000E+02 0.  0.
    9900012    2    3    3    0    0  0.21083621286E+02 -0.23627455253E+02  0.18788394023E+02  0.54367089117E+02  0.40000011261E+02 0.  0.
         12    1    3    3    0    0 -0.21083621286E+02  0.23627455253E+02 -0.18788394023E+02  0.36820910883E+02  0.00000000000E+00 0. -1.
         11    1    4    4    0    0  0.15178436237E+02 -0.43877524942E+01  0.89087903695E+01  0.18138463129E+02  0.51100000000E-03 0. -1.
        -11    1    4    4    0    0 -0.22286024289E+01 -0.75030115672E+01 -0.94030017924E+01  0.12234308086E+02  0.51100000000E-03 0.  1.
        -12    1    4    4    0    0  0.81337874775E+01 -0.11736691192E+02  0.19282605446E+02  0.23994317903E+02  0.00000000000E+00 0.  1.
</event>
<event>
 8    1  0.1212194E-006  0.9118800E+02  0.7816164E-02  0.1184000E+00
        -11   -1    0    0    0    0  0.00000000000E+00  0.00000000000E+00  0.45593999997E+02  0.45594000000E+02  0.51100000000E-03 0. -1.
         11   -1    0    0    0    0 -0.00000000000E+00 -0.00000000000E+00 -0.45593999997E+02  0.45594000000E+02  0.51100000000E-03 0.  1.
         23    2    1    2    0    0  0.00000000000E+00 -0.35527136788E-14  0.00000000000E+00  0.91188000000E+02  0.91188000000E+02 0.  0.
    9900012    2    3    3    0    0 -0.19520885000E+02  0.19634944477E+02 -0.24273105220E+02  0.54367087018E+02  0.40000006475E+02 0.  0.
         12    1    3    3    0    0  0.19520885000E+02 -0.19634944477E+02  0.24273105220E+02  0.36820912982E+02  0.00000000000E+00 0. -1.
         11    1    4    4    0    0  0.32457315324E+01  0.53607835610E+01  0.80484439441E+01  0.10200501152E+02  0.51100000000E-03 0. -1.
        -11    1    4    4    0    0 -0.16874686467E+02  0.13747465942E+02 -0.16613671686E+02  0.27381781358E+02  0.51100000000E-03 0.  1.
         12    1    4    4    0    0 -0.58919300652E+01  0.52669497419E+00 -0.15707877479E+02  0.16784804508E+02  0.00000000000E+00 0. -1.
</event>
<event>
 8    1  0.1212194E-006  0.9118800E+02  0.7816164E-02  0.1184000E+00
        -11   -1    0    0    0    0  0.00000000000E+00  0.00000000000E+00  0.45593999997E+02  0.45594000000E+02  0.51100000000E-03 0. -1.
         11   -1    0    0    0    0 -0.00000000000E+00 -0.00000000000E+00 -0.45593999997E+02  0.45594000000E+02  0.51100000000E-03 0.  1.
         23    2    1    2    0    0 -0.35527136788E-14  0.00000000000E+00  0.35527136788E-14  0.91188000000E+02  0.91188000000E+02 0.  0.
    9900012    2    3    3    0    0  0.31242539701E+02  0.59085019212E+01 -0.18568059699E+02  0.54367088511E+02  0.40000009878E+02 0.  0.
         12    1    3    3    0    0 -0.31242539701E+02 -0.59085019212E+01  0.18568059699E+02  0.36820911489E+02  0.00000000000E+00 0. -1.
         11    1    4    4    0    0  0.94325460309E+01 -0.10519864740E+01  0.88787282192E+00  0.95324665526E+01  0.51100000000E-03 0. -1.
        -11    1    4    4    0    0  0.28598856606E+02 -0.15496039295E+01 -0.18059593405E+02  0.33859190565E+02  0.51100000000E-03 0.  1.
         12    1    4    4    0    0 -0.67888629357E+01  0.85100923248E+01 -0.13963391152E+01  0.10975431393E+02  0.00000000000E+00 0. -1.
</event>
<event>
 8    1  0.1212194E-006  0.9118800E+02  0.7816164E-02  0.1184000E+00
        -11   -1    0    0    0    0  0.00000000000E+00  0.00000000000E+00  0.45593999997E+02  0.45594000000E+02  0.51100000000E-03 0. -1.
         11   -1    0    0    0    0 -0.00000000000E+00 -0.00000000000E+00 -0.45593999997E+02  0.45594000000E+02  0.51100000000E-03 0.  1.
         23    2    1    2    0    0  0.00000000000E+00  0.11102230246E-14  0.00000000000E+00  0.91188000000E+02  0.91188000000E+02 0.  0.
    9900012    2    3    3    0    0  0.12683718253E+02 -0.13424627363E+01 -0.34541369915E+02  0.54367012091E+02  0.39999835664E+02 0.  0.
         12    1    3    3    0    0 -0.12683718253E+02  0.13424627363E+01  0.34541369915E+02  0.36820987909E+02  0.00000000000E+00 0. -1.
         11    1    4    4    0    0  0.38157844621E+01  0.22069312234E+01  0.16276806323E+01  0.46989467956E+01  0.51100000000E-03 0. -1.
        -11    1    4    4    0    0  0.72474800907E+01  0.45207557710E+01 -0.39774830809E+02  0.40681695719E+02  0.51100000000E-03 0.  1.
        -12    1    4    4    0    0  0.16204537004E+01 -0.80701497308E+01  0.36057802617E+01  0.89863695766E+01  0.00000000000E+00 0.  1.
</event>
<event>
 8    1  0.1212194E-006  0.9118800E+02  0.7816164E-02  0.1184000E+00
        -11   -1    0    0    0    0  0.00000000000E+00  0.00000000000E+00  0.45593999997E+02  0.45594000000E+02  0.51100000000E-03 0. -1.
         11   -1    0    0    0    0 -0.00000000000E+00 -0.00000000000E+00 -0.45593999997E+02  0.45594000000E+02  0.51100000000E-03 0.  1.
         23    2    1    2    0    0  0.00000000000E+00 -0.88817841970E-15  0.00000000000E+00  0.91188000000E+02  0.91188000000E+02 0.  0.
    9900012    2    3    3    0    0 -0.23783940511E+02  0.51879297091E+01 -0.27625889106E+02  0.54367079454E+02  0.39999989232E+02 0.  0.
         12    1    3    3    0    0  0.23783940511E+02 -0.51879297091E+01  0.27625889106E+02  0.36820920546E+02  0.00000000000E+00 0. -1.
         11    1    4    4    0    0 -0.14725889954E+02 -0.16431992700E+02 -0.78493654750E+01  0.23419537947E+02  0.51100000000E-03 0. -1.
        -11    1    4    4    0    0 -0.84055052691E+01  0.18207249772E+02 -0.18380987127E+02  0.27203256259E+02  0.51100000000E-03 0.  1.
         12    1    4    4    0    0 -0.65254528779E+00  0.34126726373E+01 -0.13955365045E+01  0.37442852478E+01  0.00000000000E+00 0. -1.
</event>
<event>
 8    1  0.1212194E-006  0.9118800E+02  0.7816164E-02  0.1184000E+00
        -11   -1    0    0    0    0  0.00000000000E+00  0.00000000000E+00  0.45593999997E+02  0.45594000000E+02  0.51100000000E-03 0.  1.
         11   -1    0    0    0    0 -0.00000000000E+00 -0.00000000000E+00 -0.45593999997E+02  0.45594000000E+02  0.51100000000E-03 0. -1.
         23    2    1    2    0    0  0.00000000000E+00  0.00000000000E+00 -0.17763568394E-14  0.91188000000E+02  0.91188000000E+02 0.  0.
    9900012    2    3    3    0    0 -0.32217253705E+02 -0.88752033047E+01 -0.15461543204E+02  0.54367082192E+02  0.39999995472E+02 0.  0.
        -12    1    3    3    0    0  0.32217253705E+02  0.88752033047E+01  0.15461543204E+02  0.36820917808E+02  0.00000000000E+00 0.  1.
         11    1    4    4    0    0 -0.16388868143E+00 -0.22987842578E+01 -0.72391032048E+01  0.75970970794E+01  0.51100000000E-03 0. -1.
        -11    1    4    4    0    0 -0.29553362172E+01 -0.11180601071E+02  0.70932070423E+01  0.13566629606E+02  0.51100000000E-03 0.  1.
         12    1    4    4    0    0 -0.29098028806E+02  0.46041820243E+01 -0.15315647042E+02  0.33203355506E+02  0.00000000000E+00 0. -1.
</event>
<event>
 8    1  0.1212194E-006  0.9118800E+02  0.7816164E-02  0.1184000E+00
        -11   -1    0    0    0    0  0.00000000000E+00  0.00000000000E+00  0.45593999997E+02  0.45594000000E+02  0.51100000000E-03 0.  1.
         11   -1    0    0    0    0 -0.00000000000E+00 -0.00000000000E+00 -0.45593999997E+02  0.45594000000E+02  0.51100000000E-03 0. -1.
         23    2    1    2    0    0  0.00000000000E+00  0.00000000000E+00 -0.16792123247E-14  0.91188000000E+02  0.91188000000E+02 0.  0.
    9900012    2    3    3    0    0 -0.11180877150E+02 -0.35082271688E+02  0.74127415228E-01  0.54367037281E+02  0.39999893090E+02 0.  0.
         12    1    3    3    0    0  0.11180877150E+02  0.35082271688E+02 -0.74127415228E-01  0.36820962719E+02  0.00000000000E+00 0. -1.
         11    1    4    4    0    0 -0.21245718285E+01  0.42355869030E+01  0.31398712921E+01  0.56844343482E+01  0.51100000000E-03 0. -1.
        -11    1    4    4    0    0 -0.56653988851E-01 -0.24454744068E+02 -0.13975058297E+02  0.28166291409E+02  0.51100000000E-03 0.  1.
        -12    1    4    4    0    0 -0.89996513328E+01 -0.14863114523E+02  0.10909314420E+02  0.20516311524E+02  0.00000000000E+00 0.  1.
</event>
<event>
 8    1  0.1212194E-006  0.9118800E+02  0.7816164E-02  0.1184000E+00
        -11   -1    0    0    0    0  0.00000000000E+00  0.00000000000E+00  0.45593999997E+02  0.45594000000E+02  0.51100000000E-03 0.  1.
         11   -1    0    0    0    0 -0.00000000000E+00 -0.00000000000E+00 -0.45593999997E+02  0.45594000000E+02  0.51100000000E-03 0. -1.
         23    2    1    2    0    0  0.00000000000E+00  0.00000000000E+00  0.00000000000E+00  0.91188000000E+02  0.91188000000E+02 0.  0.
    9900012    2    3    3    0    0 -0.10586085647E+02 -0.93045807348E+01  0.34016760143E+02  0.54367076565E+02  0.39999982646E+02 0.  0.
         12    1    3    3    0    0  0.10586085647E+02  0.93045807348E+01 -0.34016760143E+02  0.36820923435E+02  0.00000000000E+00 0. -1.
         11    1    4    4    0    0  0.13678627256E+01 -0.97421858921E+00 -0.80868454148E+00  0.18638994727E+01  0.51100000000E-03 0. -1.
        -11    1    4    4    0    0 -0.12080099390E+02 -0.12519032518E+02 -0.29716918996E-01  0.17397007208E+02  0.51100000000E-03 0.  1.
        -12    1    4    4    0    0  0.12615101725E+00  0.41886703720E+01  0.34855161603E+02  0.35106169884E+02  0.00000000000E+00 0.  1.
</event>
<event>
 8    1  0.1212194E-006  0.9118800E+02  0.7816164E-02  0.1184000E+00
        -11   -1    0    0    0    0  0.00000000000E+00  0.00000000000E+00  0.45593999997E+02  0.45594000000E+02  0.51100000000E-03 0.  1.
         11   -1    0    0    0    0 -0.00000000000E+00 -0.00000000000E+00 -0.45593999997E+02  0.45594000000E+02  0.51100000000E-03 0. -1.
         23    2    1    2    0    0  0.00000000000E+00 -0.16930901126E-14  0.00000000000E+00  0.91188000000E+02  0.91188000000E+02 0.  0.
    9900012    2    3    3    0    0  0.18293279116E+02 -0.22625967663E+00  0.31954412920E+02  0.54367085300E+02  0.40000002559E+02 0.  0.
         12    1    3    3    0    0 -0.18293279116E+02  0.22625967663E+00 -0.31954412920E+02  0.36820914700E+02  0.00000000000E+00 0. -1.
         11    1    4    4    0    0 -0.69256014324E+01 -0.32366146198E+01  0.10024874279E+02  0.12607050963E+02  0.51100000000E-03 0. -1.
        -11    1    4    4    0    0  0.24462081905E+02  0.11488991667E+02  0.16575571991E+02  0.31703942464E+02  0.51100000000E-03 0.  1.
        -12    1    4    4    0    0  0.75679864430E+00 -0.84786367243E+01  0.53539666492E+01  0.10056091874E+02  0.00000000000E+00 0.  1.
</event>
<event>
 8    1  0.1212194E-006  0.9118800E+02  0.7816164E-02  0.1184000E+00
        -11   -1    0    0    0    0  0.00000000000E+00  0.00000000000E+00  0.45593999997E+02  0.45594000000E+02  0.51100000000E-03 0.  1.
         11   -1    0    0    0    0 -0.00000000000E+00 -0.00000000000E+00 -0.45593999997E+02  0.45594000000E+02  0.51100000000E-03 0. -1.
         23    2    1    2    0    0  0.35527136788E-14  0.11102230246E-15  0.00000000000E+00  0.91188000000E+02  0.91188000000E+02 0.  0.
    9900012    2    3    3    0    0 -0.24981043365E+02  0.68399346440E+00  0.27041734832E+02  0.54367139101E+02  0.40000125207E+02 0.  0.
         12    1    3    3    0    0  0.24981043365E+02 -0.68399346440E+00 -0.27041734832E+02  0.36820860899E+02  0.00000000000E+00 0. -1.
         11    1    4    4    0    0 -0.14036053275E+02 -0.13537515215E+02  0.21483774156E+01  0.19618629807E+02  0.51100000000E-03 0.  1.
        -11    1    4    4    0    0 -0.93288197171E+01  0.16432219115E+02  0.14001841562E+02  0.23517998847E+02  0.51100000000E-03 0. -1.
         12    1    4    4    0    0 -0.16161703729E+01 -0.22107104353E+01  0.10891515854E+02  0.11230510447E+02  0.00000000000E+00 0. -1.
</event>
<event>
 8    1  0.1212194E-006  0.9118800E+02  0.7816164E-02  0.1184000E+00
        -11   -1    0    0    0    0  0.00000000000E+00  0.00000000000E+00  0.45593999997E+02  0.45594000000E+02  0.51100000000E-03 0. -1.
         11   -1    0    0    0    0 -0.00000000000E+00 -0.00000000000E+00 -0.45593999997E+02  0.45594000000E+02  0.51100000000E-03 0.  1.
         23    2    1    2    0    0  0.00000000000E+00  0.17763568394E-14  0.00000000000E+00  0.91188000000E+02  0.91188000000E+02 0.  0.
    9900012    2    3    3    0    0 -0.28993279074E+02 -0.12360813720E+02 -0.19036260494E+02  0.54367093427E+02  0.40000021084E+02 0.  0.
         12    1    3    3    0    0  0.28993279074E+02  0.12360813720E+02  0.19036260494E+02  0.36820906573E+02  0.00000000000E+00 0. -1.
         11    1    4    4    0    0  0.65258380735E+01 -0.24195993353E+01 -0.14667052671E+02  0.16234637594E+02  0.51100000000E-03 0. -1.
        -11    1    4    4    0    0 -0.20611320529E+02 -0.27710746932E+01 -0.56200696759E+01  0.21542761483E+02  0.51100000000E-03 0.  1.
        -12    1    4    4    0    0 -0.14907796619E+02 -0.71701396918E+01  0.12508618526E+01  0.16589694349E+02  0.00000000000E+00 0.  1.
</event>
<event>
 8    1  0.1212194E-006  0.9118800E+02  0.7816164E-02  0.1184000E+00
        -11   -1    0    0    0    0  0.00000000000E+00  0.00000000000E+00  0.45593999997E+02  0.45594000000E+02  0.51100000000E-03 0. -1.
         11   -1    0    0    0    0 -0.00000000000E+00 -0.00000000000E+00 -0.45593999997E+02  0.45594000000E+02  0.51100000000E-03 0.  1.
         23    2    1    2    0    0  0.17763568394E-14  0.00000000000E+00  0.00000000000E+00  0.91188000000E+02  0.91188000000E+02 0.  0.
    9900012    2    3    3    0    0 -0.63040791925E+01  0.19185999086E+02 -0.30788575545E+02  0.54367077151E+02  0.39999983980E+02 0.  0.
         12    1    3    3    0    0  0.63040791925E+01 -0.19185999086E+02  0.30788575545E+02  0.36820922849E+02  0.00000000000E+00 0. -1.
         11    1    4    4    0    0  0.85476905462E+01  0.39327380438E+00 -0.24898083880E+02  0.26327405096E+02  0.51100000000E-03 0. -1.
        -11    1    4    4    0    0 -0.49801349943E+01 -0.10713743087E+01 -0.22176970474E+01  0.55558768818E+01  0.51100000000E-03 0.  1.
         12    1    4    4    0    0 -0.98716347444E+01  0.19864099590E+02 -0.36727946180E+01  0.22483795172E+02  0.00000000000E+00 0. -1.
</event>
<event>
 8    1  0.1212194E-006  0.9118800E+02  0.7816164E-02  0.1184000E+00
        -11   -1    0    0    0    0  0.00000000000E+00  0.00000000000E+00  0.45593999997E+02  0.45594000000E+02  0.51100000000E-03 0. -1.
         11   -1    0    0    0    0 -0.00000000000E+00 -0.00000000000E+00 -0.45593999997E+02  0.45594000000E+02  0.51100000000E-03 0.  1.
         23    2    1    2    0    0  0.00000000000E+00 -0.17763568394E-14 -0.44408920985E-15  0.91188000000E+02  0.91188000000E+02 0.  0.
    9900012    2    3    3    0    0 -0.33086590608E+02  0.15961519006E+02  0.25076304391E+01  0.54367071475E+02  0.39999971042E+02 0.  0.
        -12    1    3    3    0    0  0.33086590608E+02 -0.15961519006E+02 -0.25076304391E+01  0.36820928525E+02  0.00000000000E+00 0.  1.
         11    1    4    4    0    0 -0.97266495826E+01  0.76676003366E+01  0.21330267993E+01  0.12567800548E+02  0.51100000000E-03 0. -1.
        -11    1    4    4    0    0 -0.51974883948E+01  0.70153053160E+01 -0.15403991147E+02  0.17706251376E+02  0.51100000000E-03 0.  1.
         12    1    4    4    0    0 -0.18162452630E+02  0.12786133532E+01  0.15778594786E+02  0.24093019551E+02  0.00000000000E+00 0. -1.
</event>
<event>
 8    1  0.1212194E-006  0.9118800E+02  0.7816164E-02  0.1184000E+00
        -11   -1    0    0    0    0  0.00000000000E+00  0.00000000000E+00  0.45593999997E+02  0.45594000000E+02  0.51100000000E-03 0. -1.
         11   -1    0    0    0    0 -0.00000000000E+00 -0.00000000000E+00 -0.45593999997E+02  0.45594000000E+02  0.51100000000E-03 0.  1.
         23    2    1    2    0    0  0.35527136788E-14  0.35527136788E-14  0.00000000000E+00  0.91188000000E+02  0.91188000000E+02 0.  0.
    9900012    2    3    3    0    0  0.16858242154E+02  0.31110809659E+02 -0.10182680650E+02  0.54367220658E+02  0.40000311132E+02 0.  0.
         12    1    3    3    0    0 -0.16858242154E+02 -0.31110809659E+02  0.10182680650E+02  0.36820779342E+02  0.00000000000E+00 0. -1.
         11    1    4    4    0    0 -0.50133026499E+01 -0.27678246854E+01 -0.36839273257E+01  0.68092127116E+01  0.51100000000E-03 0. -1.
        -11    1    4    4    0    0  0.55254361393E+01  0.15205935944E+02 -0.14249478185E+02  0.21559187398E+02  0.51100000000E-03 0.  1.
        -12    1    4    4    0    0  0.16346108664E+02  0.18672698400E+02  0.77507248610E+01  0.25998820548E+02  0.00000000000E+00 0.  1.
</event>
<event>
 8    1  0.1212194E-006  0.9118800E+02  0.7816164E-02  0.1184000E+00
        -11   -1    0    0    0    0  0.00000000000E+00  0.00000000000E+00  0.45593999997E+02  0.45594000000E+02  0.51100000000E-03 0.  1.
         11   -1    0    0    0    0 -0.00000000000E+00 -0.00000000000E+00 -0.45593999997E+02  0.45594000000E+02  0.51100000000E-03 0. -1.
         23    2    1    2    0    0  0.00000000000E+00  0.00000000000E+00  0.00000000000E+00  0.91188000000E+02  0.91188000000E+02 0.  0.
    9900012    2    3    3    0    0  0.33268763796E+02  0.12583518292E+02 -0.95198191797E+01  0.54367047618E+02  0.39999916655E+02 0.  0.
         12    1    3    3    0    0 -0.33268763796E+02 -0.12583518292E+02  0.95198191797E+01  0.36820952382E+02  0.00000000000E+00 0. -1.
         11    1    4    4    0    0  0.70858539975E+01  0.20907454761E+02 -0.54995399004E+01  0.22750295181E+02  0.51100000000E-03 0. -1.
        -11    1    4    4    0    0  0.60383340617E+01 -0.20400389832E+01 -0.79110525963E+01  0.10159133365E+02  0.51100000000E-03 0.  1.
        -12    1    4    4    0    0  0.20144575736E+02 -0.62838974856E+01  0.38907733171E+01  0.21457619071E+02  0.00000000000E+00 0.  1.
</event>
<event>
 8    1  0.1212194E-006  0.9118800E+02  0.7816164E-02  0.1184000E+00
        -11   -1    0    0    0    0  0.00000000000E+00  0.00000000000E+00  0.45593999997E+02  0.45594000000E+02  0.51100000000E-03 0.  1.
         11   -1    0    0    0    0 -0.00000000000E+00 -0.00000000000E+00 -0.45593999997E+02  0.45594000000E+02  0.51100000000E-03 0. -1.
         23    2    1    2    0    0 -0.35527136788E-14  0.66613381478E-15  0.00000000000E+00  0.91188000000E+02  0.91188000000E+02 0.  0.
    9900012    2    3    3    0    0  0.24052667778E+02  0.16666730602E+01 -0.27829335196E+02  0.54367074920E+02  0.39999978894E+02 0.  0.
        -12    1    3    3    0    0 -0.24052667778E+02 -0.16666730602E+01  0.27829335196E+02  0.36820925080E+02  0.00000000000E+00 0.  1.
         11    1    4    4    0    0  0.18897238181E+01 -0.79859379113E+01 -0.19053389215E+02  0.20745551361E+02  0.51100000000E-03 0. -1.
        -11    1    4    4    0    0  0.58836878774E+01 -0.57775103380E+01  0.23630492716E+01  0.85779607638E+01  0.51100000000E-03 0.  1.
        -12    1    4    4    0    0  0.16279256082E+02  0.15430121309E+02 -0.11138995253E+02  0.25043562795E+02  0.00000000000E+00 0.  1.
</event>
<event>
 8    1  0.1212194E-006  0.9118800E+02  0.7816164E-02  0.1184000E+00
        -11   -1    0    0    0    0  0.00000000000E+00  0.00000000000E+00  0.45593999997E+02  0.45594000000E+02  0.51100000000E-03 0. -1.
         11   -1    0    0    0    0 -0.00000000000E+00 -0.00000000000E+00 -0.45593999997E+02  0.45594000000E+02  0.51100000000E-03 0.  1.
         23    2    1    2    0    0  0.00000000000E+00 -0.35527136788E-14  0.00000000000E+00  0.91188000000E+02  0.91188000000E+02 0.  0.
    9900012    2    3    3    0    0 -0.17950816668E+02 -0.30533724311E+02  0.10061704058E+02  0.54367108812E+02  0.40000056159E+02 0.  0.
        -12    1    3    3    0    0  0.17950816668E+02  0.30533724311E+02 -0.10061704058E+02  0.36820891188E+02  0.00000000000E+00 0.  1.
         11    1    4    4    0    0 -0.11516774456E+02 -0.16854002098E+02  0.19293470031E+02  0.28087923859E+02  0.51100000000E-03 0. -1.
        -11    1    4    4    0    0  0.53248350520E+01 -0.33420052827E+01 -0.85433114426E+01  0.10607122056E+02  0.51100000000E-03 0.  1.
         12    1    4    4    0    0 -0.11758877264E+02 -0.10337716929E+02 -0.68845452989E+00  0.15672062897E+02  0.00000000000E+00 0. -1.
</event>
<event>
 8    1  0.1212194E-006  0.9118800E+02  0.7816164E-02  0.1184000E+00
        -11   -1    0    0    0    0  0.00000000000E+00  0.00000000000E+00  0.45593999997E+02  0.45594000000E+02  0.51100000000E-03 0.  1.
         11   -1    0    0    0    0 -0.00000000000E+00 -0.00000000000E+00 -0.45593999997E+02  0.45594000000E+02  0.51100000000E-03 0. -1.
         23    2    1    2    0    0 -0.35527136788E-14  0.00000000000E+00  0.00000000000E+00  0.91188000000E+02  0.91188000000E+02 0.  0.
    9900012    2    3    3    0    0 -0.16738984600E+02  0.25207463543E+02 -0.20980306387E+02  0.54367040210E+02  0.39999899767E+02 0.  0.
         12    1    3    3    0    0  0.16738984600E+02 -0.25207463543E+02  0.20980306387E+02  0.36820959790E+02  0.00000000000E+00 0. -1.
         11    1    4    4    0    0 -0.60150815001E+01  0.19318688935E+01  0.92494780086E+01  0.11201168089E+02  0.51100000000E-03 0. -1.
        -11    1    4    4    0    0 -0.47983112358E+01  0.12431062789E+02 -0.35912373125E+01  0.13800438343E+02  0.51100000000E-03 0.  1.
         12    1    4    4    0    0 -0.59255918643E+01  0.10844531861E+02 -0.26638547084E+02  0.29365433778E+02  0.00000000000E+00 0. -1.
</event>
<event>
 8    1  0.1212194E-006  0.9118800E+02  0.7816164E-02  0.1184000E+00
        -11   -1    0    0    0    0  0.00000000000E+00  0.00000000000E+00  0.45593999997E+02  0.45594000000E+02  0.51100000000E-03 0. -1.
         11   -1    0    0    0    0 -0.00000000000E+00 -0.00000000000E+00 -0.45593999997E+02  0.45594000000E+02  0.51100000000E-03 0.  1.
         23    2    1    2    0    0  0.71054273576E-14  0.00000000000E+00  0.35527136788E-14  0.91188000000E+02  0.91188000000E+02 0.  0.
    9900012    2    3    3    0    0 -0.27208589383E+02  0.19761833622E+02 -0.14998093794E+02  0.54367079021E+02  0.39999988244E+02 0.  0.
         12    1    3    3    0    0  0.27208589383E+02 -0.19761833622E+02  0.14998093794E+02  0.36820920979E+02  0.00000000000E+00 0. -1.
         11    1    4    4    0    0 -0.46687515489E+01 -0.21479862879E+01  0.10509641444E+02  0.11698873863E+02  0.51100000000E-03 0. -1.
        -11    1    4    4    0    0 -0.68182542794E+00  0.51147098061E+01 -0.71878749499E-01  0.51604562910E+01  0.51100000000E-03 0.  1.
        -12    1    4    4    0    0 -0.21858012406E+02  0.16795110104E+02 -0.25435856489E+02  0.37507748867E+02  0.00000000000E+00 0.  1.
</event>
<event>
 8    1  0.1212194E-006  0.9118800E+02  0.7816164E-02  0.1184000E+00
        -11   -1    0    0    0    0  0.00000000000E+00  0.00000000000E+00  0.45593999997E+02  0.45594000000E+02  0.51100000000E-03 0.  1.
         11   -1    0    0    0    0 -0.00000000000E+00 -0.00000000000E+00 -0.45593999997E+02  0.45594000000E+02  0.51100000000E-03 0. -1.
         23    2    1    2    0    0 -0.71054273576E-14  0.35527136788E-14  0.17763568394E-14  0.91188000000E+02  0.91188000000E+02 0.  0.
    9900012    2    3    3    0    0  0.21876310256E+02 -0.28271651179E+02  0.88272749693E+01  0.54367082111E+02  0.39999995288E+02 0.  0.
         12    1    3    3    0    0 -0.21876310256E+02  0.28271651179E+02 -0.88272749693E+01  0.36820917889E+02  0.00000000000E+00 0. -1.
         11    1    4    4    0    0  0.18868968939E+01  0.37831798217E+01  0.60001870333E+01  0.73399641789E+01  0.51100000000E-03 0. -1.
        -11    1    4    4    0    0  0.18992113159E+02 -0.12493368245E+02  0.11650691316E+02  0.25544534068E+02  0.51100000000E-03 0.  1.
         12    1    4    4    0    0  0.99730020285E+00 -0.19561462756E+02 -0.88236033804E+01  0.21482583864E+02  0.00000000000E+00 0. -1.
</event>
<event>
 8    1  0.1212194E-006  0.9118800E+02  0.7816164E-02  0.1184000E+00
        -11   -1    0    0    0    0  0.00000000000E+00  0.00000000000E+00  0.45593999997E+02  0.45594000000E+02  0.51100000000E-03 0. -1.
         11   -1    0    0    0    0 -0.00000000000E+00 -0.00000000000E+00 -0.45593999997E+02  0.45594000000E+02  0.51100000000E-03 0.  1.
         23    2    1    2    0    0  0.17763568394E-14 -0.35527136788E-14  0.35527136788E-14  0.91188000000E+02  0.91188000000E+02 0.  0.
    9900012    2    3    3    0    0  0.10592405143E+02  0.20144624986E+02  0.28944216640E+02  0.54367181983E+02  0.40000222966E+02 0.  0.
        -12    1    3    3    0    0 -0.10592405143E+02 -0.20144624986E+02 -0.28944216640E+02  0.36820818017E+02  0.00000000000E+00 0.  1.
         11    1    4    4    0    0  0.12111798079E+02  0.26169924724E+02  0.24330670915E+02  0.37729857675E+02  0.51100000000E-03 0. -1.
        -11    1    4    4    0    0 -0.80823869415E+01 -0.35184512921E+01  0.36712132085E+01  0.95489415566E+01  0.51100000000E-03 0.  1.
         12    1    4    4    0    0  0.65629940053E+01 -0.25068484466E+01  0.94233251727E+00  0.70883827507E+01  0.00000000000E+00 0. -1.
</event>
<event>
 8    1  0.1212194E-006  0.9118800E+02  0.7816164E-02  0.1184000E+00
        -11   -1    0    0    0    0  0.00000000000E+00  0.00000000000E+00  0.45593999997E+02  0.45594000000E+02  0.51100000000E-03 0.  1.
         11   -1    0    0    0    0 -0.00000000000E+00 -0.00000000000E+00 -0.45593999997E+02  0.45594000000E+02  0.51100000000E-03 0. -1.
         23    2    1    2    0    0  0.00000000000E+00  0.00000000000E+00  0.35527136788E-14  0.91188000000E+02  0.91188000000E+02 0.  0.
    9900012    2    3    3    0    0 -0.13003179205E+02  0.18492329150E+02 -0.29064239514E+02  0.54367096625E+02  0.40000028376E+02 0.  0.
        -12    1    3    3    0    0  0.13003179205E+02 -0.18492329150E+02  0.29064239514E+02  0.36820903375E+02  0.00000000000E+00 0.  1.
         11    1    4    4    0    0 -0.43551015578E+01  0.30254153593E+01 -0.99495371496E+00  0.53953666077E+01  0.51100000000E-03 0. -1.
        -11    1    4    4    0    0 -0.12327313993E+01  0.16673735090E+02  0.30180428893E+01  0.16989457075E+02  0.51100000000E-03 0.  1.
         12    1    4    4    0    0 -0.74153462482E+01 -0.12068212989E+01 -0.31087328688E+02  0.31982272943E+02  0.00000000000E+00 0. -1.
</event>
<event>
 8    1  0.1212194E-006  0.9118800E+02  0.7816164E-02  0.1184000E+00
        -11   -1    0    0    0    0  0.00000000000E+00  0.00000000000E+00  0.45593999997E+02  0.45594000000E+02  0.51100000000E-03 0.  1.
         11   -1    0    0    0    0 -0.00000000000E+00 -0.00000000000E+00 -0.45593999997E+02  0.45594000000E+02  0.51100000000E-03 0. -1.
         23    2    1    2    0    0  0.00000000000E+00  0.17763568394E-14 -0.35527136788E-14  0.91188000000E+02  0.91188000000E+02 0.  0.
    9900012    2    3    3    0    0  0.27684972926E+02 -0.15382564595E+02  0.18780270926E+02  0.54367087525E+02  0.40000007631E+02 0.  0.
         12    1    3    3    0    0 -0.27684972926E+02  0.15382564595E+02 -0.18780270926E+02  0.36820912475E+02  0.00000000000E+00 0. -1.
         11    1    4    4    0    0 -0.50746496141E+01  0.64432209071E+01 -0.33595724398E+01  0.88630633307E+01  0.51100000000E-03 0. -1.
        -11    1    4    4    0    0  0.58356100899E+01 -0.24737908856E+01  0.17357883690E+01  0.65716777150E+01  0.51100000000E-03 0.  1.
         12    1    4    4    0    0  0.26924012450E+02 -0.19351994616E+02  0.20404054997E+02  0.38932346479E+02  0.00000000000E+00 0. -1.
</event>
<event>
 8    1  0.1212194E-006  0.9118800E+02  0.7816164E-02  0.1184000E+00
        -11   -1    0    0    0    0  0.00000000000E+00  0.00000000000E+00  0.45593999997E+02  0.45594000000E+02  0.51100000000E-03 0. -1.
         11   -1    0    0    0    0 -0.00000000000E+00 -0.00000000000E+00 -0.45593999997E+02  0.45594000000E+02  0.51100000000E-03 0.  1.
         23    2    1    2    0    0  0.00000000000E+00  0.00000000000E+00  0.35527136788E-14  0.91188000000E+02  0.91188000000E+02 0.  0.
    9900012    2    3    3    0    0 -0.21279340611E+02  0.12833607648E+02 -0.27171077207E+02  0.54367092099E+02  0.40000018057E+02 0.  0.
         12    1    3    3    0    0  0.21279340611E+02 -0.12833607648E+02  0.27171077207E+02  0.36820907901E+02  0.00000000000E+00 0. -1.
         11    1    4    4    0    0 -0.25835175599E+01  0.10362236580E+01  0.10849308772E+01  0.29875404133E+01  0.51100000000E-03 0. -1.
        -11    1    4    4    0    0 -0.25692370950E+02  0.19668637648E+02 -0.22052790548E+02  0.39157104121E+02  0.51100000000E-03 0.  1.
         12    1    4    4    0    0  0.69965478988E+01 -0.78712536584E+01 -0.62032175367E+01  0.12222447564E+02  0.00000000000E+00 0. -1.
</event>
<event>
 8    1  0.1212194E-006  0.9118800E+02  0.7816164E-02  0.1184000E+00
        -11   -1    0    0    0    0  0.00000000000E+00  0.00000000000E+00  0.45593999997E+02  0.45594000000E+02  0.51100000000E-03 0. -1.
         11   -1    0    0    0    0 -0.00000000000E+00 -0.00000000000E+00 -0.45593999997E+02  0.45594000000E+02  0.51100000000E-03 0.  1.
         23    2    1    2    0    0  0.00000000000E+00  0.00000000000E+00 -0.35527136788E-14  0.91188000000E+02  0.91188000000E+02 0.  0.
    9900012    2    3    3    0    0 -0.12614818233E+02  0.16762389131E+02 -0.30260002882E+02  0.54367094215E+02  0.40000022881E+02 0.  0.
         12    1    3    3    0    0  0.12614818233E+02 -0.16762389131E+02  0.30260002882E+02  0.36820905785E+02  0.00000000000E+00 0. -1.
         11    1    4    4    0    0  0.61407200978E+01  0.92753426786E+01 -0.66610424905E+01  0.12965720668E+02  0.51100000000E-03 0. -1.
        -11    1    4    4    0    0 -0.14486578134E+02  0.17706355878E+02 -0.17081155227E+02  0.28550689110E+02  0.51100000000E-03 0.  1.
        -12    1    4    4    0    0 -0.42689601973E+01 -0.10219309426E+02 -0.65178051643E+01  0.12850684436E+02  0.00000000000E+00 0.  1.
</event>
<event>
 8    1  0.1212194E-006  0.9118800E+02  0.7816164E-02  0.1184000E+00
        -11   -1    0    0    0    0  0.00000000000E+00  0.00000000000E+00  0.45593999997E+02  0.45594000000E+02  0.51100000000E-03 0.  1.
         11   -1    0    0    0    0 -0.00000000000E+00 -0.00000000000E+00 -0.45593999997E+02  0.45594000000E+02  0.51100000000E-03 0. -1.
         23    2    1    2    0    0 -0.35527136788E-14 -0.17763568394E-14  0.35527136788E-14  0.91188000000E+02  0.91188000000E+02 0.  0.
    9900012    2    3    3    0    0 -0.22190409567E+02 -0.12097817719E+02  0.26777047123E+02  0.54367058636E+02  0.39999941772E+02 0.  0.
         12    1    3    3    0    0  0.22190409567E+02  0.12097817719E+02 -0.26777047123E+02  0.36820941364E+02  0.00000000000E+00 0. -1.
         11    1    4    4    0    0 -0.93634492328E+01  0.13369439443E+01 -0.94333747399E+01  0.13358523866E+02  0.51100000000E-03 0. -1.
        -11    1    4    4    0    0 -0.28051300955E+01 -0.20861160580E+01  0.11586398241E+02  0.12102283236E+02  0.51100000000E-03 0.  1.
         12    1    4    4    0    0 -0.10021830239E+02 -0.11348645605E+02  0.24624023622E+02  0.28906251534E+02  0.00000000000E+00 0. -1.
</event>
<event>
 8    1  0.1212194E-006  0.9118800E+02  0.7816164E-02  0.1184000E+00
        -11   -1    0    0    0    0  0.00000000000E+00  0.00000000000E+00  0.45593999997E+02  0.45594000000E+02  0.51100000000E-03 0.  1.
         11   -1    0    0    0    0 -0.00000000000E+00 -0.00000000000E+00 -0.45593999997E+02  0.45594000000E+02  0.51100000000E-03 0. -1.
         23    2    1    2    0    0  0.88817841970E-15 -0.35527136788E-14  0.00000000000E+00  0.91188000000E+02  0.91188000000E+02 0.  0.
    9900012    2    3    3    0    0  0.24900322607E+01 -0.25202331591E+02  0.26728667266E+02  0.54367089743E+02  0.40000012688E+02 0.  0.
         12    1    3    3    0    0 -0.24900322607E+01  0.25202331591E+02 -0.26728667266E+02  0.36820910257E+02  0.00000000000E+00 0. -1.
         11    1    4    4    0    0  0.36325809006E+01  0.20384966896E+01 -0.36791566275E+01  0.55576349740E+01  0.51100000000E-03 0. -1.
        -11    1    4    4    0    0 -0.12360829577E+02 -0.23138943576E+02  0.20665837496E+02  0.33395773046E+02  0.51100000000E-03 0.  1.
         12    1    4    4    0    0  0.11218280937E+02 -0.41018847044E+01  0.97419863979E+01  0.15413681724E+02  0.00000000000E+00 0. -1.
</event>
<event>
 8    1  0.1212194E-006  0.9118800E+02  0.7816164E-02  0.1184000E+00
        -11   -1    0    0    0    0  0.00000000000E+00  0.00000000000E+00  0.45593999997E+02  0.45594000000E+02  0.51100000000E-03 0.  1.
         11   -1    0    0    0    0 -0.00000000000E+00 -0.00000000000E+00 -0.45593999997E+02  0.45594000000E+02  0.51100000000E-03 0. -1.
         23    2    1    2    0    0  0.35527136788E-14  0.00000000000E+00  0.00000000000E+00  0.91188000000E+02  0.91188000000E+02 0.  0.
    9900012    2    3    3    0    0  0.23556587463E+02 -0.17493450709E+02 -0.22245047377E+02  0.54367139562E+02  0.40000126259E+02 0.  0.
        -12    1    3    3    0    0 -0.23556587463E+02  0.17493450709E+02  0.22245047377E+02  0.36820860438E+02  0.00000000000E+00 0.  1.
         11    1    4    4    0    0  0.12594196385E+02 -0.30503908478E+01 -0.14443098973E+02  0.19404169014E+02  0.51100000000E-03 0.  1.
        -11    1    4    4    0    0  0.81121300567E+01 -0.13288252605E+02 -0.18298380032E+02  0.24025299653E+02  0.51100000000E-03 0. -1.
        -12    1    4    4    0    0  0.28502610206E+01 -0.11548072566E+01  0.10496431628E+02  0.10937670895E+02  0.00000000000E+00 0.  1.
</event>
<event>
 8    1  0.1212194E-006  0.9118800E+02  0.7816164E-02  0.1184000E+00
        -11   -1    0    0    0    0  0.00000000000E+00  0.00000000000E+00  0.45593999997E+02  0.45594000000E+02  0.51100000000E-03 0.  1.
         11   -1    0    0    0    0 -0.00000000000E+00 -0.00000000000E+00 -0.45593999997E+02  0.45594000000E+02  0.51100000000E-03 0. -1.
         23    2    1    2    0    0  0.00000000000E+00  0.88817841970E-15 -0.17763568394E-14  0.91188000000E+02  0.91188000000E+02 0.  0.
    9900012    2    3    3    0    0 -0.35708398570E+02  0.57904660656E+01 -0.68673671086E+01  0.54367082621E+02  0.39999996450E+02 0.  0.
        -12    1    3    3    0    0  0.35708398570E+02 -0.57904660656E+01  0.68673671086E+01  0.36820917379E+02  0.00000000000E+00 0.  1.
         11    1    4    4    0    0 -0.16733978051E+02  0.10248831640E+02  0.13529771633E+02  0.23835253137E+02  0.51100000000E-03 0. -1.
        -11    1    4    4    0    0 -0.25860952185E+01 -0.48529683921E+01 -0.19049918348E+01  0.58196378621E+01  0.51100000000E-03 0.  1.
         12    1    4    4    0    0 -0.16388325300E+02  0.39460281785E+00 -0.18492146907E+02  0.24712191622E+02  0.00000000000E+00 0. -1.
</event>
<event>
 8    1  0.1212194E-006  0.9118800E+02  0.7816164E-02  0.1184000E+00
        -11   -1    0    0    0    0  0.00000000000E+00  0.00000000000E+00  0.45593999997E+02  0.45594000000E+02  0.51100000000E-03 0.  1.
         11   -1    0    0    0    0 -0.00000000000E+00 -0.00000000000E+00 -0.45593999997E+02  0.45594000000E+02  0.51100000000E-03 0. -1.
         23    2    1    2    0    0  0.35527136788E-14 -0.66613381478E-15  0.00000000000E+00  0.91188000000E+02  0.91188000000E+02 0.  0.
    9900012    2    3    3    0    0  0.21437112802E+02 -0.11845703770E+01  0.29913614006E+02  0.54367118490E+02  0.40000078222E+02 0.  0.
         12    1    3    3    0    0 -0.21437112802E+02  0.11845703770E+01 -0.29913614006E+02  0.36820881510E+02  0.00000000000E+00 0. -1.
         11    1    4    4    0    0  0.99324086930E+01  0.10099108397E+00 -0.25743620276E+01  0.10261105289E+02  0.51100000000E-03 0. -1.
        -11    1    4    4    0    0  0.10521474085E+02  0.12210359766E+02  0.20059687653E+02  0.25732962743E+02  0.51100000000E-03 0.  1.
        -12    1    4    4    0    0  0.98323002413E+00 -0.13495921227E+02  0.12428288381E+02  0.18373050458E+02  0.00000000000E+00 0.  1.
</event>
<event>
 8    1  0.1212194E-006  0.9118800E+02  0.7816164E-02  0.1184000E+00
        -11   -1    0    0    0    0  0.00000000000E+00  0.00000000000E+00  0.45593999997E+02  0.45594000000E+02  0.51100000000E-03 0.  1.
         11   -1    0    0    0    0 -0.00000000000E+00 -0.00000000000E+00 -0.45593999997E+02  0.45594000000E+02  0.51100000000E-03 0. -1.
         23    2    1    2    0    0  0.00000000000E+00  0.00000000000E+00  0.35527136788E-14  0.91188000000E+02  0.91188000000E+02 0.  0.
    9900012    2    3    3    0    0  0.11950651686E+02 -0.15591403128E+02  0.31142731585E+02  0.54367086679E+02  0.40000005702E+02 0.  0.
         12    1    3    3    0    0 -0.11950651686E+02  0.15591403128E+02 -0.31142731585E+02  0.36820913321E+02  0.00000000000E+00 0. -1.
         11    1    4    4    0    0  0.16069656000E+02 -0.19135798420E+01 -0.22374168895E+01  0.16337125401E+02  0.51100000000E-03 0. -1.
        -11    1    4    4    0    0  0.36224892845E+01 -0.62367513362E+01  0.16719533793E+02  0.18208852417E+02  0.51100000000E-03 0.  1.
         12    1    4    4    0    0 -0.77414935983E+01 -0.74410719501E+01  0.16660614681E+02  0.19821108861E+02  0.00000000000E+00 0. -1.
</event>
<event>
 8    1  0.1212194E-006  0.9118800E+02  0.7816164E-02  0.1184000E+00
        -11   -1    0    0    0    0  0.00000000000E+00  0.00000000000E+00  0.45593999997E+02  0.45594000000E+02  0.51100000000E-03 0. -1.
         11   -1    0    0    0    0 -0.00000000000E+00 -0.00000000000E+00 -0.45593999997E+02  0.45594000000E+02  0.51100000000E-03 0.  1.
         23    2    1    2    0    0  0.44408920985E-15 -0.71054273576E-14  0.88817841970E-15  0.91188000000E+02  0.91188000000E+02 0.  0.
    9900012    2    3    3    0    0 -0.23306299970E+01  0.36563316274E+02 -0.36709720311E+01  0.54367028139E+02  0.39999872249E+02 0.  0.
         12    1    3    3    0    0  0.23306299970E+01 -0.36563316274E+02  0.36709720311E+01  0.36820971861E+02  0.00000000000E+00 0. -1.
         11    1    4    4    0    0 -0.56005066744E+01  0.16563866425E+02  0.11506944766E+02  0.20931725300E+02  0.51100000000E-03 0. -1.
        -11    1    4    4    0    0  0.69798405147E+01 -0.26792023304E+00 -0.99870883620E+01  0.12187365961E+02  0.51100000000E-03 0.  1.
         12    1    4    4    0    0 -0.37099638373E+01  0.20267370082E+02 -0.51908284350E+01  0.21247936878E+02  0.00000000000E+00 0. -1.
</event>
<event>
 8    1  0.1212194E-006  0.9118800E+02  0.7816164E-02  0.1184000E+00
        -11   -1    0    0    0    0  0.00000000000E+00  0.00000000000E+00  0.45593999997E+02  0.45594000000E+02  0.51100000000E-03 0.  1.
         11   -1    0    0    0    0 -0.00000000000E+00 -0.00000000000E+00 -0.45593999997E+02  0.45594000000E+02  0.51100000000E-03 0. -1.
         23    2    1    2    0    0  0.00000000000E+00  0.88817841970E-15 -0.71054273576E-14  0.91188000000E+02  0.91188000000E+02 0.  0.
    9900012    2    3    3    0    0 -0.19204884885E+02  0.53742742368E+01 -0.30952691325E+02  0.54367088451E+02  0.40000009742E+02 0.  0.
        -12    1    3    3    0    0  0.19204884885E+02 -0.53742742368E+01  0.30952691325E+02  0.36820911549E+02  0.00000000000E+00 0.  1.
         11    1    4    4    0    0  0.52037480950E+01 -0.57975260223E+01 -0.20667177832E+02  0.22086705097E+02  0.51100000000E-03 0. -1.
        -11    1    4    4    0    0 -0.21450163356E+02  0.56472393977E+01 -0.12705774305E+02  0.25562424020E+02  0.51100000000E-03 0.  1.
        -12    1    4    4    0    0 -0.29584696241E+01  0.55245608614E+01  0.24202608121E+01  0.67179593350E+01  0.00000000000E+00 0.  1.
</event>
<event>
 8    1  0.1212194E-006  0.9118800E+02  0.7816164E-02  0.1184000E+00
        -11   -1    0    0    0    0  0.00000000000E+00  0.00000000000E+00  0.45593999997E+02  0.45594000000E+02  0.51100000000E-03 0.  1.
         11   -1    0    0    0    0 -0.00000000000E+00 -0.00000000000E+00 -0.45593999997E+02  0.45594000000E+02  0.51100000000E-03 0. -1.
         23    2    1    2    0    0  0.17763568394E-14  0.00000000000E+00  0.00000000000E+00  0.91188000000E+02  0.91188000000E+02 0.  0.
    9900012    2    3    3    0    0 -0.12268322280E+02 -0.93795014651E+01 -0.33425938157E+02  0.54367080389E+02  0.39999991363E+02 0.  0.
        -12    1    3    3    0    0  0.12268322280E+02  0.93795014651E+01  0.33425938157E+02  0.36820919611E+02  0.00000000000E+00 0.  1.
         11    1    4    4    0    0  0.95285329430E+01 -0.95029287561E+01 -0.10663542542E+02  0.17170024310E+02  0.51100000000E-03 0. -1.
        -11    1    4    4    0    0 -0.45877469401E+01 -0.77082678031E+01 -0.21458662865E+01  0.92233159380E+01  0.51100000000E-03 0.  1.
        -12    1    4    4    0    0 -0.17209108283E+02  0.78316950941E+01 -0.20616529329E+02  0.27973740141E+02  0.00000000000E+00 0.  1.
</event>
<event>
 8    1  0.1212194E-006  0.9118800E+02  0.7816164E-02  0.1184000E+00
        -11   -1    0    0    0    0  0.00000000000E+00  0.00000000000E+00  0.45593999997E+02  0.45594000000E+02  0.51100000000E-03 0. -1.
         11   -1    0    0    0    0 -0.00000000000E+00 -0.00000000000E+00 -0.45593999997E+02  0.45594000000E+02  0.51100000000E-03 0.  1.
         23    2    1    2    0    0 -0.71054273576E-14  0.00000000000E+00  0.88817841970E-15  0.91188000000E+02  0.91188000000E+02 0.  0.
    9900012    2    3    3    0    0 -0.35940651553E+02  0.58055449754E+01  0.55087135351E+01  0.54367072373E+02  0.39999973088E+02 0.  0.
        -12    1    3    3    0    0  0.35940651553E+02 -0.58055449754E+01 -0.55087135351E+01  0.36820927627E+02  0.00000000000E+00 0.  1.
         11    1    4    4    0    0 -0.20993865681E+02  0.19556868087E+02  0.11472310186E+02  0.30900281340E+02  0.51100000000E-03 0. -1.
        -11    1    4    4    0    0 -0.82406241428E+00  0.12058061510E+01 -0.20654983313E+01  0.25296898929E+01  0.51100000000E-03 0.  1.
        -12    1    4    4    0    0 -0.14122723458E+02 -0.14957129263E+02 -0.38980983198E+01  0.20937101140E+02  0.00000000000E+00 0.  1.
</event>
<event>
 8    1  0.1212194E-006  0.9118800E+02  0.7816164E-02  0.1184000E+00
        -11   -1    0    0    0    0  0.00000000000E+00  0.00000000000E+00  0.45593999997E+02  0.45594000000E+02  0.51100000000E-03 0. -1.
         11   -1    0    0    0    0 -0.00000000000E+00 -0.00000000000E+00 -0.45593999997E+02  0.45594000000E+02  0.51100000000E-03 0.  1.
         23    2    1    2    0    0  0.17763568394E-14 -0.17763568394E-14  0.00000000000E+00  0.91188000000E+02  0.91188000000E+02 0.  0.
    9900012    2    3    3    0    0  0.15178431903E+02  0.86971286202E+01 -0.32399918526E+02  0.54367087983E+02  0.40000008675E+02 0.  0.
         12    1    3    3    0    0 -0.15178431903E+02 -0.86971286202E+01  0.32399918526E+02  0.36820912017E+02  0.00000000000E+00 0. -1.
         11    1    4    4    0    0  0.14564367637E+02  0.14426771858E+02 -0.41974870377E+01  0.20925378099E+02  0.51100000000E-03 0. -1.
        -11    1    4    4    0    0  0.84612370904E+01 -0.31796515361E+01 -0.10139901952E+02  0.13583826002E+02  0.51100000000E-03 0.  1.
         12    1    4    4    0    0 -0.78471728245E+01 -0.25499917018E+01 -0.18062529536E+02  0.19857883882E+02  0.00000000000E+00 0. -1.
</event>
<event>
 8    1  0.1212194E-006  0.9118800E+02  0.7816164E-02  0.1184000E+00
        -11   -1    0    0    0    0  0.00000000000E+00  0.00000000000E+00  0.45593999997E+02  0.45594000000E+02  0.51100000000E-03 0.  1.
         11   -1    0    0    0    0 -0.00000000000E+00 -0.00000000000E+00 -0.45593999997E+02  0.45594000000E+02  0.51100000000E-03 0. -1.
         23    2    1    2    0    0  0.17763568394E-14  0.00000000000E+00 -0.35527136788E-14  0.91188000000E+02  0.91188000000E+02 0.  0.
    9900012    2    3    3    0    0  0.84884683210E+01 -0.21138742909E+02 -0.28928866633E+02  0.54367083786E+02  0.39999999106E+02 0.  0.
        -12    1    3    3    0    0 -0.84884683210E+01  0.21138742909E+02  0.28928866633E+02  0.36820916214E+02  0.00000000000E+00 0.  1.
         11    1    4    4    0    0  0.83061419124E+01 -0.12625619533E+02 -0.96622717755E+01  0.17937607371E+02  0.51100000000E-03 0. -1.
        -11    1    4    4    0    0 -0.77999311332E+01  0.13504188721E+01  0.47751535500E+01  0.92447092166E+01  0.51100000000E-03 0.  1.
        -12    1    4    4    0    0  0.79822575419E+01 -0.98635422480E+01 -0.24041748407E+02  0.27184767198E+02  0.00000000000E+00 0.  1.
</event>
<event>
 8    1  0.1212194E-006  0.9118800E+02  0.7816164E-02  0.1184000E+00
        -11   -1    0    0    0    0  0.00000000000E+00  0.00000000000E+00  0.45593999997E+02  0.45594000000E+02  0.51100000000E-03 0.  1.
         11   -1    0    0    0    0 -0.00000000000E+00 -0.00000000000E+00 -0.45593999997E+02  0.45594000000E+02  0.51100000000E-03 0. -1.
         23    2    1    2    0    0  0.00000000000E+00 -0.44408920985E-15  0.00000000000E+00  0.91188000000E+02  0.91188000000E+02 0.  0.
    9900012    2    3    3    0    0  0.22875277332E+02 -0.28393131234E+01  0.28713068131E+02  0.54367078046E+02  0.39999986022E+02 0.  0.
         12    1    3    3    0    0 -0.22875277332E+02  0.28393131234E+01 -0.28713068131E+02  0.36820921954E+02  0.00000000000E+00 0. -1.
         11    1    4    4    0    0 -0.92363245826E+00 -0.56356212837E+01 -0.55608908844E+00  0.57378183578E+01  0.51100000000E-03 0. -1.
        -11    1    4    4    0    0  0.16694755764E+02  0.12477330324E+02  0.30078650869E+02  0.36594041597E+02  0.51100000000E-03 0.  1.
        -12    1    4    4    0    0  0.71041540257E+01 -0.96810221635E+01 -0.80949364875E+00  0.12035218092E+02  0.00000000000E+00 0.  1.
</event>
<event>
 8    1  0.1212194E-006  0.9118800E+02  0.7816164E-02  0.1184000E+00
        -11   -1    0    0    0    0  0.00000000000E+00  0.00000000000E+00  0.45593999997E+02  0.45594000000E+02  0.51100000000E-03 0. -1.
         11   -1    0    0    0    0 -0.00000000000E+00 -0.00000000000E+00 -0.45593999997E+02  0.45594000000E+02  0.51100000000E-03 0.  1.
         23    2    1    2    0    0  0.35527136788E-14  0.35527136788E-14  0.00000000000E+00  0.91188000000E+02  0.91188000000E+02 0.  0.
    9900012    2    3    3    0    0 -0.23129447315E+02  0.28645445022E+02 -0.49676084157E+00  0.54367087126E+02  0.40000006721E+02 0.  0.
        -12    1    3    3    0    0  0.23129447315E+02 -0.28645445022E+02  0.49676084157E+00  0.36820912874E+02  0.00000000000E+00 0.  1.
         11    1    4    4    0    0 -0.12366284625E+02  0.17018586985E+02  0.12736109136E+02  0.24591985983E+02  0.51100000000E-03 0. -1.
        -11    1    4    4    0    0  0.28426061526E+01  0.10958322615E-01 -0.11448926312E+02  0.11796543721E+02  0.51100000000E-03 0.  1.
        -12    1    4    4    0    0 -0.13605768842E+02  0.11615899714E+02 -0.17839436662E+01  0.17978557422E+02  0.00000000000E+00 0.  1.
</event>
<event>
 8    1  0.1212194E-006  0.9118800E+02  0.7816164E-02  0.1184000E+00
        -11   -1    0    0    0    0  0.00000000000E+00  0.00000000000E+00  0.45593999997E+02  0.45594000000E+02  0.51100000000E-03 0. -1.
         11   -1    0    0    0    0 -0.00000000000E+00 -0.00000000000E+00 -0.45593999997E+02  0.45594000000E+02  0.51100000000E-03 0.  1.
         23    2    1    2    0    0 -0.35527136788E-14 -0.16653345369E-15  0.00000000000E+00  0.91188000000E+02  0.91188000000E+02 0.  0.
    9900012    2    3    3    0    0  0.25000482473E+02  0.38565880258E+00  0.27029727532E+02  0.54367095244E+02  0.40000025227E+02 0.  0.
        -12    1    3    3    0    0 -0.25000482473E+02 -0.38565880258E+00 -0.27029727532E+02  0.36820904756E+02  0.00000000000E+00 0.  1.
         11    1    4    4    0    0  0.25672376114E+02 -0.24631326141E+01  0.28022249380E+02  0.38083912328E+02  0.51100000000E-03 0. -1.
        -11    1    4    4    0    0  0.39424959908E+01  0.44075416794E-01 -0.71059012742E+01  0.81264414389E+01  0.51100000000E-03 0.  1.
        -12    1    4    4    0    0 -0.46143896316E+01  0.28047159999E+01  0.61133794260E+01  0.81567414768E+01  0.00000000000E+00 0.  1.
</event>
<event>
 8    1  0.1430379E-006  0.9118800E+02  0.7816164E-02  0.1184000E+00
        -11   -1    0    0    0    0  0.00000000000E+00  0.00000000000E+00  0.45593999997E+02  0.45594000000E+02  0.51100000000E-03 0.  1.
         11   -1    0    0    0    0 -0.00000000000E+00 -0.00000000000E+00 -0.45593999997E+02  0.45594000000E+02  0.51100000000E-03 0. -1.
         23    2    1    2    0    0  0.00000000000E+00  0.35527136788E-14  0.00000000000E+00  0.91188000000E+02  0.91188000000E+02 0.  0.
    9900012    2    3    3    0    0  0.13545952316E+02 -0.21291979602E+02 -0.26813025402E+02  0.54367088132E+02  0.40000009015E+02 0.  0.
        -12    1    3    3    0    0 -0.13545952316E+02  0.21291979602E+02  0.26813025402E+02  0.36820911868E+02  0.00000000000E+00 0.  1.
         11    1    4    4    0    0  0.99741561840E+01 -0.17046127169E+02 -0.21150967839E+02  0.28938170016E+02  0.51100000000E-03 0. -1.
        -11    1    4    4    0    0 -0.31924256792E+00 -0.33304648981E+01 -0.14948699555E+02  0.15318535533E+02  0.51100000000E-03 0.  1.
        -12    1    4    4    0    0  0.38910387003E+01 -0.91538753499E+00  0.92866419911E+01  0.10110382583E+02  0.00000000000E+00 0.  1.
</event>
<event>
 8    1  0.1212194E-006  0.9118800E+02  0.7816164E-02  0.1184000E+00
        -11   -1    0    0    0    0  0.00000000000E+00  0.00000000000E+00  0.45593999997E+02  0.45594000000E+02  0.51100000000E-03 0. -1.
         11   -1    0    0    0    0 -0.00000000000E+00 -0.00000000000E+00 -0.45593999997E+02  0.45594000000E+02  0.51100000000E-03 0.  1.
         23    2    1    2    0    0  0.00000000000E+00 -0.17763568394E-14 -0.35527136788E-14  0.91188000000E+02  0.91188000000E+02 0.  0.
    9900012    2    3    3    0    0 -0.27002122916E+02  0.10463839411E+02 -0.22741451331E+02  0.54367079508E+02  0.39999989355E+02 0.  0.
         12    1    3    3    0    0  0.27002122916E+02 -0.10463839411E+02  0.22741451331E+02  0.36820920492E+02  0.00000000000E+00 0. -1.
         11    1    4    4    0    0  0.60232115868E+01 -0.36997107936E+01 -0.25650866750E+01  0.75197478473E+01  0.51100000000E-03 0. -1.
        -11    1    4    4    0    0 -0.84204677206E+01  0.11952386096E+01 -0.16799735197E+02  0.18829869222E+02  0.51100000000E-03 0.  1.
         12    1    4    4    0    0 -0.24604866782E+02  0.12968311595E+02 -0.33766294595E+01  0.28017462439E+02  0.00000000000E+00 0. -1.
</event>
<event>
 8    1  0.1212194E-006  0.9118800E+02  0.7816164E-02  0.1184000E+00
        -11   -1    0    0    0    0  0.00000000000E+00  0.00000000000E+00  0.45593999997E+02  0.45594000000E+02  0.51100000000E-03 0.  1.
         11   -1    0    0    0    0 -0.00000000000E+00 -0.00000000000E+00 -0.45593999997E+02  0.45594000000E+02  0.51100000000E-03 0. -1.
         23    2    1    2    0    0  0.35527136788E-14  0.00000000000E+00  0.00000000000E+00  0.91188000000E+02  0.91188000000E+02 0.  0.
    9900012    2    3    3    0    0  0.20095296512E+02 -0.18213934160E+02 -0.24904095805E+02  0.54367050428E+02  0.39999923061E+02 0.  0.
        -12    1    3    3    0    0 -0.20095296512E+02  0.18213934160E+02  0.24904095805E+02  0.36820949572E+02  0.00000000000E+00 0.  1.
         11    1    4    4    0    0  0.33775651874E+00 -0.14297400126E+02 -0.27340455040E+02  0.30854986824E+02  0.51100000000E-03 0. -1.
        -11    1    4    4    0    0  0.16314942919E+02  0.20821581966E+01  0.12499154592E+01  0.16494697152E+02  0.51100000000E-03 0.  1.
         12    1    4    4    0    0  0.34425970746E+01 -0.59986922304E+01  0.11864437760E+01  0.70173664523E+01  0.00000000000E+00 0. -1.
</event>
<event>
 8    1  0.1212194E-006  0.9118800E+02  0.7816164E-02  0.1184000E+00
        -11   -1    0    0    0    0  0.00000000000E+00  0.00000000000E+00  0.45593999997E+02  0.45594000000E+02  0.51100000000E-03 0. -1.
         11   -1    0    0    0    0 -0.00000000000E+00 -0.00000000000E+00 -0.45593999997E+02  0.45594000000E+02  0.51100000000E-03 0.  1.
         23    2    1    2    0    0  0.53290705182E-14  0.00000000000E+00  0.00000000000E+00  0.91188000000E+02  0.91188000000E+02 0.  0.
    9900012    2    3    3    0    0  0.12389641565E+02  0.16542274989E+02  0.30473428234E+02  0.54367083278E+02  0.39999997949E+02 0.  0.
        -12    1    3    3    0    0 -0.12389641565E+02 -0.16542274989E+02 -0.30473428234E+02  0.36820916722E+02  0.00000000000E+00 0.  1.
         11    1    4    4    0    0 -0.95697406183E+01  0.98950441349E+01  0.24710777834E+02  0.28286293065E+02  0.51100000000E-03 0. -1.
        -11    1    4    4    0    0  0.13488925724E+02 -0.41536739278E+00 -0.29412198206E+00  0.13498524188E+02  0.51100000000E-03 0.  1.
         12    1    4    4    0    0  0.84704564599E+01  0.70625982471E+01  0.60567723813E+01  0.12582266025E+02  0.00000000000E+00 0. -1.
</event>
<event>
 8    1  0.1212194E-006  0.9118800E+02  0.7816164E-02  0.1184000E+00
        -11   -1    0    0    0    0  0.00000000000E+00  0.00000000000E+00  0.45593999997E+02  0.45594000000E+02  0.51100000000E-03 0. -1.
         11   -1    0    0    0    0 -0.00000000000E+00 -0.00000000000E+00 -0.45593999997E+02  0.45594000000E+02  0.51100000000E-03 0.  1.
         23    2    1    2    0    0  0.00000000000E+00  0.35527136788E-14  0.17763568394E-14  0.91188000000E+02  0.91188000000E+02 0.  0.
    9900012    2    3    3    0    0  0.12610362186E+02 -0.31379446796E+02 -0.14563264446E+02  0.54367087641E+02  0.40000007894E+02 0.  0.
         12    1    3    3    0    0 -0.12610362186E+02  0.31379446796E+02  0.14563264446E+02  0.36820912359E+02  0.00000000000E+00 0. -1.
         11    1    4    4    0    0 -0.52086898853E+01 -0.11421185259E+02 -0.22767171522E+02  0.25998423460E+02  0.51100000000E-03 0. -1.
        -11    1    4    4    0    0  0.96294736456E+01 -0.76400636868E+01  0.26958866065E+01  0.12584321225E+02  0.51100000000E-03 0.  1.
         12    1    4    4    0    0  0.81895784255E+01 -0.12318197850E+02  0.55080204695E+01  0.15784342956E+02  0.00000000000E+00 0. -1.
</event>
<event>
 8    1  0.1212194E-006  0.9118800E+02  0.7816164E-02  0.1184000E+00
        -11   -1    0    0    0    0  0.00000000000E+00  0.00000000000E+00  0.45593999997E+02  0.45594000000E+02  0.51100000000E-03 0.  1.
         11   -1    0    0    0    0 -0.00000000000E+00 -0.00000000000E+00 -0.45593999997E+02  0.45594000000E+02  0.51100000000E-03 0. -1.
         23    2    1    2    0    0 -0.35527136788E-14  0.00000000000E+00 -0.35527136788E-14  0.91188000000E+02  0.91188000000E+02 0.  0.
    9900012    2    3    3    0    0  0.19953000916E+02 -0.92789585314E+01  0.29522042147E+02  0.54367186735E+02  0.40000233798E+02 0.  0.
         12    1    3    3    0    0 -0.19953000916E+02  0.92789585314E+01 -0.29522042147E+02  0.36820813265E+02  0.00000000000E+00 0. -1.
         11    1    4    4    0    0  0.10948575477E+02  0.15517922028E+01  0.16932513078E+02  0.20223485442E+02  0.51100000000E-03 0. -1.
        -11    1    4    4    0    0  0.14351867457E+01 -0.11818524877E+02 -0.65144488507E+01  0.13571121374E+02  0.51100000000E-03 0.  1.
        -12    1    4    4    0    0  0.75692386935E+01  0.98777414287E+00  0.19103977919E+02  0.20572579918E+02  0.00000000000E+00 0.  1.
</event>
<event>
 8    1  0.1212194E-006  0.9118800E+02  0.7816164E-02  0.1184000E+00
        -11   -1    0    0    0    0  0.00000000000E+00  0.00000000000E+00  0.45593999997E+02  0.45594000000E+02  0.51100000000E-03 0. -1.
         11   -1    0    0    0    0 -0.00000000000E+00 -0.00000000000E+00 -0.45593999997E+02  0.45594000000E+02  0.51100000000E-03 0.  1.
         23    2    1    2    0    0  0.00000000000E+00  0.00000000000E+00  0.00000000000E+00  0.91188000000E+02  0.91188000000E+02 0.  0.
    9900012    2    3    3    0    0 -0.30026575448E+02  0.17234270034E+02 -0.12536542113E+02  0.54367079521E+02  0.39999989385E+02 0.  0.
        -12    1    3    3    0    0  0.30026575448E+02 -0.17234270034E+02  0.12536542113E+02  0.36820920479E+02  0.00000000000E+00 0.  1.
         11    1    4    4    0    0 -0.15066907131E+02  0.82496760782E+01 -0.10672721306E+02  0.20223150749E+02  0.51100000000E-03 0. -1.
        -11    1    4    4    0    0 -0.19549890488E+01  0.45440777514E+01 -0.14595281843E+02  0.15410803909E+02  0.51100000000E-03 0.  1.
         12    1    4    4    0    0 -0.13004679268E+02  0.44405162046E+01  0.12731461036E+02  0.18733124863E+02  0.00000000000E+00 0. -1.
</event>
<event>
 8    1  0.1212194E-006  0.9118800E+02  0.7816164E-02  0.1184000E+00
        -11   -1    0    0    0    0  0.00000000000E+00  0.00000000000E+00  0.45593999997E+02  0.45594000000E+02  0.51100000000E-03 0.  1.
         11   -1    0    0    0    0 -0.00000000000E+00 -0.00000000000E+00 -0.45593999997E+02  0.45594000000E+02  0.51100000000E-03 0. -1.
         23    2    1    2    0    0  0.00000000000E+00 -0.35527136788E-14  0.17763568394E-14  0.91188000000E+02  0.91188000000E+02 0.  0.
    9900012    2    3    3    0    0  0.23359091846E+02  0.25349526149E+02  0.12943456580E+02  0.54367099467E+02  0.40000034854E+02 0.  0.
        -12    1    3    3    0    0 -0.23359091846E+02 -0.25349526149E+02 -0.12943456580E+02  0.36820900533E+02  0.00000000000E+00 0.  1.
         11    1    4    4    0    0  0.68108482449E+01  0.96749546723E+01 -0.62779533032E+01  0.13394218890E+02  0.51100000000E-03 0. -1.
        -11    1    4    4    0    0  0.65177203530E+01 -0.77265212950E+00 -0.62322723298E+01  0.90509054003E+01  0.51100000000E-03 0.  1.
         12    1    4    4    0    0  0.10030523248E+02  0.16447223606E+02  0.25453682213E+02  0.31921975177E+02  0.00000000000E+00 0. -1.
</event>
<event>
 8    1  0.1212194E-006  0.9118800E+02  0.7816164E-02  0.1184000E+00
        -11   -1    0    0    0    0  0.00000000000E+00  0.00000000000E+00  0.45593999997E+02  0.45594000000E+02  0.51100000000E-03 0.  1.
         11   -1    0    0    0    0 -0.00000000000E+00 -0.00000000000E+00 -0.45593999997E+02  0.45594000000E+02  0.51100000000E-03 0. -1.
         23    2    1    2    0    0  0.00000000000E+00 -0.17763568394E-14  0.35527136788E-14  0.91188000000E+02  0.91188000000E+02 0.  0.
    9900012    2    3    3    0    0 -0.27143925099E+02 -0.14884497689E+02  0.19935859444E+02  0.54367089732E+02  0.40000012661E+02 0.  0.
        -12    1    3    3    0    0  0.27143925099E+02  0.14884497689E+02 -0.19935859444E+02  0.36820910268E+02  0.00000000000E+00 0.  1.
         11    1    4    4    0    0 -0.12331796674E+02 -0.20695758706E+01  0.10001625251E+02  0.16012147308E+02  0.51100000000E-03 0. -1.
        -11    1    4    4    0    0 -0.17505351392E+02  0.54785356575E+01  0.70000307781E+01  0.19632934357E+02  0.51100000000E-03 0.  1.
         12    1    4    4    0    0  0.26932229671E+01 -0.18293457476E+02  0.29342034150E+01  0.18722008067E+02  0.00000000000E+00 0. -1.
</event>
<event>
 8    1  0.1212194E-006  0.9118800E+02  0.7816164E-02  0.1184000E+00
        -11   -1    0    0    0    0  0.00000000000E+00  0.00000000000E+00  0.45593999997E+02  0.45594000000E+02  0.51100000000E-03 0.  1.
         11   -1    0    0    0    0 -0.00000000000E+00 -0.00000000000E+00 -0.45593999997E+02  0.45594000000E+02  0.51100000000E-03 0. -1.
         23    2    1    2    0    0  0.71054273576E-14  0.00000000000E+00  0.00000000000E+00  0.91188000000E+02  0.91188000000E+02 0.  0.
    9900012    2    3    3    0    0 -0.25688562217E+02 -0.24512984331E+02  0.97465345475E+01  0.54367033619E+02  0.39999884741E+02 0.  0.
         12    1    3    3    0    0  0.25688562217E+02  0.24512984331E+02 -0.97465345475E+01  0.36820966381E+02  0.00000000000E+00 0. -1.
         11    1    4    4    0    0  0.10303878389E+02 -0.86090297154E+01 -0.33603560574E+00  0.13431240549E+02  0.51100000000E-03 0. -1.
        -11    1    4    4    0    0 -0.39052313181E+01 -0.26550887172E+01 -0.21079890707E+00  0.47270248766E+01  0.51100000000E-03 0.  1.
         12    1    4    4    0    0 -0.32087209288E+02 -0.13248865898E+02  0.10293369060E+02  0.36208768193E+02  0.00000000000E+00 0. -1.
</event>
<event>
 8    1  0.1212194E-006  0.9118800E+02  0.7816164E-02  0.1184000E+00
        -11   -1    0    0    0    0  0.00000000000E+00  0.00000000000E+00  0.45593999997E+02  0.45594000000E+02  0.51100000000E-03 0. -1.
         11   -1    0    0    0    0 -0.00000000000E+00 -0.00000000000E+00 -0.45593999997E+02  0.45594000000E+02  0.51100000000E-03 0.  1.
         23    2    1    2    0    0  0.00000000000E+00  0.00000000000E+00  0.17763568394E-14  0.91188000000E+02  0.91188000000E+02 0.  0.
    9900012    2    3    3    0    0  0.22693124010E+02 -0.28511079322E+02 -0.52838867638E+01  0.54367095872E+02  0.40000026660E+02 0.  0.
        -12    1    3    3    0    0 -0.22693124010E+02  0.28511079322E+02  0.52838867638E+01  0.36820904128E+02  0.00000000000E+00 0.  1.
         11    1    4    4    0    0  0.11230724220E+02 -0.26858277765E+02  0.36680461244E+01  0.29341963357E+02  0.51100000000E-03 0. -1.
        -11    1    4    4    0    0  0.12591261133E+02 -0.92056481643E+01 -0.47296394104E+01  0.16298874325E+02  0.51100000000E-03 0.  1.
         12    1    4    4    0    0 -0.11288613427E+01  0.75528466067E+01 -0.42222934778E+01  0.87262581906E+01  0.00000000000E+00 0. -1.
</event>
<event>
 8    1  0.1212194E-006  0.9118800E+02  0.7816164E-02  0.1184000E+00
        -11   -1    0    0    0    0  0.00000000000E+00  0.00000000000E+00  0.45593999997E+02  0.45594000000E+02  0.51100000000E-03 0. -1.
         11   -1    0    0    0    0 -0.00000000000E+00 -0.00000000000E+00 -0.45593999997E+02  0.45594000000E+02  0.51100000000E-03 0.  1.
         23    2    1    2    0    0  0.00000000000E+00  0.17763568394E-14  0.00000000000E+00  0.91188000000E+02  0.91188000000E+02 0.  0.
    9900012    2    3    3    0    0  0.69730343501E+01 -0.96685137322E+01  0.34837874723E+02  0.54367070068E+02  0.39999967833E+02 0.  0.
        -12    1    3    3    0    0 -0.69730343501E+01  0.96685137322E+01 -0.34837874723E+02  0.36820929932E+02  0.00000000000E+00 0.  1.
         11    1    4    4    0    0  0.76799396437E+01  0.93865376664E+01  0.31168445574E+02  0.33444888429E+02  0.51100000000E-03 0. -1.
        -11    1    4    4    0    0  0.79612968736E+00 -0.82758789457E+01 -0.21402781064E+01  0.85851491214E+01  0.51100000000E-03 0.  1.
         12    1    4    4    0    0 -0.15030349810E+01 -0.10779172453E+02  0.58097072557E+01  0.12337032517E+02  0.00000000000E+00 0. -1.
</event>
<event>
 8    1  0.1212194E-006  0.9118800E+02  0.7816164E-02  0.1184000E+00
        -11   -1    0    0    0    0  0.00000000000E+00  0.00000000000E+00  0.45593999997E+02  0.45594000000E+02  0.51100000000E-03 0.  1.
         11   -1    0    0    0    0 -0.00000000000E+00 -0.00000000000E+00 -0.45593999997E+02  0.45594000000E+02  0.51100000000E-03 0. -1.
         23    2    1    2    0    0  0.88817841970E-15 -0.35527136788E-14 -0.35527136788E-14  0.91188000000E+02  0.91188000000E+02 0.  0.
    9900012    2    3    3    0    0  0.21679770979E+01  0.22358085633E+02  0.29175242373E+02  0.54367097167E+02  0.40000029612E+02 0.  0.
         12    1    3    3    0    0 -0.21679770979E+01 -0.22358085633E+02 -0.29175242373E+02  0.36820902833E+02  0.00000000000E+00 0. -1.
         11    1    4    4    0    0 -0.35068040983E+01  0.14528623717E+02 -0.26998650871E+01  0.15187753417E+02  0.51100000000E-03 0. -1.
        -11    1    4    4    0    0 -0.51934402792E+01  0.95124031559E+01  0.21416661088E+02  0.24002729182E+02  0.51100000000E-03 0.  1.
        -12    1    4    4    0    0  0.10868221475E+02 -0.16829412399E+01  0.10458446372E+02  0.15176614569E+02  0.00000000000E+00 0.  1.
</event>
<event>
 8    1  0.1212194E-006  0.9118800E+02  0.7816164E-02  0.1184000E+00
        -11   -1    0    0    0    0  0.00000000000E+00  0.00000000000E+00  0.45593999997E+02  0.45594000000E+02  0.51100000000E-03 0.  1.
         11   -1    0    0    0    0 -0.00000000000E+00 -0.00000000000E+00 -0.45593999997E+02  0.45594000000E+02  0.51100000000E-03 0. -1.
         23    2    1    2    0    0  0.00000000000E+00  0.00000000000E+00  0.00000000000E+00  0.91188000000E+02  0.91188000000E+02 0.  0.
    9900012    2    3    3    0    0  0.87664647237E+01 -0.33871167678E+02 -0.11474838806E+02  0.54367097930E+02  0.40000031350E+02 0.  0.
        -12    1    3    3    0    0 -0.87664647237E+01  0.33871167678E+02  0.11474838806E+02  0.36820902070E+02  0.00000000000E+00 0.  1.
         11    1    4    4    0    0  0.94662389329E+01 -0.41190549423E+01 -0.58128271889E+00  0.10339931480E+02  0.51100000000E-03 0. -1.
        -11    1    4    4    0    0  0.12727917174E+02 -0.14549052057E+02  0.28302806862E+01  0.19536767398E+02  0.51100000000E-03 0.  1.
        -12    1    4    4    0    0 -0.13427691383E+02 -0.15203060679E+02 -0.13723836774E+02  0.24490399051E+02  0.00000000000E+00 0.  1.
</event>
<event>
 8    1  0.1212194E-006  0.9118800E+02  0.7816164E-02  0.1184000E+00
        -11   -1    0    0    0    0  0.00000000000E+00  0.00000000000E+00  0.45593999997E+02  0.45594000000E+02  0.51100000000E-03 0. -1.
         11   -1    0    0    0    0 -0.00000000000E+00 -0.00000000000E+00 -0.45593999997E+02  0.45594000000E+02  0.51100000000E-03 0.  1.
         23    2    1    2    0    0 -0.44408920985E-15 -0.71054273576E-14 -0.88817841970E-15  0.91188000000E+02  0.91188000000E+02 0.  0.
    9900012    2    3    3    0    0  0.32819448042E+01  0.36153847775E+02 -0.61570259159E+01  0.54367070642E+02  0.39999969142E+02 0.  0.
        -12    1    3    3    0    0 -0.32819448042E+01 -0.36153847775E+02  0.61570259159E+01  0.36820929358E+02  0.00000000000E+00 0.  1.
         11    1    4    4    0    0  0.13141141778E+02  0.22178684313E+02 -0.23051096184E+01  0.25882371910E+02  0.51100000000E-03 0. -1.
        -11    1    4    4    0    0 -0.22352044063E+00  0.45945042794E+01 -0.11937646605E+02  0.12793234059E+02  0.51100000000E-03 0.  1.
         12    1    4    4    0    0 -0.96356765332E+01  0.93806591832E+01  0.80857303078E+01  0.15691464673E+02  0.00000000000E+00 0. -1.
</event>
<event>
 8    1  0.1212194E-006  0.9118800E+02  0.7816164E-02  0.1184000E+00
        -11   -1    0    0    0    0  0.00000000000E+00  0.00000000000E+00  0.45593999997E+02  0.45594000000E+02  0.51100000000E-03 0.  1.
         11   -1    0    0    0    0 -0.00000000000E+00 -0.00000000000E+00 -0.45593999997E+02  0.45594000000E+02  0.51100000000E-03 0. -1.
         23    2    1    2    0    0  0.00000000000E+00  0.00000000000E+00  0.00000000000E+00  0.91188000000E+02  0.91188000000E+02 0.  0.
    9900012    2    3    3    0    0  0.21962163578E+02  0.21543523460E+02  0.20231667837E+02  0.54367076389E+02  0.39999982243E+02 0.  0.
         12    1    3    3    0    0 -0.21962163578E+02 -0.21543523460E+02 -0.20231667837E+02  0.36820923611E+02  0.00000000000E+00 0. -1.
         11    1    4    4    0    0  0.26506202288E+02  0.43569877480E+01  0.12848577361E+02  0.29776635848E+02  0.51100000000E-03 0. -1.
        -11    1    4    4    0    0 -0.82389073823E+01  0.10189043406E+02  0.97479610788E+01  0.16331532256E+02  0.51100000000E-03 0.  1.
         12    1    4    4    0    0  0.36948686726E+01  0.69974923065E+01 -0.23648706022E+01  0.82589082846E+01  0.00000000000E+00 0. -1.
</event>
<event>
 8    1  0.1212194E-006  0.9118800E+02  0.7816164E-02  0.1184000E+00
        -11   -1    0    0    0    0  0.00000000000E+00  0.00000000000E+00  0.45593999997E+02  0.45594000000E+02  0.51100000000E-03 0. -1.
         11   -1    0    0    0    0 -0.00000000000E+00 -0.00000000000E+00 -0.45593999997E+02  0.45594000000E+02  0.51100000000E-03 0.  1.
         23    2    1    2    0    0  0.00000000000E+00  0.00000000000E+00  0.00000000000E+00  0.91188000000E+02  0.91188000000E+02 0.  0.
    9900012    2    3    3    0    0  0.16004845709E+02  0.26363291952E+02 -0.20114706032E+02  0.54367086819E+02  0.40000006022E+02 0.  0.
         12    1    3    3    0    0 -0.16004845709E+02 -0.26363291952E+02  0.20114706032E+02  0.36820913181E+02  0.00000000000E+00 0. -1.
         11    1    4    4    0    0 -0.25000124245E+01  0.11452440890E+02 -0.15893396744E+01  0.11829389896E+02  0.51100000000E-03 0. -1.
        -11    1    4    4    0    0  0.14119508477E+02  0.23597915184E+02 -0.17846336592E+02  0.32782828595E+02  0.51100000000E-03 0.  1.
        -12    1    4    4    0    0  0.43853496563E+01 -0.86870641220E+01 -0.67902976535E+00  0.97548683277E+01  0.00000000000E+00 0.  1.
</event>
<event>
 8    1  0.1212194E-006  0.9118800E+02  0.7816164E-02  0.1184000E+00
        -11   -1    0    0    0    0  0.00000000000E+00  0.00000000000E+00  0.45593999997E+02  0.45594000000E+02  0.51100000000E-03 0. -1.
         11   -1    0    0    0    0 -0.00000000000E+00 -0.00000000000E+00 -0.45593999997E+02  0.45594000000E+02  0.51100000000E-03 0.  1.
         23    2    1    2    0    0 -0.35527136788E-14  0.44408920985E-15  0.00000000000E+00  0.91188000000E+02  0.91188000000E+02 0.  0.
    9900012    2    3    3    0    0 -0.14211048086E+02  0.25820402948E+01  0.33869738109E+02  0.54367082313E+02  0.39999995748E+02 0.  0.
        -12    1    3    3    0    0  0.14211048086E+02 -0.25820402948E+01 -0.33869738109E+02  0.36820917687E+02  0.00000000000E+00 0.  1.
         11    1    4    4    0    0  0.44490280939E+01  0.29481022653E+00  0.11272299218E+02  0.12122107654E+02  0.51100000000E-03 0.  1.
        -11    1    4    4    0    0 -0.21741556492E+00 -0.11425330443E+02  0.13084404105E+02  0.17372019926E+02  0.51100000000E-03 0. -1.
        -12    1    4    4    0    0 -0.18442660615E+02  0.13712560511E+02  0.95130347855E+01  0.24872954733E+02  0.00000000000E+00 0.  1.
</event>
<event>
 8    1  0.1212194E-006  0.9118800E+02  0.7816164E-02  0.1184000E+00
        -11   -1    0    0    0    0  0.00000000000E+00  0.00000000000E+00  0.45593999997E+02  0.45594000000E+02  0.51100000000E-03 0. -1.
         11   -1    0    0    0    0 -0.00000000000E+00 -0.00000000000E+00 -0.45593999997E+02  0.45594000000E+02  0.51100000000E-03 0.  1.
         23    2    1    2    0    0  0.35527136788E-14  0.00000000000E+00  0.00000000000E+00  0.91188000000E+02  0.91188000000E+02 0.  0.
    9900012    2    3    3    0    0  0.31880726266E+02 -0.67887120309E+01 -0.17126359108E+02  0.54367088895E+02  0.40000010755E+02 0.  0.
         12    1    3    3    0    0 -0.31880726266E+02  0.67887120309E+01  0.17126359108E+02  0.36820911105E+02  0.00000000000E+00 0. -1.
         11    1    4    4    0    0  0.24705125203E+02 -0.77255179639E+01 -0.40148465611E+01  0.26194385511E+02  0.51100000000E-03 0. -1.
        -11    1    4    4    0    0 -0.46640619413E+01 -0.62127223282E+00 -0.15321910420E+02  0.16028112557E+02  0.51100000000E-03 0.  1.
        -12    1    4    4    0    0  0.11839663004E+02  0.15580781659E+01  0.22103978722E+01  0.12144590828E+02  0.00000000000E+00 0.  1.
</event>
<event>
 8    1  0.1212194E-006  0.9118800E+02  0.7816164E-02  0.1184000E+00
        -11   -1    0    0    0    0  0.00000000000E+00  0.00000000000E+00  0.45593999997E+02  0.45594000000E+02  0.51100000000E-03 0. -1.
         11   -1    0    0    0    0 -0.00000000000E+00 -0.00000000000E+00 -0.45593999997E+02  0.45594000000E+02  0.51100000000E-03 0.  1.
         23    2    1    2    0    0  0.00000000000E+00  0.00000000000E+00  0.35527136788E-14  0.91188000000E+02  0.91188000000E+02 0.  0.
    9900012    2    3    3    0    0 -0.20915288702E+02 -0.26400633523E+01  0.30188743255E+02  0.54367089429E+02  0.40000011970E+02 0.  0.
        -12    1    3    3    0    0  0.20915288702E+02  0.26400633523E+01 -0.30188743255E+02  0.36820910571E+02  0.00000000000E+00 0.  1.
         11    1    4    4    0    0 -0.25499455518E+01 -0.32460135670E+01  0.22336638780E+02  0.22714846657E+02  0.51100000000E-03 0. -1.
        -11    1    4    4    0    0  0.48054506338E+01  0.23254506914E+01 -0.28721999574E+01  0.60621456241E+01  0.51100000000E-03 0.  1.
         12    1    4    4    0    0 -0.23170793784E+02 -0.17195004767E+01  0.10724304433E+02  0.25590097148E+02  0.00000000000E+00 0. -1.
</event>
<event>
 8    1  0.1212194E-006  0.9118800E+02  0.7816164E-02  0.1184000E+00
        -11   -1    0    0    0    0  0.00000000000E+00  0.00000000000E+00  0.45593999997E+02  0.45594000000E+02  0.51100000000E-03 0. -1.
         11   -1    0    0    0    0 -0.00000000000E+00 -0.00000000000E+00 -0.45593999997E+02  0.45594000000E+02  0.51100000000E-03 0.  1.
         23    2    1    2    0    0  0.00000000000E+00  0.00000000000E+00  0.00000000000E+00  0.91188000000E+02  0.91188000000E+02 0.  0.
    9900012    2    3    3    0    0  0.35853206309E+02 -0.80738525738E+01 -0.22673936350E+01  0.54367074266E+02  0.39999977405E+02 0.  0.
         12    1    3    3    0    0 -0.35853206309E+02  0.80738525738E+01  0.22673936350E+01  0.36820925734E+02  0.00000000000E+00 0. -1.
         11    1    4    4    0    0 -0.30691181114E+01 -0.41756095253E+01  0.13681803519E+01  0.53597685236E+01  0.51100000000E-03 0. -1.
        -11    1    4    4    0    0 -0.44663237941E+01 -0.79541451510E+00  0.23312341055E+01  0.51005279335E+01  0.51100000000E-03 0.  1.
        -12    1    4    4    0    0  0.43388648214E+02 -0.31028285334E+01 -0.59668080925E+01  0.43906777809E+02  0.00000000000E+00 0.  1.
</event>
<event>
 8    1  0.1212194E-006  0.9118800E+02  0.7816164E-02  0.1184000E+00
        -11   -1    0    0    0    0  0.00000000000E+00  0.00000000000E+00  0.45593999997E+02  0.45594000000E+02  0.51100000000E-03 0.  1.
         11   -1    0    0    0    0 -0.00000000000E+00 -0.00000000000E+00 -0.45593999997E+02  0.45594000000E+02  0.51100000000E-03 0. -1.
         23    2    1    2    0    0  0.00000000000E+00 -0.13877787808E-15 -0.71054273576E-14  0.91188000000E+02  0.91188000000E+02 0.  0.
    9900012    2    3    3    0    0  0.15020178751E+02 -0.17839730921E+00  0.33617565367E+02  0.54367105164E+02  0.40000047843E+02 0.  0.
         12    1    3    3    0    0 -0.15020178751E+02  0.17839730921E+00 -0.33617565367E+02  0.36820894836E+02  0.00000000000E+00 0. -1.
         11    1    4    4    0    0 -0.54344400419E+00 -0.84353042063E+01 -0.16459668205E+01  0.86115559264E+01  0.51100000000E-03 0. -1.
        -11    1    4    4    0    0  0.14224797462E+02 -0.51676376303E+01  0.22943518688E+02  0.27485530585E+02  0.51100000000E-03 0.  1.
        -12    1    4    4    0    0  0.13388252931E+01  0.13424544527E+02  0.12320013500E+02  0.18270018653E+02  0.00000000000E+00 0.  1.
</event>
<event>
 8    1  0.1212194E-006  0.9118800E+02  0.7816164E-02  0.1184000E+00
        -11   -1    0    0    0    0  0.00000000000E+00  0.00000000000E+00  0.45593999997E+02  0.45594000000E+02  0.51100000000E-03 0. -1.
         11   -1    0    0    0    0 -0.00000000000E+00 -0.00000000000E+00 -0.45593999997E+02  0.45594000000E+02  0.51100000000E-03 0.  1.
         23    2    1    2    0    0 -0.17763568394E-14  0.00000000000E+00  0.00000000000E+00  0.91188000000E+02  0.91188000000E+02 0.  0.
    9900012    2    3    3    0    0  0.10873339071E+02  0.26269736614E+02  0.23397662129E+02  0.54367093474E+02  0.40000021192E+02 0.  0.
        -12    1    3    3    0    0 -0.10873339071E+02 -0.26269736614E+02 -0.23397662129E+02  0.36820906526E+02  0.00000000000E+00 0.  1.
         11    1    4    4    0    0  0.13927581585E+02  0.13512070691E+02  0.25134121421E+02  0.31753387898E+02  0.51100000000E-03 0. -1.
        -11    1    4    4    0    0  0.60069019676E+01  0.88818866424E+01  0.37191980911E+01  0.11349150465E+02  0.51100000000E-03 0.  1.
        -12    1    4    4    0    0 -0.90611444816E+01  0.38757792809E+01 -0.54556573835E+01  0.11264555111E+02  0.00000000000E+00 0.  1.
</event>
<event>
 8    1  0.1212194E-006  0.9118800E+02  0.7816164E-02  0.1184000E+00
        -11   -1    0    0    0    0  0.00000000000E+00  0.00000000000E+00  0.45593999997E+02  0.45594000000E+02  0.51100000000E-03 0. -1.
         11   -1    0    0    0    0 -0.00000000000E+00 -0.00000000000E+00 -0.45593999997E+02  0.45594000000E+02  0.51100000000E-03 0.  1.
         23    2    1    2    0    0  0.00000000000E+00  0.00000000000E+00  0.35527136788E-14  0.91188000000E+02  0.91188000000E+02 0.  0.
    9900012    2    3    3    0    0  0.12143899719E+02  0.14854626295E+02 -0.31426832124E+02  0.54367082031E+02  0.39999995105E+02 0.  0.
         12    1    3    3    0    0 -0.12143899719E+02 -0.14854626295E+02  0.31426832124E+02  0.36820917969E+02  0.00000000000E+00 0. -1.
         11    1    4    4    0    0 -0.24464642680E+01 -0.27129850142E+01  0.76187115551E+00  0.37317453049E+01  0.51100000000E-03 0. -1.
        -11    1    4    4    0    0  0.45180409922E+01  0.74437215678E+01 -0.35011533251E+02  0.36078097872E+02  0.51100000000E-03 0.  1.
         12    1    4    4    0    0  0.10072322995E+02  0.10123889741E+02  0.28228299715E+01  0.14557238854E+02  0.00000000000E+00 0. -1.
</event>
<event>
 8    1  0.1212194E-006  0.9118800E+02  0.7816164E-02  0.1184000E+00
        -11   -1    0    0    0    0  0.00000000000E+00  0.00000000000E+00  0.45593999997E+02  0.45594000000E+02  0.51100000000E-03 0.  1.
         11   -1    0    0    0    0 -0.00000000000E+00 -0.00000000000E+00 -0.45593999997E+02  0.45594000000E+02  0.51100000000E-03 0. -1.
         23    2    1    2    0    0  0.22204460493E-15 -0.17763568394E-14  0.00000000000E+00  0.91188000000E+02  0.91188000000E+02 0.  0.
    9900012    2    3    3    0    0  0.14801554857E+01  0.13539042051E+02  0.34209422680E+02  0.54367066823E+02  0.39999960436E+02 0.  0.
         12    1    3    3    0    0 -0.14801554857E+01 -0.13539042051E+02 -0.34209422680E+02  0.36820933177E+02  0.00000000000E+00 0. -1.
         11    1    4    4    0    0  0.49627367616E+01  0.90178956070E+01  0.23226953571E+02  0.25405561789E+02  0.51100000000E-03 0. -1.
        -11    1    4    4    0    0 -0.49339591183E+01 -0.97329373686E+01  0.96586410242E+01  0.14572692582E+02  0.51100000000E-03 0.  1.
         12    1    4    4    0    0  0.14513778424E+01  0.14254083813E+02  0.13238280846E+01  0.14388812452E+02  0.00000000000E+00 0. -1.
</event>
<event>
 8    1  0.1212194E-006  0.9118800E+02  0.7816164E-02  0.1184000E+00
        -11   -1    0    0    0    0  0.00000000000E+00  0.00000000000E+00  0.45593999997E+02  0.45594000000E+02  0.51100000000E-03 0.  1.
         11   -1    0    0    0    0 -0.00000000000E+00 -0.00000000000E+00 -0.45593999997E+02  0.45594000000E+02  0.51100000000E-03 0. -1.
         23    2    1    2    0    0  0.00000000000E+00  0.00000000000E+00  0.35527136788E-14  0.91188000000E+02  0.91188000000E+02 0.  0.
    9900012    2    3    3    0    0  0.17849967842E+02 -0.27721946987E+02 -0.16390848627E+02  0.54366978620E+02  0.39999759360E+02 0.  0.
        -12    1    3    3    0    0 -0.17849967842E+02  0.27721946987E+02  0.16390848627E+02  0.36821021380E+02  0.00000000000E+00 0.  1.
         11    1    4    4    0    0  0.53727825117E+01 -0.12898642785E+02 -0.13119754868E+02  0.19166891915E+02  0.51100000000E-03 0. -1.
        -11    1    4    4    0    0  0.41628842740E+01 -0.22798892633E+02  0.16844235936E+00  0.23176442433E+02  0.51100000000E-03 0.  1.
        -12    1    4    4    0    0  0.83143010562E+01  0.79755884309E+01 -0.34395361181E+01  0.12023644272E+02  0.00000000000E+00 0.  1.
</event>
<event>
 8    1  0.1212194E-006  0.9118800E+02  0.7816164E-02  0.1184000E+00
        -11   -1    0    0    0    0  0.00000000000E+00  0.00000000000E+00  0.45593999997E+02  0.45594000000E+02  0.51100000000E-03 0.  1.
         11   -1    0    0    0    0 -0.00000000000E+00 -0.00000000000E+00 -0.45593999997E+02  0.45594000000E+02  0.51100000000E-03 0. -1.
         23    2    1    2    0    0 -0.17763568394E-14  0.35527136788E-14  0.71054273576E-14  0.91188000000E+02  0.91188000000E+02 0.  0.
    9900012    2    3    3    0    0 -0.37970015133E+01  0.20026715146E+02  0.30664222013E+02  0.54367067751E+02  0.39999962552E+02 0.  0.
        -12    1    3    3    0    0  0.37970015133E+01 -0.20026715146E+02 -0.30664222013E+02  0.36820932249E+02  0.00000000000E+00 0.  1.
         11    1    4    4    0    0  0.72156322110E+01 -0.43269602000E+01  0.72288665069E+01  0.11092540016E+02  0.51100000000E-03 0.  1.
        -11    1    4    4    0    0 -0.47428347807E+01 -0.46373036886E+01  0.31725835243E+01  0.73528466417E+01  0.51100000000E-03 0. -1.
         12    1    4    4    0    0 -0.62697989436E+01  0.28990979034E+02  0.20262771982E+02  0.35921681093E+02  0.00000000000E+00 0. -1.
</event>
<event>
 8    1  0.1212194E-006  0.9118800E+02  0.7816164E-02  0.1184000E+00
        -11   -1    0    0    0    0  0.00000000000E+00  0.00000000000E+00  0.45593999997E+02  0.45594000000E+02  0.51100000000E-03 0. -1.
         11   -1    0    0    0    0 -0.00000000000E+00 -0.00000000000E+00 -0.45593999997E+02  0.45594000000E+02  0.51100000000E-03 0.  1.
         23    2    1    2    0    0  0.88817841970E-15 -0.71054273576E-14 -0.17763568394E-14  0.91188000000E+02  0.91188000000E+02 0.  0.
    9900012    2    3    3    0    0  0.69648896013E+01 -0.33891956331E+02 -0.12593899740E+02  0.54367072503E+02  0.39999973385E+02 0.  0.
         12    1    3    3    0    0 -0.69648896013E+01  0.33891956331E+02  0.12593899740E+02  0.36820927497E+02  0.00000000000E+00 0. -1.
         11    1    4    4    0    0  0.71777897530E+00  0.36798514436E+01  0.29927181720E+01  0.47971737119E+01  0.51100000000E-03 0. -1.
        -11    1    4    4    0    0 -0.76772379656E+00 -0.12658254359E+02 -0.19633681386E+02  0.23373109512E+02  0.51100000000E-03 0.  1.
        -12    1    4    4    0    0  0.70148344225E+01 -0.24913553415E+02  0.40470634745E+01  0.26196789279E+02  0.00000000000E+00 0.  1.
</event>
<event>
 8    1  0.1212194E-006  0.9118800E+02  0.7816164E-02  0.1184000E+00
        -11   -1    0    0    0    0  0.00000000000E+00  0.00000000000E+00  0.45593999997E+02  0.45594000000E+02  0.51100000000E-03 0.  1.
         11   -1    0    0    0    0 -0.00000000000E+00 -0.00000000000E+00 -0.45593999997E+02  0.45594000000E+02  0.51100000000E-03 0. -1.
         23    2    1    2    0    0  0.71054273576E-14 -0.17763568394E-14  0.00000000000E+00  0.91188000000E+02  0.91188000000E+02 0.  0.
    9900012    2    3    3    0    0 -0.32590648992E+02  0.14107828711E+02 -0.97261633451E+01  0.54367089011E+02  0.40000011017E+02 0.  0.
        -12    1    3    3    0    0  0.32590648992E+02 -0.14107828711E+02  0.97261633451E+01  0.36820910989E+02  0.00000000000E+00 0.  1.
         11    1    4    4    0    0 -0.53394911385E+01  0.10539941705E+02  0.34121143578E+01  0.12298091780E+02  0.51100000000E-03 0. -1.
        -11    1    4    4    0    0 -0.25366328549E+01  0.83062351049E+00  0.86224614032E+01  0.90261443910E+01  0.51100000000E-03 0.  1.
         12    1    4    4    0    0 -0.24714524999E+02  0.27372634957E+01 -0.21760739106E+02  0.33042852840E+02  0.00000000000E+00 0. -1.
</event>
<event>
 8    1  0.1212194E-006  0.9118800E+02  0.7816164E-02  0.1184000E+00
        -11   -1    0    0    0    0  0.00000000000E+00  0.00000000000E+00  0.45593999997E+02  0.45594000000E+02  0.51100000000E-03 0.  1.
         11   -1    0    0    0    0 -0.00000000000E+00 -0.00000000000E+00 -0.45593999997E+02  0.45594000000E+02  0.51100000000E-03 0. -1.
         23    2    1    2    0    0  0.88817841970E-15  0.00000000000E+00  0.00000000000E+00  0.91188000000E+02  0.91188000000E+02 0.  0.
    9900012    2    3    3    0    0  0.29328153823E+01  0.35075590089E+02 -0.10811201618E+02  0.54367075153E+02  0.39999979425E+02 0.  0.
        -12    1    3    3    0    0 -0.29328153823E+01 -0.35075590089E+02  0.10811201618E+02  0.36820924847E+02  0.00000000000E+00 0.  1.
         11    1    4    4    0    0  0.38450190471E+01  0.32533048107E+02 -0.24181293467E+01  0.32848603325E+02  0.51100000000E-03 0. -1.
        -11    1    4    4    0    0  0.48586007032E+01  0.84001666394E+01 -0.90504146472E+01  0.13269468939E+02  0.51100000000E-03 0.  1.
        -12    1    4    4    0    0 -0.57708043680E+01 -0.58576246566E+01  0.65734237616E+00  0.82490028895E+01  0.00000000000E+00 0.  1.
</event>
<event>
 8    1  0.1212194E-006  0.9118800E+02  0.7816164E-02  0.1184000E+00
        -11   -1    0    0    0    0  0.00000000000E+00  0.00000000000E+00  0.45593999997E+02  0.45594000000E+02  0.51100000000E-03 0.  1.
         11   -1    0    0    0    0 -0.00000000000E+00 -0.00000000000E+00 -0.45593999997E+02  0.45594000000E+02  0.51100000000E-03 0. -1.
         23    2    1    2    0    0  0.17763568394E-14  0.00000000000E+00  0.00000000000E+00  0.91188000000E+02  0.91188000000E+02 0.  0.
    9900012    2    3    3    0    0 -0.10178274427E+02  0.14228253414E+02 -0.32399688436E+02  0.54367078281E+02  0.39999986557E+02 0.  0.
        -12    1    3    3    0    0  0.10178274427E+02 -0.14228253414E+02  0.32399688436E+02  0.36820921719E+02  0.00000000000E+00 0.  1.
         11    1    4    4    0    0 -0.10001752873E+02  0.10153024240E+02 -0.15895392974E+02  0.21349062739E+02  0.51100000000E-03 0. -1.
        -11    1    4    4    0    0 -0.44059706738E+01  0.15726591533E+01  0.73226870531E+01  0.86895097865E+01  0.51100000000E-03 0.  1.
         12    1    4    4    0    0  0.42294491202E+01  0.25025700209E+01 -0.23826982514E+02  0.24328505756E+02  0.00000000000E+00 0. -1.
</event>
<event>
 8    1  0.1212194E-006  0.9118800E+02  0.7816164E-02  0.1184000E+00
        -11   -1    0    0    0    0  0.00000000000E+00  0.00000000000E+00  0.45593999997E+02  0.45594000000E+02  0.51100000000E-03 0.  1.
         11   -1    0    0    0    0 -0.00000000000E+00 -0.00000000000E+00 -0.45593999997E+02  0.45594000000E+02  0.51100000000E-03 0. -1.
         23    2    1    2    0    0  0.00000000000E+00  0.00000000000E+00  0.00000000000E+00  0.91188000000E+02  0.91188000000E+02 0.  0.
    9900012    2    3    3    0    0  0.21237344499E+02  0.14100566989E+02 -0.26569322838E+02  0.54367086013E+02  0.40000004183E+02 0.  0.
        -12    1    3    3    0    0 -0.21237344499E+02 -0.14100566989E+02  0.26569322838E+02  0.36820913987E+02  0.00000000000E+00 0.  1.
         11    1    4    4    0    0 -0.57297408551E+00  0.41871903685E+01 -0.71792718804E+01  0.83308347408E+01  0.51100000000E-03 0. -1.
        -11    1    4    4    0    0  0.89281532109E+01  0.97944342254E+01  0.82013958299E+01  0.15585434077E+02  0.51100000000E-03 0.  1.
         12    1    4    4    0    0  0.12882165374E+02  0.11894239511E+00 -0.27591446787E+02  0.30450817195E+02  0.00000000000E+00 0. -1.
</event>
<event>
 8    1  0.1212194E-006  0.9118800E+02  0.7816164E-02  0.1184000E+00
        -11   -1    0    0    0    0  0.00000000000E+00  0.00000000000E+00  0.45593999997E+02  0.45594000000E+02  0.51100000000E-03 0. -1.
         11   -1    0    0    0    0 -0.00000000000E+00 -0.00000000000E+00 -0.45593999997E+02  0.45594000000E+02  0.51100000000E-03 0.  1.
         23    2    1    2    0    0 -0.35527136788E-14 -0.35527136788E-14  0.88817841970E-15  0.91188000000E+02  0.91188000000E+02 0.  0.
    9900012    2    3    3    0    0 -0.24829871589E+02 -0.26834770539E+02 -0.43763017863E+01  0.54367089496E+02  0.40000012125E+02 0.  0.
        -12    1    3    3    0    0  0.24829871589E+02  0.26834770539E+02  0.43763017863E+01  0.36820910504E+02  0.00000000000E+00 0.  1.
         11    1    4    4    0    0 -0.14990879190E+01 -0.57596554434E+01 -0.58535027891E+01  0.83477176867E+01  0.51100000000E-03 0. -1.
        -11    1    4    4    0    0 -0.26548119496E+02 -0.92977107221E+01 -0.94098088877E+01  0.29661331342E+02  0.51100000000E-03 0.  1.
         12    1    4    4    0    0  0.32173358256E+01 -0.11777404373E+02  0.10887009890E+02  0.16358040467E+02  0.00000000000E+00 0. -1.
</event>
<event>
 8    1  0.1212194E-006  0.9118800E+02  0.7816164E-02  0.1184000E+00
        -11   -1    0    0    0    0  0.00000000000E+00  0.00000000000E+00  0.45593999997E+02  0.45594000000E+02  0.51100000000E-03 0.  1.
         11   -1    0    0    0    0 -0.00000000000E+00 -0.00000000000E+00 -0.45593999997E+02  0.45594000000E+02  0.51100000000E-03 0. -1.
         23    2    1    2    0    0  0.17763568394E-14 -0.35527136788E-14 -0.35527136788E-14  0.91188000000E+02  0.91188000000E+02 0.  0.
    9900012    2    3    3    0    0 -0.13322512697E+02  0.18893761503E+02  0.28658631094E+02  0.54367072465E+02  0.39999973299E+02 0.  0.
         12    1    3    3    0    0  0.13322512697E+02 -0.18893761503E+02 -0.28658631094E+02  0.36820927535E+02  0.00000000000E+00 0. -1.
         11    1    4    4    0    0  0.94305001780E+00  0.44807683124E+00 -0.22163217376E+01  0.24499384662E+01  0.51100000000E-03 0. -1.
        -11    1    4    4    0    0 -0.76361248980E+01 -0.33564803965E+01  0.27676283039E+02  0.28905933772E+02  0.51100000000E-03 0.  1.
        -12    1    4    4    0    0 -0.66294378172E+01  0.21802165069E+02  0.31986697925E+01  0.23011200227E+02  0.00000000000E+00 0.  1.
</event>
<event>
 8    1  0.1212194E-006  0.9118800E+02  0.7816164E-02  0.1184000E+00
        -11   -1    0    0    0    0  0.00000000000E+00  0.00000000000E+00  0.45593999997E+02  0.45594000000E+02  0.51100000000E-03 0.  1.
         11   -1    0    0    0    0 -0.00000000000E+00 -0.00000000000E+00 -0.45593999997E+02  0.45594000000E+02  0.51100000000E-03 0. -1.
         23    2    1    2    0    0  0.71054273576E-14  0.00000000000E+00  0.00000000000E+00  0.91188000000E+02  0.91188000000E+02 0.  0.
    9900012    2    3    3    0    0 -0.25241951152E+02 -0.18287185503E+02  0.19601046277E+02  0.54367105568E+02  0.40000048764E+02 0.  0.
         12    1    3    3    0    0  0.25241951152E+02  0.18287185503E+02 -0.19601046277E+02  0.36820894432E+02  0.00000000000E+00 0. -1.
         11    1    4    4    0    0 -0.16912657002E+02 -0.54804306142E+01 -0.42651376738E+01  0.18282901472E+02  0.51100000000E-03 0. -1.
        -11    1    4    4    0    0  0.42818253569E+01 -0.26830656329E-01  0.15855732385E+02  0.16423732767E+02  0.51100000000E-03 0.  1.
        -12    1    4    4    0    0 -0.12611119507E+02 -0.12779924232E+02  0.80104515659E+01  0.19660471329E+02  0.00000000000E+00 0.  1.
</event>
<event>
 8    1  0.1212194E-006  0.9118800E+02  0.7816164E-02  0.1184000E+00
        -11   -1    0    0    0    0  0.00000000000E+00  0.00000000000E+00  0.45593999997E+02  0.45594000000E+02  0.51100000000E-03 0. -1.
         11   -1    0    0    0    0 -0.00000000000E+00 -0.00000000000E+00 -0.45593999997E+02  0.45594000000E+02  0.51100000000E-03 0.  1.
         23    2    1    2    0    0  0.35527136788E-14  0.00000000000E+00  0.00000000000E+00  0.91188000000E+02  0.91188000000E+02 0.  0.
    9900012    2    3    3    0    0 -0.19881604428E+02  0.19925283963E+02 -0.23737815073E+02  0.54367095610E+02  0.40000026062E+02 0.  0.
         12    1    3    3    0    0  0.19881604428E+02 -0.19925283963E+02  0.23737815073E+02  0.36820904390E+02  0.00000000000E+00 0. -1.
         11    1    4    4    0    0 -0.28430838537E+01  0.82270217758E+01  0.77167567178E+01  0.11632512523E+02  0.51100000000E-03 0. -1.
        -11    1    4    4    0    0  0.33506913167E+00  0.40594184299E+01  0.17938692431E+01  0.44507433575E+01  0.51100000000E-03 0.  1.
        -12    1    4    4    0    0 -0.17373589706E+02  0.76388437576E+01 -0.33248441034E+02  0.38283839729E+02  0.00000000000E+00 0.  1.
</event>
<event>
 8    1  0.1212194E-006  0.9118800E+02  0.7816164E-02  0.1184000E+00
        -11   -1    0    0    0    0  0.00000000000E+00  0.00000000000E+00  0.45593999997E+02  0.45594000000E+02  0.51100000000E-03 0.  1.
         11   -1    0    0    0    0 -0.00000000000E+00 -0.00000000000E+00 -0.45593999997E+02  0.45594000000E+02  0.51100000000E-03 0. -1.
         23    2    1    2    0    0  0.88817841970E-15  0.00000000000E+00  0.35527136788E-14  0.91188000000E+02  0.91188000000E+02 0.  0.
    9900012    2    3    3    0    0  0.72792170704E+01  0.31918233913E+02  0.16852841184E+02  0.54367096789E+02  0.40000028750E+02 0.  0.
         12    1    3    3    0    0 -0.72792170704E+01 -0.31918233913E+02 -0.16852841184E+02  0.36820903211E+02  0.00000000000E+00 0. -1.
         11    1    4    4    0    0  0.95971429510E+01  0.32683286161E+02  0.89932906941E+01  0.35230407674E+02  0.51100000000E-03 0. -1.
        -11    1    4    4    0    0  0.45725032907E+01  0.57800665322E+01  0.58823468074E+01  0.94296850257E+01  0.51100000000E-03 0.  1.
         12    1    4    4    0    0 -0.68904291713E+01 -0.65451187792E+01  0.19772036821E+01  0.97070040898E+01  0.00000000000E+00 0. -1.
</event>
<event>
 8    1  0.1212194E-006  0.9118800E+02  0.7816164E-02  0.1184000E+00
        -11   -1    0    0    0    0  0.00000000000E+00  0.00000000000E+00  0.45593999997E+02  0.45594000000E+02  0.51100000000E-03 0.  1.
         11   -1    0    0    0    0 -0.00000000000E+00 -0.00000000000E+00 -0.45593999997E+02  0.45594000000E+02  0.51100000000E-03 0. -1.
         23    2    1    2    0    0  0.11102230246E-15  0.00000000000E+00  0.00000000000E+00  0.91188000000E+02  0.91188000000E+02 0.  0.
    9900012    2    3    3    0    0  0.76887730318E+00 -0.28390989268E+02 -0.23433750024E+02  0.54367080890E+02  0.39999992505E+02 0.  0.
        -12    1    3    3    0    0 -0.76887730318E+00  0.28390989268E+02  0.23433750024E+02  0.36820919110E+02  0.00000000000E+00 0.  1.
         11    1    4    4    0    0 -0.11675014278E+02 -0.11635883183E+02 -0.14520069187E+02  0.21966614334E+02  0.51100000000E-03 0. -1.
        -11    1    4    4    0    0 -0.58849136979E+00  0.51224538120E+01  0.65371194005E+00  0.51974219292E+01  0.51100000000E-03 0.  1.
         12    1    4    4    0    0  0.13032382951E+02 -0.21877559897E+02 -0.95673927776E+01  0.27203044627E+02  0.00000000000E+00 0. -1.
</event>
<event>
 8    1  0.1212194E-006  0.9118800E+02  0.7816164E-02  0.1184000E+00
        -11   -1    0    0    0    0  0.00000000000E+00  0.00000000000E+00  0.45593999997E+02  0.45594000000E+02  0.51100000000E-03 0.  1.
         11   -1    0    0    0    0 -0.00000000000E+00 -0.00000000000E+00 -0.45593999997E+02  0.45594000000E+02  0.51100000000E-03 0. -1.
         23    2    1    2    0    0  0.88817841970E-15  0.17763568394E-14  0.71054273576E-14  0.91188000000E+02  0.91188000000E+02 0.  0.
    9900012    2    3    3    0    0  0.61962319858E+01 -0.89348052436E+01 -0.35178927953E+02  0.54367068352E+02  0.39999963921E+02 0.  0.
        -12    1    3    3    0    0 -0.61962319858E+01  0.89348052436E+01  0.35178927953E+02  0.36820931648E+02  0.00000000000E+00 0.  1.
         11    1    4    4    0    0  0.59266652160E+00  0.11877123620E+01 -0.14163455268E+02  0.14225518608E+02  0.51100000000E-03 0. -1.
        -11    1    4    4    0    0  0.18636594471E+02 -0.35105531911E+01 -0.80400525773E+01  0.20598278639E+02  0.51100000000E-03 0.  1.
         12    1    4    4    0    0 -0.13033029007E+02 -0.66119644144E+01 -0.12975420107E+02  0.19543271104E+02  0.00000000000E+00 0. -1.
</event>
<event>
 8    1  0.1212194E-006  0.9118800E+02  0.7816164E-02  0.1184000E+00
        -11   -1    0    0    0    0  0.00000000000E+00  0.00000000000E+00  0.45593999997E+02  0.45594000000E+02  0.51100000000E-03 0.  1.
         11   -1    0    0    0    0 -0.00000000000E+00 -0.00000000000E+00 -0.45593999997E+02  0.45594000000E+02  0.51100000000E-03 0. -1.
         23    2    1    2    0    0  0.24980018054E-14  0.00000000000E+00  0.17763568394E-14  0.91188000000E+02  0.91188000000E+02 0.  0.
    9900012    2    3    3    0    0 -0.33297743477E+00  0.34059176567E+02 -0.13987156234E+02  0.54367096672E+02  0.40000028483E+02 0.  0.
        -12    1    3    3    0    0  0.33297743477E+00 -0.34059176567E+02  0.13987156234E+02  0.36820903328E+02  0.00000000000E+00 0.  1.
         11    1    4    4    0    0 -0.77738513917E+01  0.20526944464E+02 -0.52729608389E+01  0.22574151828E+02  0.51100000000E-03 0. -1.
        -11    1    4    4    0    0  0.14803593384E+02  0.53188156479E+01 -0.12541102735E+02  0.20117540482E+02  0.51100000000E-03 0.  1.
        -12    1    4    4    0    0 -0.73627194272E+01  0.82134164553E+01  0.38269073395E+01  0.11675404362E+02  0.00000000000E+00 0.  1.
</event>
<event>
 8    1  0.1212194E-006  0.9118800E+02  0.7816164E-02  0.1184000E+00
        -11   -1    0    0    0    0  0.00000000000E+00  0.00000000000E+00  0.45593999997E+02  0.45594000000E+02  0.51100000000E-03 0. -1.
         11   -1    0    0    0    0 -0.00000000000E+00 -0.00000000000E+00 -0.45593999997E+02  0.45594000000E+02  0.51100000000E-03 0.  1.
         23    2    1    2    0    0 -0.35527136788E-14  0.71054273576E-14 -0.35527136788E-14  0.91188000000E+02  0.91188000000E+02 0.  0.
    9900012    2    3    3    0    0 -0.23391312793E+02  0.21885139021E+02 -0.18156739944E+02  0.54367081631E+02  0.39999994194E+02 0.  0.
        -12    1    3    3    0    0  0.23391312793E+02 -0.21885139021E+02  0.18156739944E+02  0.36820918369E+02  0.00000000000E+00 0.  1.
         11    1    4    4    0    0 -0.76156933764E+01  0.44912567798E+01 -0.95576634936E+01  0.13019950260E+02  0.51100000000E-03 0. -1.
        -11    1    4    4    0    0 -0.12243015350E+02  0.14332061589E+02 -0.20925874045E+02  0.28163657771E+02  0.51100000000E-03 0.  1.
         12    1    4    4    0    0 -0.35326040663E+01  0.30618206531E+01  0.12326797595E+02  0.13183473599E+02  0.00000000000E+00 0. -1.
</event>
<event>
 8    1  0.1212194E-006  0.9118800E+02  0.7816164E-02  0.1184000E+00
        -11   -1    0    0    0    0  0.00000000000E+00  0.00000000000E+00  0.45593999997E+02  0.45594000000E+02  0.51100000000E-03 0.  1.
         11   -1    0    0    0    0 -0.00000000000E+00 -0.00000000000E+00 -0.45593999997E+02  0.45594000000E+02  0.51100000000E-03 0. -1.
         23    2    1    2    0    0 -0.88817841970E-15 -0.71054273576E-14  0.00000000000E+00  0.91188000000E+02  0.91188000000E+02 0.  0.
    9900012    2    3    3    0    0 -0.18473354017E+01 -0.32044161495E+02 -0.18042674778E+02  0.54367094970E+02  0.40000024604E+02 0.  0.
         12    1    3    3    0    0  0.18473354017E+01  0.32044161495E+02  0.18042674778E+02  0.36820905030E+02  0.00000000000E+00 0. -1.
         11    1    4    4    0    0  0.18863460641E+01 -0.34806163833E+02 -0.86475709369E+01  0.35913894604E+02  0.51100000000E-03 0.  1.
        -11    1    4    4    0    0 -0.83528543035E+01  0.25710002663E+01 -0.10538406362E+02  0.13690808095E+02  0.51100000000E-03 0. -1.
        -12    1    4    4    0    0  0.46191728377E+01  0.19100207168E+00  0.11433025200E+01  0.47623922716E+01  0.00000000000E+00 0.  1.
</event>
<event>
 8    1  0.1212194E-006  0.9118800E+02  0.7816164E-02  0.1184000E+00
        -11   -1    0    0    0    0  0.00000000000E+00  0.00000000000E+00  0.45593999997E+02  0.45594000000E+02  0.51100000000E-03 0. -1.
         11   -1    0    0    0    0 -0.00000000000E+00 -0.00000000000E+00 -0.45593999997E+02  0.45594000000E+02  0.51100000000E-03 0.  1.
         23    2    1    2    0    0 -0.35527136788E-14 -0.88817841970E-15  0.00000000000E+00  0.91188000000E+02  0.91188000000E+02 0.  0.
    9900012    2    3    3    0    0  0.31132427472E+02 -0.79868661016E+01 -0.17965574509E+02  0.54367082875E+02  0.39999997031E+02 0.  0.
         12    1    3    3    0    0 -0.31132427472E+02  0.79868661016E+01  0.17965574509E+02  0.36820917125E+02  0.00000000000E+00 0. -1.
         11    1    4    4    0    0 -0.27538346843E+01 -0.83165745595E+01 -0.63062078335E+01  0.10794316809E+02  0.51100000000E-03 0. -1.
        -11    1    4    4    0    0  0.15885136410E+02 -0.98712361806E+01 -0.13097137249E+02  0.22832298765E+02  0.51100000000E-03 0.  1.
         12    1    4    4    0    0  0.18001125747E+02  0.10200944638E+02  0.14377705734E+01  0.20740467302E+02  0.00000000000E+00 0. -1.
</event>
<event>
 8    1  0.1212194E-006  0.9118800E+02  0.7816164E-02  0.1184000E+00
        -11   -1    0    0    0    0  0.00000000000E+00  0.00000000000E+00  0.45593999997E+02  0.45594000000E+02  0.51100000000E-03 0.  1.
         11   -1    0    0    0    0 -0.00000000000E+00 -0.00000000000E+00 -0.45593999997E+02  0.45594000000E+02  0.51100000000E-03 0. -1.
         23    2    1    2    0    0  0.00000000000E+00  0.00000000000E+00  0.00000000000E+00  0.91188000000E+02  0.91188000000E+02 0.  0.
    9900012    2    3    3    0    0  0.23788352446E+02  0.98799875891E+01 -0.26311417386E+02  0.54366938748E+02  0.39999668462E+02 0.  0.
        -12    1    3    3    0    0 -0.23788352446E+02 -0.98799875891E+01  0.26311417386E+02  0.36821061252E+02  0.00000000000E+00 0.  1.
         11    1    4    4    0    0  0.11373368535E+02  0.90925167731E+01 -0.18890054237E+02  0.23850818066E+02  0.51100000000E-03 0. -1.
        -11    1    4    4    0    0 -0.53931200463E+01 -0.57795689278E+01 -0.83689581165E+01  0.11512107585E+02  0.51100000000E-03 0.  1.
         12    1    4    4    0    0  0.17808103958E+02  0.65670397439E+01  0.94759496743E+00  0.19004013097E+02  0.00000000000E+00 0. -1.
</event>
<event>
 8    1  0.1212194E-006  0.9118800E+02  0.7816164E-02  0.1184000E+00
        -11   -1    0    0    0    0  0.00000000000E+00  0.00000000000E+00  0.45593999997E+02  0.45594000000E+02  0.51100000000E-03 0. -1.
         11   -1    0    0    0    0 -0.00000000000E+00 -0.00000000000E+00 -0.45593999997E+02  0.45594000000E+02  0.51100000000E-03 0.  1.
         23    2    1    2    0    0  0.00000000000E+00  0.00000000000E+00  0.00000000000E+00  0.91188000000E+02  0.91188000000E+02 0.  0.
    9900012    2    3    3    0    0  0.24902816258E+02 -0.23560471260E+02  0.13436297271E+02  0.54367080023E+02  0.39999990529E+02 0.  0.
        -12    1    3    3    0    0 -0.24902816258E+02  0.23560471260E+02 -0.13436297271E+02  0.36820919977E+02  0.00000000000E+00 0.  1.
         11    1    4    4    0    0  0.12357912256E+02 -0.17711896320E+02  0.17694611071E+02  0.27920038105E+02  0.51100000000E-03 0. -1.
        -11    1    4    4    0    0  0.27291951630E+01 -0.12717983468E+02 -0.60279213311E+01  0.14336367935E+02  0.51100000000E-03 0.  1.
         12    1    4    4    0    0  0.98157088393E+01  0.68694085273E+01  0.17696075317E+01  0.12110673984E+02  0.00000000000E+00 0. -1.
</event>
<event>
 8    1  0.1212194E-006  0.9118800E+02  0.7816164E-02  0.1184000E+00
        -11   -1    0    0    0    0  0.00000000000E+00  0.00000000000E+00  0.45593999997E+02  0.45594000000E+02  0.51100000000E-03 0.  1.
         11   -1    0    0    0    0 -0.00000000000E+00 -0.00000000000E+00 -0.45593999997E+02  0.45594000000E+02  0.51100000000E-03 0. -1.
         23    2    1    2    0    0 -0.17763568394E-14 -0.35527136788E-14  0.00000000000E+00  0.91188000000E+02  0.91188000000E+02 0.  0.
    9900012    2    3    3    0    0 -0.65588838541E+01 -0.18316780209E+02 -0.31261101963E+02  0.54367083518E+02  0.39999998496E+02 0.  0.
        -12    1    3    3    0    0  0.65588838541E+01  0.18316780209E+02  0.31261101963E+02  0.36820916482E+02  0.00000000000E+00 0.  1.
         11    1    4    4    0    0 -0.67423022310E+01 -0.33681349816E+00 -0.12450076511E+02  0.14162502890E+02  0.51100000000E-03 0. -1.
        -11    1    4    4    0    0  0.13300512382E+02 -0.90127914870E+01 -0.18237257462E+02  0.24304970685E+02  0.51100000000E-03 0.  1.
        -12    1    4    4    0    0 -0.13117094005E+02 -0.89671752241E+01 -0.57376798978E+00  0.15899609943E+02  0.00000000000E+00 0.  1.
</event>
<event>
 8    1  0.1212194E-006  0.9118800E+02  0.7816164E-02  0.1184000E+00
        -11   -1    0    0    0    0  0.00000000000E+00  0.00000000000E+00  0.45593999997E+02  0.45594000000E+02  0.51100000000E-03 0.  1.
         11   -1    0    0    0    0 -0.00000000000E+00 -0.00000000000E+00 -0.45593999997E+02  0.45594000000E+02  0.51100000000E-03 0. -1.
         23    2    1    2    0    0  0.00000000000E+00 -0.35527136788E-14  0.00000000000E+00  0.91188000000E+02  0.91188000000E+02 0.  0.
    9900012    2    3    3    0    0  0.17521849964E+02  0.18513173031E+02 -0.26571174896E+02  0.54367080169E+02  0.39999990862E+02 0.  0.
        -12    1    3    3    0    0 -0.17521849964E+02 -0.18513173031E+02  0.26571174896E+02  0.36820919831E+02  0.00000000000E+00 0.  1.
         11    1    4    4    0    0  0.11893365667E+02  0.60955982013E+01 -0.20006401027E+01  0.13513364696E+02  0.51100000000E-03 0. -1.
        -11    1    4    4    0    0 -0.51393937238E+01  0.12881060191E+02  0.16780516932E+00  0.13869507502E+02  0.51100000000E-03 0.  1.
         12    1    4    4    0    0  0.10767878021E+02 -0.46348536193E+00 -0.24738339963E+02  0.26984207972E+02  0.00000000000E+00 0. -1.
</event>
<event>
 8    1  0.1212194E-006  0.9118800E+02  0.7816164E-02  0.1184000E+00
        -11   -1    0    0    0    0  0.00000000000E+00  0.00000000000E+00  0.45593999997E+02  0.45594000000E+02  0.51100000000E-03 0.  1.
         11   -1    0    0    0    0 -0.00000000000E+00 -0.00000000000E+00 -0.45593999997E+02  0.45594000000E+02  0.51100000000E-03 0. -1.
         23    2    1    2    0    0  0.00000000000E+00  0.44408920985E-15  0.00000000000E+00  0.91188000000E+02  0.91188000000E+02 0.  0.
    9900012    2    3    3    0    0 -0.27074590735E+02 -0.38023109038E+01  0.24663525731E+02  0.54367074792E+02  0.39999978604E+02 0.  0.
         12    1    3    3    0    0  0.27074590735E+02  0.38023109038E+01 -0.24663525731E+02  0.36820925208E+02  0.00000000000E+00 0. -1.
         11    1    4    4    0    0 -0.88632443789E+00 -0.12677104949E+01  0.21538567708E+01  0.26517466240E+01  0.51100000000E-03 0. -1.
        -11    1    4    4    0    0 -0.12210609760E+02  0.95644576115E+01  0.28360421460E+02  0.32324779129E+02  0.51100000000E-03 0.  1.
         12    1    4    4    0    0 -0.13977656537E+02 -0.12099058020E+02 -0.58507524991E+01  0.19390549039E+02  0.00000000000E+00 0. -1.
</event>
<event>
 8    1  0.1212194E-006  0.9118800E+02  0.7816164E-02  0.1184000E+00
        -11   -1    0    0    0    0  0.00000000000E+00  0.00000000000E+00  0.45593999997E+02  0.45594000000E+02  0.51100000000E-03 0. -1.
         11   -1    0    0    0    0 -0.00000000000E+00 -0.00000000000E+00 -0.45593999997E+02  0.45594000000E+02  0.51100000000E-03 0.  1.
         23    2    1    2    0    0  0.00000000000E+00  0.00000000000E+00  0.00000000000E+00  0.91188000000E+02  0.91188000000E+02 0.  0.
    9900012    2    3    3    0    0 -0.22285110688E+02 -0.84659834006E+01 -0.28062085448E+02  0.54367086472E+02  0.40000005230E+02 0.  0.
         12    1    3    3    0    0  0.22285110688E+02  0.84659834006E+01  0.28062085448E+02  0.36820913528E+02  0.00000000000E+00 0. -1.
         11    1    4    4    0    0 -0.21921869474E+02  0.92468302879E+01 -0.14875587509E+02  0.28059852737E+02  0.51100000000E-03 0. -1.
        -11    1    4    4    0    0 -0.31470761001E+01 -0.79655983659E+01 -0.13700438943E+02  0.16157254495E+02  0.51100000000E-03 0.  1.
         12    1    4    4    0    0  0.27838348865E+01 -0.97472153227E+01  0.51394100396E+00  0.10149979240E+02  0.00000000000E+00 0. -1.
</event>
<event>
 8    1  0.1212194E-006  0.9118800E+02  0.7816164E-02  0.1184000E+00
        -11   -1    0    0    0    0  0.00000000000E+00  0.00000000000E+00  0.45593999997E+02  0.45594000000E+02  0.51100000000E-03 0. -1.
         11   -1    0    0    0    0 -0.00000000000E+00 -0.00000000000E+00 -0.45593999997E+02  0.45594000000E+02  0.51100000000E-03 0.  1.
         23    2    1    2    0    0  0.35527136788E-14  0.35527136788E-14  0.00000000000E+00  0.91188000000E+02  0.91188000000E+02 0.  0.
    9900012    2    3    3    0    0  0.25994470778E+02  0.20905607616E+02 -0.15589216070E+02  0.54367073905E+02  0.39999976581E+02 0.  0.
        -12    1    3    3    0    0 -0.25994470778E+02 -0.20905607616E+02  0.15589216070E+02  0.36820926095E+02  0.00000000000E+00 0.  1.
         11    1    4    4    0    0  0.53211156053E+01  0.24998599139E+01 -0.18530524131E+02  0.19440779195E+02  0.51100000000E-03 0.  1.
        -11    1    4    4    0    0  0.14111483147E+02  0.95308222091E+00  0.70954752844E+01  0.15823656091E+02  0.51100000000E-03 0. -1.
        -12    1    4    4    0    0  0.65618720261E+01  0.17452665481E+02 -0.41541672228E+01  0.19102638619E+02  0.00000000000E+00 0.  1.
</event>
<event>
 8    1  0.1212194E-006  0.9118800E+02  0.7816164E-02  0.1184000E+00
        -11   -1    0    0    0    0  0.00000000000E+00  0.00000000000E+00  0.45593999997E+02  0.45594000000E+02  0.51100000000E-03 0.  1.
         11   -1    0    0    0    0 -0.00000000000E+00 -0.00000000000E+00 -0.45593999997E+02  0.45594000000E+02  0.51100000000E-03 0. -1.
         23    2    1    2    0    0  0.00000000000E+00  0.44408920985E-15  0.00000000000E+00  0.91188000000E+02  0.91188000000E+02 0.  0.
    9900012    2    3    3    0    0 -0.23706278245E+02 -0.23606159846E+01 -0.28075245049E+02  0.54367088542E+02  0.40000009949E+02 0.  0.
        -12    1    3    3    0    0  0.23706278245E+02  0.23606159846E+01  0.28075245049E+02  0.36820911458E+02  0.00000000000E+00 0.  1.
         11    1    4    4    0    0 -0.83753908612E+01 -0.67521648319E+01 -0.23769786901E+02  0.26091026648E+02  0.51100000000E-03 0. -1.
        -11    1    4    4    0    0 -0.10354516934E+02 -0.89353146053E+01 -0.13189634065E+01  0.13740288671E+02  0.51100000000E-03 0.  1.
         12    1    4    4    0    0 -0.49763704500E+01  0.13326863453E+02 -0.29864947420E+01  0.14535773223E+02  0.00000000000E+00 0. -1.
</event>
<event>
 8    1  0.1212194E-006  0.9118800E+02  0.7816164E-02  0.1184000E+00
        -11   -1    0    0    0    0  0.00000000000E+00  0.00000000000E+00  0.45593999997E+02  0.45594000000E+02  0.51100000000E-03 0.  1.
         11   -1    0    0    0    0 -0.00000000000E+00 -0.00000000000E+00 -0.45593999997E+02  0.45594000000E+02  0.51100000000E-03 0. -1.
         23    2    1    2    0    0  0.00000000000E+00 -0.35527136788E-14 -0.17763568394E-14  0.91188000000E+02  0.91188000000E+02 0.  0.
    9900012    2    3    3    0    0 -0.26146072477E+02 -0.24135843184E+02  0.94669661879E+01  0.54367089080E+02  0.40000011176E+02 0.  0.
         12    1    3    3    0    0  0.26146072477E+02  0.24135843184E+02 -0.94669661879E+01  0.36820910920E+02  0.00000000000E+00 0. -1.
         11    1    4    4    0    0 -0.22651298094E+02 -0.16701068573E+02 -0.15269925062E+01  0.28184015029E+02  0.51100000000E-03 0. -1.
        -11    1    4    4    0    0 -0.10040744871E+02 -0.65456430823E+01  0.14412248627E+02  0.18744996977E+02  0.51100000000E-03 0.  1.
         12    1    4    4    0    0  0.65459704872E+01 -0.88913152874E+00 -0.34182899327E+01  0.74380770740E+01  0.00000000000E+00 0. -1.
</event>
<event>
 8    1  0.1212194E-006  0.9118800E+02  0.7816164E-02  0.1184000E+00
        -11   -1    0    0    0    0  0.00000000000E+00  0.00000000000E+00  0.45593999997E+02  0.45594000000E+02  0.51100000000E-03 0. -1.
         11   -1    0    0    0    0 -0.00000000000E+00 -0.00000000000E+00 -0.45593999997E+02  0.45594000000E+02  0.51100000000E-03 0.  1.
         23    2    1    2    0    0  0.00000000000E+00 -0.88817841970E-15  0.00000000000E+00  0.91188000000E+02  0.91188000000E+02 0.  0.
    9900012    2    3    3    0    0  0.53579552043E+01  0.63809460171E+01  0.35865815093E+02  0.54367070512E+02  0.39999968846E+02 0.  0.
        -12    1    3    3    0    0 -0.53579552043E+01 -0.63809460171E+01 -0.35865815093E+02  0.36820929488E+02  0.00000000000E+00 0.  1.
         11    1    4    4    0    0  0.47826003915E+01  0.13314526666E+02  0.26884403507E+02  0.30379615518E+02  0.51100000000E-03 0. -1.
        -11    1    4    4    0    0  0.17312235175E+01  0.15706526898E+01 -0.61568113007E+01  0.65856214887E+01  0.51100000000E-03 0.  1.
         12    1    4    4    0    0 -0.11558687048E+01 -0.85042333392E+01  0.15138222887E+02  0.17401833505E+02  0.00000000000E+00 0. -1.
</event>
<event>
 8    1  0.1212194E-006  0.9118800E+02  0.7816164E-02  0.1184000E+00
        -11   -1    0    0    0    0  0.00000000000E+00  0.00000000000E+00  0.45593999997E+02  0.45594000000E+02  0.51100000000E-03 0.  1.
         11   -1    0    0    0    0 -0.00000000000E+00 -0.00000000000E+00 -0.45593999997E+02  0.45594000000E+02  0.51100000000E-03 0. -1.
         23    2    1    2    0    0  0.00000000000E+00  0.00000000000E+00 -0.35527136788E-14  0.91188000000E+02  0.91188000000E+02 0.  0.
    9900012    2    3    3    0    0 -0.23538193466E+02  0.10775035122E+02  0.26184638091E+02  0.54367038504E+02  0.39999895877E+02 0.  0.
         12    1    3    3    0    0  0.23538193466E+02 -0.10775035122E+02 -0.26184638091E+02  0.36820961496E+02  0.00000000000E+00 0. -1.
         11    1    4    4    0    0 -0.15277672494E+02  0.92980153111E+01  0.24209092582E+01  0.18047746881E+02  0.51100000000E-03 0. -1.
        -11    1    4    4    0    0 -0.43852927128E+01  0.13303989848E+02  0.76564268652E+01  0.15963953478E+02  0.51100000000E-03 0.  1.
        -12    1    4    4    0    0 -0.38752282592E+01 -0.11826970037E+02  0.16107301967E+02  0.20355338145E+02  0.00000000000E+00 0.  1.
</event>
<event>
 8    1  0.1212194E-006  0.9118800E+02  0.7816164E-02  0.1184000E+00
        -11   -1    0    0    0    0  0.00000000000E+00  0.00000000000E+00  0.45593999997E+02  0.45594000000E+02  0.51100000000E-03 0. -1.
         11   -1    0    0    0    0 -0.00000000000E+00 -0.00000000000E+00 -0.45593999997E+02  0.45594000000E+02  0.51100000000E-03 0.  1.
         23    2    1    2    0    0  0.22204460493E-15  0.00000000000E+00  0.00000000000E+00  0.91188000000E+02  0.91188000000E+02 0.  0.
    9900012    2    3    3    0    0  0.15389228602E+01  0.19868456998E+02  0.30962179549E+02  0.54367076200E+02  0.39999981814E+02 0.  0.
        -12    1    3    3    0    0 -0.15389228602E+01 -0.19868456998E+02 -0.30962179549E+02  0.36820923800E+02  0.00000000000E+00 0.  1.
         11    1    4    4    0    0 -0.10356828020E+02  0.16654070429E+02  0.29412728098E+02  0.35351527872E+02  0.51100000000E-03 0. -1.
        -11    1    4    4    0    0  0.10064366774E+02 -0.18986946367E+01  0.61079267614E+01  0.11924902074E+02  0.51100000000E-03 0.  1.
         12    1    4    4    0    0  0.18313841062E+01  0.51130812058E+01 -0.45584753102E+01  0.70906462551E+01  0.00000000000E+00 0. -1.
</event>
<event>
 8    1  0.1212194E-006  0.9118800E+02  0.7816164E-02  0.1184000E+00
        -11   -1    0    0    0    0  0.00000000000E+00  0.00000000000E+00  0.45593999997E+02  0.45594000000E+02  0.51100000000E-03 0.  1.
         11   -1    0    0    0    0 -0.00000000000E+00 -0.00000000000E+00 -0.45593999997E+02  0.45594000000E+02  0.51100000000E-03 0. -1.
         23    2    1    2    0    0 -0.35527136788E-14  0.00000000000E+00  0.00000000000E+00  0.91188000000E+02  0.91188000000E+02 0.  0.
    9900012    2    3    3    0    0  0.20102340923E+02 -0.30597701468E+02  0.39304281535E+01  0.54367194588E+02  0.40000251702E+02 0.  0.
        -12    1    3    3    0    0 -0.20102340923E+02  0.30597701468E+02 -0.39304281535E+01  0.36820805412E+02  0.00000000000E+00 0.  1.
         11    1    4    4    0    0  0.87805932571E+00 -0.23896567940E+01 -0.47889273727E+01  0.54235849228E+01  0.51100000000E-03 0. -1.
        -11    1    4    4    0    0 -0.11457347649E+01  0.71994877258E+01  0.79629701322E+00  0.73334453608E+01  0.51100000000E-03 0.  1.
        -12    1    4    4    0    0  0.20370016362E+02 -0.35407532400E+02  0.79230585130E+01  0.41610164304E+02  0.00000000000E+00 0.  1.
</event>
<event>
 8    1  0.1212194E-006  0.9118800E+02  0.7816164E-02  0.1184000E+00
        -11   -1    0    0    0    0  0.00000000000E+00  0.00000000000E+00  0.45593999997E+02  0.45594000000E+02  0.51100000000E-03 0.  1.
         11   -1    0    0    0    0 -0.00000000000E+00 -0.00000000000E+00 -0.45593999997E+02  0.45594000000E+02  0.51100000000E-03 0. -1.
         23    2    1    2    0    0  0.71054273576E-14  0.88817841970E-15  0.00000000000E+00  0.91188000000E+02  0.91188000000E+02 0.  0.
    9900012    2    3    3    0    0  0.35598238846E+02  0.47671300548E+01  0.81129108324E+01  0.54367089364E+02  0.40000011822E+02 0.  0.
         12    1    3    3    0    0 -0.35598238846E+02 -0.47671300548E+01 -0.81129108324E+01  0.36820910636E+02  0.00000000000E+00 0. -1.
         11    1    4    4    0    0  0.62546332644E+01 -0.15836312489E+00  0.89540837009E+01  0.10923421228E+02  0.51100000000E-03 0. -1.
        -11    1    4    4    0    0  0.40155363984E+01  0.10006682362E+02  0.10663696749E+02  0.15164849260E+02  0.51100000000E-03 0.  1.
         12    1    4    4    0    0  0.25328069184E+02 -0.50811891824E+01 -0.11504869617E+02  0.28278818875E+02  0.00000000000E+00 0. -1.
</event>
<event>
 8    1  0.1212194E-006  0.9118800E+02  0.7816164E-02  0.1184000E+00
        -11   -1    0    0    0    0  0.00000000000E+00  0.00000000000E+00  0.45593999997E+02  0.45594000000E+02  0.51100000000E-03 0. -1.
         11   -1    0    0    0    0 -0.00000000000E+00 -0.00000000000E+00 -0.45593999997E+02  0.45594000000E+02  0.51100000000E-03 0.  1.
         23    2    1    2    0    0 -0.12212453271E-14  0.00000000000E+00 -0.35527136788E-14  0.91188000000E+02  0.91188000000E+02 0.  0.
    9900012    2    3    3    0    0 -0.66825228225E+00 -0.27089628216E+02 -0.24929620518E+02  0.54367075281E+02  0.39999979718E+02 0.  0.
         12    1    3    3    0    0  0.66825228225E+00  0.27089628216E+02  0.24929620518E+02  0.36820924719E+02  0.00000000000E+00 0. -1.
         11    1    4    4    0    0 -0.14832216977E+02 -0.16080372708E+02 -0.18746220224E+02  0.28809613323E+02  0.51100000000E-03 0. -1.
        -11    1    4    4    0    0  0.10612712102E+02 -0.14115380086E+02 -0.92446800252E+01  0.19933331939E+02  0.51100000000E-03 0.  1.
        -12    1    4    4    0    0  0.35512525928E+01  0.31061245785E+01  0.30612797315E+01  0.56241300189E+01  0.00000000000E+00 0.  1.
</event>
<event>
 8    1  0.1212194E-006  0.9118800E+02  0.7816164E-02  0.1184000E+00
        -11   -1    0    0    0    0  0.00000000000E+00  0.00000000000E+00  0.45593999997E+02  0.45594000000E+02  0.51100000000E-03 0.  1.
         11   -1    0    0    0    0 -0.00000000000E+00 -0.00000000000E+00 -0.45593999997E+02  0.45594000000E+02  0.51100000000E-03 0. -1.
         23    2    1    2    0    0  0.00000000000E+00  0.00000000000E+00  0.00000000000E+00  0.91188000000E+02  0.91188000000E+02 0.  0.
    9900012    2    3    3    0    0 -0.12441403509E+02 -0.11551766686E+02 -0.32673350049E+02  0.54367086944E+02  0.40000006306E+02 0.  0.
        -12    1    3    3    0    0  0.12441403509E+02  0.11551766686E+02  0.32673350049E+02  0.36820913056E+02  0.00000000000E+00 0.  1.
         11    1    4    4    0    0 -0.12637541454E+02 -0.29633433045E+01 -0.13356816423E+02  0.18625074570E+02  0.51100000000E-03 0. -1.
        -11    1    4    4    0    0 -0.12999950243E+02 -0.10000145863E+02 -0.77608915607E+01  0.18144780563E+02  0.51100000000E-03 0.  1.
         12    1    4    4    0    0  0.13196088188E+02  0.14117224816E+01 -0.11555642066E+02  0.17597231810E+02  0.00000000000E+00 0. -1.
</event>
<event>
 8    1  0.1212194E-006  0.9118800E+02  0.7816164E-02  0.1184000E+00
        -11   -1    0    0    0    0  0.00000000000E+00  0.00000000000E+00  0.45593999997E+02  0.45594000000E+02  0.51100000000E-03 0. -1.
         11   -1    0    0    0    0 -0.00000000000E+00 -0.00000000000E+00 -0.45593999997E+02  0.45594000000E+02  0.51100000000E-03 0.  1.
         23    2    1    2    0    0  0.00000000000E+00  0.35527136788E-14  0.00000000000E+00  0.91188000000E+02  0.91188000000E+02 0.  0.
    9900012    2    3    3    0    0 -0.16766942050E+02 -0.24252379263E+02  0.22056061773E+02  0.54367107744E+02  0.40000053723E+02 0.  0.
        -12    1    3    3    0    0  0.16766942050E+02  0.24252379263E+02 -0.22056061773E+02  0.36820892256E+02  0.00000000000E+00 0.  1.
         11    1    4    4    0    0  0.77137985691E+00 -0.48477626791E+01 -0.15508973404E+01  0.51479231441E+01  0.51100000000E-03 0. -1.
        -11    1    4    4    0    0  0.94875136411E+01  0.61624302949E+00  0.42634775642E+01  0.10419688660E+02  0.51100000000E-03 0.  1.
         12    1    4    4    0    0 -0.27025835548E+02 -0.20020859613E+02  0.19343481549E+02  0.38799495940E+02  0.00000000000E+00 0. -1.
</event>
<event>
 8    1  0.1212194E-006  0.9118800E+02  0.7816164E-02  0.1184000E+00
        -11   -1    0    0    0    0  0.00000000000E+00  0.00000000000E+00  0.45593999997E+02  0.45594000000E+02  0.51100000000E-03 0. -1.
         11   -1    0    0    0    0 -0.00000000000E+00 -0.00000000000E+00 -0.45593999997E+02  0.45594000000E+02  0.51100000000E-03 0.  1.
         23    2    1    2    0    0  0.00000000000E+00  0.00000000000E+00  0.88817841970E-15  0.91188000000E+02  0.91188000000E+02 0.  0.
    9900012    2    3    3    0    0 -0.15269737343E+02  0.32879859315E+02  0.64433342455E+01  0.54367264221E+02  0.40000410442E+02 0.  0.
        -12    1    3    3    0    0  0.15269737343E+02 -0.32879859315E+02 -0.64433342455E+01  0.36820735779E+02  0.00000000000E+00 0.  1.
         11    1    4    4    0    0 -0.13964336272E+02  0.18903012768E+02 -0.80280230590E+01  0.24834969976E+02  0.51100000000E-03 0. -1.
        -11    1    4    4    0    0 -0.57551640730E+01  0.16567607901E+01 -0.37687042930E+01  0.70760089126E+01  0.51100000000E-03 0.  1.
         12    1    4    4    0    0  0.44497630020E+01  0.12320085757E+02  0.18240061598E+02  0.22456285332E+02  0.00000000000E+00 0. -1.
</event>
<event>
 8    1  0.1212194E-006  0.9118800E+02  0.7816164E-02  0.1184000E+00
        -11   -1    0    0    0    0  0.00000000000E+00  0.00000000000E+00  0.45593999997E+02  0.45594000000E+02  0.51100000000E-03 0. -1.
         11   -1    0    0    0    0 -0.00000000000E+00 -0.00000000000E+00 -0.45593999997E+02  0.45594000000E+02  0.51100000000E-03 0.  1.
         23    2    1    2    0    0  0.00000000000E+00  0.00000000000E+00  0.00000000000E+00  0.91188000000E+02  0.91188000000E+02 0.  0.
    9900012    2    3    3    0    0  0.10578989616E+02 -0.86391154124E+01  0.34194016893E+02  0.54367080298E+02  0.39999991156E+02 0.  0.
        -12    1    3    3    0    0 -0.10578989616E+02  0.86391154124E+01 -0.34194016893E+02  0.36820919702E+02  0.00000000000E+00 0.  1.
         11    1    4    4    0    0  0.10056387592E+02 -0.63538365481E+01  0.12401672093E+02  0.17184401103E+02  0.51100000000E-03 0. -1.
        -11    1    4    4    0    0  0.14520743821E+02  0.40802682500E+00  0.54957102448E+01  0.15531301245E+02  0.51100000000E-03 0.  1.
        -12    1    4    4    0    0 -0.13998141798E+02 -0.26933056893E+01  0.16296634555E+02  0.21651377950E+02  0.00000000000E+00 0.  1.
</event>
<event>
 8    1  0.1212194E-006  0.9118800E+02  0.7816164E-02  0.1184000E+00
        -11   -1    0    0    0    0  0.00000000000E+00  0.00000000000E+00  0.45593999997E+02  0.45594000000E+02  0.51100000000E-03 0. -1.
         11   -1    0    0    0    0 -0.00000000000E+00 -0.00000000000E+00 -0.45593999997E+02  0.45594000000E+02  0.51100000000E-03 0.  1.
         23    2    1    2    0    0  0.00000000000E+00  0.00000000000E+00  0.00000000000E+00  0.91188000000E+02  0.91188000000E+02 0.  0.
    9900012    2    3    3    0    0  0.29426787358E+02 -0.20543588308E+02 -0.82341297738E+01  0.54367140044E+02  0.40000127357E+02 0.  0.
         12    1    3    3    0    0 -0.29426787358E+02  0.20543588308E+02  0.82341297738E+01  0.36820859956E+02  0.00000000000E+00 0. -1.
         11    1    4    4    0    0  0.15016573664E+02 -0.58485100187E+01  0.40461667294E+01  0.16615475302E+02  0.51100000000E-03 0. -1.
        -11    1    4    4    0    0  0.34132641465E+01  0.55974571172E+01 -0.13107992078E+02  0.14656102991E+02  0.51100000000E-03 0.  1.
        -12    1    4    4    0    0  0.10996949547E+02 -0.20292535407E+02  0.82769557481E+00  0.23095561750E+02  0.00000000000E+00 0.  1.
</event>
<event>
 8    1  0.1212194E-006  0.9118800E+02  0.7816164E-02  0.1184000E+00
        -11   -1    0    0    0    0  0.00000000000E+00  0.00000000000E+00  0.45593999997E+02  0.45594000000E+02  0.51100000000E-03 0. -1.
         11   -1    0    0    0    0 -0.00000000000E+00 -0.00000000000E+00 -0.45593999997E+02  0.45594000000E+02  0.51100000000E-03 0.  1.
         23    2    1    2    0    0  0.00000000000E+00  0.00000000000E+00  0.00000000000E+00  0.91188000000E+02  0.91188000000E+02 0.  0.
    9900012    2    3    3    0    0 -0.18456197168E+02  0.87876062674E+01 -0.30625588498E+02  0.54367083272E+02  0.39999997936E+02 0.  0.
         12    1    3    3    0    0  0.18456197168E+02 -0.87876062674E+01  0.30625588498E+02  0.36820916728E+02  0.00000000000E+00 0. -1.
         11    1    4    4    0    0 -0.13477292622E+02  0.10092992839E+02 -0.31608990850E+02  0.35813883114E+02  0.51100000000E-03 0. -1.
        -11    1    4    4    0    0 -0.48044863961E+01  0.78825800568E+01  0.14843048022E+01  0.93499368388E+01  0.51100000000E-03 0.  1.
         12    1    4    4    0    0 -0.17441814895E+00 -0.91879666287E+01 -0.50090244999E+00  0.92032633194E+01  0.00000000000E+00 0. -1.
</event>
<event>
 8    1  0.1212194E-006  0.9118800E+02  0.7816164E-02  0.1184000E+00
        -11   -1    0    0    0    0  0.00000000000E+00  0.00000000000E+00  0.45593999997E+02  0.45594000000E+02  0.51100000000E-03 0.  1.
         11   -1    0    0    0    0 -0.00000000000E+00 -0.00000000000E+00 -0.45593999997E+02  0.45594000000E+02  0.51100000000E-03 0. -1.
         23    2    1    2    0    0  0.22204460493E-14 -0.71054273576E-14  0.00000000000E+00  0.91188000000E+02  0.91188000000E+02 0.  0.
    9900012    2    3    3    0    0 -0.13591764189E+01  0.32959204076E+02  0.16359226067E+02  0.54367071558E+02  0.39999971231E+02 0.  0.
         12    1    3    3    0    0  0.13591764189E+01 -0.32959204076E+02 -0.16359226067E+02  0.36820928442E+02  0.00000000000E+00 0. -1.
         11    1    4    4    0    0 -0.17812378770E+02  0.20340583389E+02  0.16050511805E+02  0.31442631880E+02  0.51100000000E-03 0. -1.
        -11    1    4    4    0    0  0.32317033589E+01  0.74422610528E+01 -0.24180513643E+01  0.84662936897E+01  0.51100000000E-03 0.  1.
        -12    1    4    4    0    0  0.13221498992E+02  0.51763596339E+01  0.27267656254E+01  0.14458145989E+02  0.00000000000E+00 0.  1.
</event>
<event>
 8    1  0.1212194E-006  0.9118800E+02  0.7816164E-02  0.1184000E+00
        -11   -1    0    0    0    0  0.00000000000E+00  0.00000000000E+00  0.45593999997E+02  0.45594000000E+02  0.51100000000E-03 0. -1.
         11   -1    0    0    0    0 -0.00000000000E+00 -0.00000000000E+00 -0.45593999997E+02  0.45594000000E+02  0.51100000000E-03 0.  1.
         23    2    1    2    0    0  0.17763568394E-14 -0.88817841970E-15  0.71054273576E-14  0.91188000000E+02  0.91188000000E+02 0.  0.
    9900012    2    3    3    0    0 -0.13816336954E+02 -0.79475478193E+01 -0.33192260690E+02  0.54367070451E+02  0.39999968706E+02 0.  0.
         12    1    3    3    0    0  0.13816336954E+02  0.79475478193E+01  0.33192260690E+02  0.36820929549E+02  0.00000000000E+00 0. -1.
         11    1    4    4    0    0 -0.17630413121E+01 -0.15027804622E+02 -0.33806046300E+02  0.37037710420E+02  0.51100000000E-03 0. -1.
        -11    1    4    4    0    0 -0.44961383072E+01 -0.24778450857E+01  0.19785622362E+00  0.51375211233E+01  0.51100000000E-03 0.  1.
         12    1    4    4    0    0 -0.75571573352E+01  0.95581018879E+01  0.41592938690E+00  0.12191838907E+02  0.00000000000E+00 0. -1.
</event>
<event>
 8    1  0.1212194E-006  0.9118800E+02  0.7816164E-02  0.1184000E+00
        -11   -1    0    0    0    0  0.00000000000E+00  0.00000000000E+00  0.45593999997E+02  0.45594000000E+02  0.51100000000E-03 0.  1.
         11   -1    0    0    0    0 -0.00000000000E+00 -0.00000000000E+00 -0.45593999997E+02  0.45594000000E+02  0.51100000000E-03 0. -1.
         23    2    1    2    0    0  0.00000000000E+00  0.00000000000E+00  0.00000000000E+00  0.91188000000E+02  0.91188000000E+02 0.  0.
    9900012    2    3    3    0    0  0.29294606900E+02  0.14162060658E+02 -0.17234886501E+02  0.54367091969E+02  0.40000017763E+02 0.  0.
        -12    1    3    3    0    0 -0.29294606900E+02 -0.14162060658E+02  0.17234886501E+02  0.36820908031E+02  0.00000000000E+00 0.  1.
         11    1    4    4    0    0  0.11095858711E+02 -0.10603782614E+02 -0.11633747893E+02  0.19258825939E+02  0.51100000000E-03 0. -1.
        -11    1    4    4    0    0 -0.26854942717E+01  0.47380890729E+01  0.71058506119E+00  0.54923855416E+01  0.51100000000E-03 0.  1.
         12    1    4    4    0    0  0.20884242460E+02  0.20027754200E+02 -0.63117236700E+01  0.29615880489E+02  0.00000000000E+00 0. -1.
</event>
<event>
 8    1  0.1212194E-006  0.9118800E+02  0.7816164E-02  0.1184000E+00
        -11   -1    0    0    0    0  0.00000000000E+00  0.00000000000E+00  0.45593999997E+02  0.45594000000E+02  0.51100000000E-03 0. -1.
         11   -1    0    0    0    0 -0.00000000000E+00 -0.00000000000E+00 -0.45593999997E+02  0.45594000000E+02  0.51100000000E-03 0.  1.
         23    2    1    2    0    0 -0.17763568394E-14 -0.88817841970E-15  0.00000000000E+00  0.91188000000E+02  0.91188000000E+02 0.  0.
    9900012    2    3    3    0    0  0.15728596469E+02 -0.44218617691E+01  0.32997563466E+02  0.54367071127E+02  0.39999970249E+02 0.  0.
        -12    1    3    3    0    0 -0.15728596469E+02  0.44218617691E+01 -0.32997563466E+02  0.36820928873E+02  0.00000000000E+00 0.  1.
         11    1    4    4    0    0 -0.65481902656E+00 -0.12606526384E+02  0.41522812425E+01  0.13288895184E+02  0.51100000000E-03 0. -1.
        -11    1    4    4    0    0  0.14351883187E+02 -0.48846885820E+01  0.10415111070E+02  0.18393239857E+02  0.51100000000E-03 0.  1.
         12    1    4    4    0    0  0.20315323076E+01  0.13069353197E+02  0.18430171153E+02  0.22684936087E+02  0.00000000000E+00 0. -1.
</event>
<event>
 8    1  0.1212194E-006  0.9118800E+02  0.7816164E-02  0.1184000E+00
        -11   -1    0    0    0    0  0.00000000000E+00  0.00000000000E+00  0.45593999997E+02  0.45594000000E+02  0.51100000000E-03 0. -1.
         11   -1    0    0    0    0 -0.00000000000E+00 -0.00000000000E+00 -0.45593999997E+02  0.45594000000E+02  0.51100000000E-03 0.  1.
         23    2    1    2    0    0  0.00000000000E+00  0.00000000000E+00  0.00000000000E+00  0.91188000000E+02  0.91188000000E+02 0.  0.
    9900012    2    3    3    0    0 -0.28049654980E+02  0.87352377226E+01  0.22196456744E+02  0.54367214911E+02  0.40000298032E+02 0.  0.
        -12    1    3    3    0    0  0.28049654980E+02 -0.87352377226E+01 -0.22196456744E+02  0.36820785089E+02  0.00000000000E+00 0.  1.
         11    1    4    4    0    0 -0.15790496591E+01  0.21988683099E+01  0.16095712128E+02  0.16321775909E+02  0.51100000000E-03 0. -1.
        -11    1    4    4    0    0 -0.19931225459E+02  0.81911276445E+01  0.15451191788E+02  0.26515799975E+02  0.51100000000E-03 0.  1.
        -12    1    4    4    0    0 -0.65393798620E+01 -0.16547582319E+01 -0.93504471717E+01  0.11529639027E+02  0.00000000000E+00 0.  1.
</event>
<event>
 8    1  0.1212194E-006  0.9118800E+02  0.7816164E-02  0.1184000E+00
        -11   -1    0    0    0    0  0.00000000000E+00  0.00000000000E+00  0.45593999997E+02  0.45594000000E+02  0.51100000000E-03 0.  1.
         11   -1    0    0    0    0 -0.00000000000E+00 -0.00000000000E+00 -0.45593999997E+02  0.45594000000E+02  0.51100000000E-03 0. -1.
         23    2    1    2    0    0  0.00000000000E+00 -0.17763568394E-14  0.00000000000E+00  0.91188000000E+02  0.91188000000E+02 0.  0.
    9900012    2    3    3    0    0  0.32946742717E+02 -0.15301729236E+02 -0.60126790795E+01  0.54367040167E+02  0.39999899669E+02 0.  0.
        -12    1    3    3    0    0 -0.32946742717E+02  0.15301729236E+02  0.60126790795E+01  0.36820959833E+02  0.00000000000E+00 0.  1.
         11    1    4    4    0    0  0.16857762455E+02  0.54265886759E+01 -0.12868269138E+02  0.21891193903E+02  0.51100000000E-03 0. -1.
        -11    1    4    4    0    0  0.15248670214E+02 -0.17978138733E+02 -0.15173661634E+01  0.23622824046E+02  0.51100000000E-03 0.  1.
        -12    1    4    4    0    0  0.84031004831E+00 -0.27501791794E+01  0.83729562215E+01  0.88530222175E+01  0.00000000000E+00 0.  1.
</event>
<event>
 8    1  0.1212194E-006  0.9118800E+02  0.7816164E-02  0.1184000E+00
        -11   -1    0    0    0    0  0.00000000000E+00  0.00000000000E+00  0.45593999997E+02  0.45594000000E+02  0.51100000000E-03 0.  1.
         11   -1    0    0    0    0 -0.00000000000E+00 -0.00000000000E+00 -0.45593999997E+02  0.45594000000E+02  0.51100000000E-03 0. -1.
         23    2    1    2    0    0 -0.35527136788E-14  0.00000000000E+00 -0.35527136788E-14  0.91188000000E+02  0.91188000000E+02 0.  0.
    9900012    2    3    3    0    0  0.21089824019E+02  0.15094285643E+02  0.26137359655E+02  0.54367086025E+02  0.40000004211E+02 0.  0.
         12    1    3    3    0    0 -0.21089824019E+02 -0.15094285643E+02 -0.26137359655E+02  0.36820913975E+02  0.00000000000E+00 0. -1.
         11    1    4    4    0    0  0.22862636978E+02  0.31430454432E+01  0.79273560923E+01  0.24401267981E+02  0.51100000000E-03 0. -1.
        -11    1    4    4    0    0 -0.10075840352E+02  0.10836650430E+02  0.14777337689E+02  0.20912323180E+02  0.51100000000E-03 0.  1.
        -12    1    4    4    0    0  0.83030273934E+01  0.11145897698E+01  0.34326658740E+01  0.90534948640E+01  0.00000000000E+00 0.  1.
</event>
<event>
 8    1  0.1212194E-006  0.9118800E+02  0.7816164E-02  0.1184000E+00
        -11   -1    0    0    0    0  0.00000000000E+00  0.00000000000E+00  0.45593999997E+02  0.45594000000E+02  0.51100000000E-03 0.  1.
         11   -1    0    0    0    0 -0.00000000000E+00 -0.00000000000E+00 -0.45593999997E+02  0.45594000000E+02  0.51100000000E-03 0. -1.
         23    2    1    2    0    0  0.35527136788E-14 -0.35527136788E-14 -0.22204460493E-15  0.91188000000E+02  0.91188000000E+02 0.  0.
    9900012    2    3    3    0    0 -0.20050097259E+02  0.30833833062E+02 -0.17456289584E+01  0.54367097215E+02  0.40000029722E+02 0.  0.
         12    1    3    3    0    0  0.20050097259E+02 -0.30833833062E+02  0.17456289584E+01  0.36820902785E+02  0.00000000000E+00 0. -1.
         11    1    4    4    0    0 -0.32089606239E+01 -0.54451181192E+00 -0.45481163011E+00  0.32864532979E+01  0.51100000000E-03 0. -1.
        -11    1    4    4    0    0 -0.13041696612E+02  0.37740684051E+02 -0.84078060759E+01  0.40806081488E+02  0.51100000000E-03 0.  1.
         12    1    4    4    0    0 -0.37994400231E+01 -0.63623391765E+01  0.71169887476E+01  0.10274562430E+02  0.00000000000E+00 0. -1.
</event>
<event>
 8    1  0.1212194E-006  0.9118800E+02  0.7816164E-02  0.1184000E+00
        -11   -1    0    0    0    0  0.00000000000E+00  0.00000000000E+00  0.45593999997E+02  0.45594000000E+02  0.51100000000E-03 0. -1.
         11   -1    0    0    0    0 -0.00000000000E+00 -0.00000000000E+00 -0.45593999997E+02  0.45594000000E+02  0.51100000000E-03 0.  1.
         23    2    1    2    0    0 -0.35527136788E-14  0.35527136788E-14  0.35527136788E-14  0.91188000000E+02  0.91188000000E+02 0.  0.
    9900012    2    3    3    0    0  0.24870843922E+02  0.19416392734E+02  0.18979598325E+02  0.54367077459E+02  0.39999984684E+02 0.  0.
        -12    1    3    3    0    0 -0.24870843922E+02 -0.19416392734E+02 -0.18979598325E+02  0.36820922541E+02  0.00000000000E+00 0.  1.
         11    1    4    4    0    0 -0.35497252910E+01  0.60210858278E+01 -0.14853764430E+01  0.71456537578E+01  0.51100000000E-03 0.  1.
        -11    1    4    4    0    0  0.29537942660E+02  0.16381213446E+02  0.84866749101E+01  0.34826108911E+02  0.51100000000E-03 0. -1.
        -12    1    4    4    0    0 -0.11173734475E+01 -0.29859065400E+01  0.11978299858E+02  0.12395314791E+02  0.00000000000E+00 0.  1.
</event>
<event>
 8    1  0.1212194E-006  0.9118800E+02  0.7816164E-02  0.1184000E+00
        -11   -1    0    0    0    0  0.00000000000E+00  0.00000000000E+00  0.45593999997E+02  0.45594000000E+02  0.51100000000E-03 0. -1.
         11   -1    0    0    0    0 -0.00000000000E+00 -0.00000000000E+00 -0.45593999997E+02  0.45594000000E+02  0.51100000000E-03 0.  1.
         23    2    1    2    0    0  0.00000000000E+00  0.31086244690E-14  0.00000000000E+00  0.91188000000E+02  0.91188000000E+02 0.  0.
    9900012    2    3    3    0    0  0.33527021239E+02 -0.38784755106E+01  0.14719867573E+02  0.54367106111E+02  0.40000050001E+02 0.  0.
        -12    1    3    3    0    0 -0.33527021239E+02  0.38784755106E+01 -0.14719867573E+02  0.36820893889E+02  0.00000000000E+00 0.  1.
         11    1    4    4    0    0  0.14845953893E+02  0.11593496458E+02  0.10421816840E+02  0.21527326207E+02  0.51100000000E-03 0. -1.
        -11    1    4    4    0    0  0.21087390897E+02 -0.15856058366E+02  0.87230410283E+01  0.27788200496E+02  0.51100000000E-03 0.  1.
        -12    1    4    4    0    0 -0.24063235517E+01  0.38408639742E+00 -0.44249902955E+01  0.50515794076E+01  0.00000000000E+00 0.  1.
</event>
<event>
 8    1  0.1212194E-006  0.9118800E+02  0.7816164E-02  0.1184000E+00
        -11   -1    0    0    0    0  0.00000000000E+00  0.00000000000E+00  0.45593999997E+02  0.45594000000E+02  0.51100000000E-03 0.  1.
         11   -1    0    0    0    0 -0.00000000000E+00 -0.00000000000E+00 -0.45593999997E+02  0.45594000000E+02  0.51100000000E-03 0. -1.
         23    2    1    2    0    0  0.00000000000E+00 -0.17763568394E-14  0.00000000000E+00  0.91188000000E+02  0.91188000000E+02 0.  0.
    9900012    2    3    3    0    0 -0.33193296542E+02 -0.14436518640E+02  0.67507560248E+01  0.54367072354E+02  0.39999973046E+02 0.  0.
         12    1    3    3    0    0  0.33193296542E+02  0.14436518640E+02 -0.67507560248E+01  0.36820927646E+02  0.00000000000E+00 0. -1.
         11    1    4    4    0    0 -0.65332800566E+01 -0.15408814880E+01  0.95757830741E+00  0.67804882224E+01  0.51100000000E-03 0. -1.
        -11    1    4    4    0    0 -0.28109875329E+02 -0.22752431403E+02  0.87243001357E+01  0.37201500492E+02  0.51100000000E-03 0.  1.
         12    1    4    4    0    0  0.14498588432E+01  0.98567942513E+01 -0.29311224183E+01  0.10385083640E+02  0.00000000000E+00 0. -1.
</event>
<event>
 8    1  0.1212194E-006  0.9118800E+02  0.7816164E-02  0.1184000E+00
        -11   -1    0    0    0    0  0.00000000000E+00  0.00000000000E+00  0.45593999997E+02  0.45594000000E+02  0.51100000000E-03 0. -1.
         11   -1    0    0    0    0 -0.00000000000E+00 -0.00000000000E+00 -0.45593999997E+02  0.45594000000E+02  0.51100000000E-03 0.  1.
         23    2    1    2    0    0  0.00000000000E+00  0.88817841970E-15  0.00000000000E+00  0.91188000000E+02  0.91188000000E+02 0.  0.
    9900012    2    3    3    0    0 -0.31461098163E+02  0.67431372002E+01  0.17902779663E+02  0.54367080449E+02  0.39999991500E+02 0.  0.
        -12    1    3    3    0    0  0.31461098163E+02 -0.67431372002E+01 -0.17902779663E+02  0.36820919551E+02  0.00000000000E+00 0.  1.
         11    1    4    4    0    0  0.99483883952E+00  0.10896683659E+02 -0.24611003136E+01  0.11215365981E+02  0.51100000000E-03 0. -1.
        -11    1    4    4    0    0 -0.85213181104E+00  0.49985659636E+01  0.18458566453E+01  0.53962002679E+01  0.51100000000E-03 0.  1.
         12    1    4    4    0    0 -0.31603805192E+02 -0.91521124225E+01  0.18518023331E+02  0.37755514200E+02  0.00000000000E+00 0. -1.
</event>
<event>
 8    1  0.1212194E-006  0.9118800E+02  0.7816164E-02  0.1184000E+00
        -11   -1    0    0    0    0  0.00000000000E+00  0.00000000000E+00  0.45593999997E+02  0.45594000000E+02  0.51100000000E-03 0.  1.
         11   -1    0    0    0    0 -0.00000000000E+00 -0.00000000000E+00 -0.45593999997E+02  0.45594000000E+02  0.51100000000E-03 0. -1.
         23    2    1    2    0    0 -0.35527136788E-14  0.00000000000E+00  0.00000000000E+00  0.91188000000E+02  0.91188000000E+02 0.  0.
    9900012    2    3    3    0    0  0.31894597764E+02 -0.96859975625E+01 -0.15642744547E+02  0.54367090557E+02  0.40000014542E+02 0.  0.
        -12    1    3    3    0    0 -0.31894597764E+02  0.96859975625E+01  0.15642744547E+02  0.36820909443E+02  0.00000000000E+00 0.  1.
         11    1    4    4    0    0  0.15506999919E+02 -0.13639974229E+02 -0.15507604620E+02  0.25826376920E+02  0.51100000000E-03 0. -1.
        -11    1    4    4    0    0  0.14624344200E+01 -0.43669891669E+01  0.82940299859E+01  0.94868457606E+01  0.51100000000E-03 0.  1.
        -12    1    4    4    0    0  0.14925163425E+02  0.83209658338E+01 -0.84291699121E+01  0.19053867877E+02  0.00000000000E+00 0.  1.
</event>
<event>
 8    1  0.1212194E-006  0.9118800E+02  0.7816164E-02  0.1184000E+00
        -11   -1    0    0    0    0  0.00000000000E+00  0.00000000000E+00  0.45593999997E+02  0.45594000000E+02  0.51100000000E-03 0.  1.
         11   -1    0    0    0    0 -0.00000000000E+00 -0.00000000000E+00 -0.45593999997E+02  0.45594000000E+02  0.51100000000E-03 0. -1.
         23    2    1    2    0    0  0.00000000000E+00 -0.35527136788E-14  0.71054273576E-14  0.91188000000E+02  0.91188000000E+02 0.  0.
    9900012    2    3    3    0    0  0.88399782176E+01 -0.99265199863E+01  0.34338016838E+02  0.54367076406E+02  0.39999982283E+02 0.  0.
         12    1    3    3    0    0 -0.88399782176E+01  0.99265199863E+01 -0.34338016838E+02  0.36820923594E+02  0.00000000000E+00 0. -1.
         11    1    4    4    0    0  0.42381949384E+01  0.36393537984E+01  0.31336802649E+01  0.64052435293E+01  0.51100000000E-03 0. -1.
        -11    1    4    4    0    0  0.13615081026E+02 -0.39458244769E+01  0.31746942830E+02  0.34767921156E+02  0.51100000000E-03 0.  1.
         12    1    4    4    0    0 -0.90132977466E+01 -0.96200493078E+01 -0.54260625700E+00  0.13193911721E+02  0.00000000000E+00 0. -1.
</event>
<event>
 8    1  0.1212194E-006  0.9118800E+02  0.7816164E-02  0.1184000E+00
        -11   -1    0    0    0    0  0.00000000000E+00  0.00000000000E+00  0.45593999997E+02  0.45594000000E+02  0.51100000000E-03 0.  1.
         11   -1    0    0    0    0 -0.00000000000E+00 -0.00000000000E+00 -0.45593999997E+02  0.45594000000E+02  0.51100000000E-03 0. -1.
         23    2    1    2    0    0 -0.71054273576E-14 -0.17763568394E-14  0.00000000000E+00  0.91188000000E+02  0.91188000000E+02 0.  0.
    9900012    2    3    3    0    0  0.22384338518E+02 -0.13094451150E+02  0.26139192811E+02  0.54367073034E+02  0.39999974596E+02 0.  0.
         12    1    3    3    0    0 -0.22384338518E+02  0.13094451150E+02 -0.26139192811E+02  0.36820926966E+02  0.00000000000E+00 0. -1.
         11    1    4    4    0    0  0.73684093506E+01  0.77809126356E+00 -0.27730036908E+01  0.79112851107E+01  0.51100000000E-03 0.  1.
        -11    1    4    4    0    0 -0.25677611948E+01 -0.12167700772E+02 -0.16020158310E+00  0.12436720003E+02  0.51100000000E-03 0. -1.
        -12    1    4    4    0    0  0.17583690363E+02 -0.17048416415E+01  0.29072398084E+02  0.34019067920E+02  0.00000000000E+00 0.  1.
</event>
<event>
 8    1  0.1212194E-006  0.9118800E+02  0.7816164E-02  0.1184000E+00
        -11   -1    0    0    0    0  0.00000000000E+00  0.00000000000E+00  0.45593999997E+02  0.45594000000E+02  0.51100000000E-03 0.  1.
         11   -1    0    0    0    0 -0.00000000000E+00 -0.00000000000E+00 -0.45593999997E+02  0.45594000000E+02  0.51100000000E-03 0. -1.
         23    2    1    2    0    0  0.71054273576E-14  0.00000000000E+00  0.00000000000E+00  0.91188000000E+02  0.91188000000E+02 0.  0.
    9900012    2    3    3    0    0 -0.32186427974E+02 -0.11833715232E+02 -0.13408084092E+02  0.54367086365E+02  0.40000004986E+02 0.  0.
        -12    1    3    3    0    0  0.32186427974E+02  0.11833715232E+02  0.13408084092E+02  0.36820913635E+02  0.00000000000E+00 0.  1.
         11    1    4    4    0    0 -0.12481460639E+02 -0.10422985533E+01 -0.54469846069E+01  0.13658070418E+02  0.51100000000E-03 0. -1.
        -11    1    4    4    0    0 -0.69639835145E+00  0.87560667734E+01  0.54357891925E+01  0.10329640865E+02  0.51100000000E-03 0.  1.
        -12    1    4    4    0    0 -0.19008568983E+02 -0.19547483452E+02 -0.13396888677E+02  0.30379375081E+02  0.00000000000E+00 0.  1.
</event>
<event>
 8    1  0.1212194E-006  0.9118800E+02  0.7816164E-02  0.1184000E+00
        -11   -1    0    0    0    0  0.00000000000E+00  0.00000000000E+00  0.45593999997E+02  0.45594000000E+02  0.51100000000E-03 0. -1.
         11   -1    0    0    0    0 -0.00000000000E+00 -0.00000000000E+00 -0.45593999997E+02  0.45594000000E+02  0.51100000000E-03 0.  1.
         23    2    1    2    0    0  0.11102230246E-15  0.00000000000E+00  0.00000000000E+00  0.91188000000E+02  0.91188000000E+02 0.  0.
    9900012    2    3    3    0    0  0.85697920780E+00  0.10949222026E+02  0.35144854616E+02  0.54367072767E+02  0.39999973986E+02 0.  0.
        -12    1    3    3    0    0 -0.85697920780E+00 -0.10949222026E+02 -0.35144854616E+02  0.36820927233E+02  0.00000000000E+00 0.  1.
         11    1    4    4    0    0 -0.16846399478E+01  0.15464773870E+02  0.39406126982E+02  0.42365553066E+02  0.51100000000E-03 0. -1.
        -11    1    4    4    0    0 -0.54486443205E+00  0.14810846704E+01 -0.49752116148E+01  0.52195038005E+01  0.51100000000E-03 0.  1.
         12    1    4    4    0    0  0.30864835876E+01 -0.59966365140E+01  0.71393924876E+00  0.67820159001E+01  0.00000000000E+00 0. -1.
</event>
<event>
 8    1  0.1212194E-006  0.9118800E+02  0.7816164E-02  0.1184000E+00
        -11   -1    0    0    0    0  0.00000000000E+00  0.00000000000E+00  0.45593999997E+02  0.45594000000E+02  0.51100000000E-03 0.  1.
         11   -1    0    0    0    0 -0.00000000000E+00 -0.00000000000E+00 -0.45593999997E+02  0.45594000000E+02  0.51100000000E-03 0. -1.
         23    2    1    2    0    0  0.35527136788E-14  0.17763568394E-14  0.00000000000E+00  0.91188000000E+02  0.91188000000E+02 0.  0.
    9900012    2    3    3    0    0 -0.27342365943E+02 -0.14547927428E+02  0.19913097100E+02  0.54367100990E+02  0.40000038327E+02 0.  0.
        -12    1    3    3    0    0  0.27342365943E+02  0.14547927428E+02 -0.19913097100E+02  0.36820899010E+02  0.00000000000E+00 0.  1.
         11    1    4    4    0    0  0.18249463443E+01  0.14770315865E+01 -0.21290573651E+01  0.31693748582E+01  0.51100000000E-03 0. -1.
        -11    1    4    4    0    0 -0.13251876301E+02  0.85831957224E+01  0.13219346846E+02  0.20592100563E+02  0.51100000000E-03 0.  1.
         12    1    4    4    0    0 -0.15915435986E+02 -0.24608154737E+02  0.88228076183E+01  0.30605625568E+02  0.00000000000E+00 0. -1.
</event>
<event>
 8    1  0.1212194E-006  0.9118800E+02  0.7816164E-02  0.1184000E+00
        -11   -1    0    0    0    0  0.00000000000E+00  0.00000000000E+00  0.45593999997E+02  0.45594000000E+02  0.51100000000E-03 0. -1.
         11   -1    0    0    0    0 -0.00000000000E+00 -0.00000000000E+00 -0.45593999997E+02  0.45594000000E+02  0.51100000000E-03 0.  1.
         23    2    1    2    0    0  0.22204460493E-15  0.17763568394E-14  0.00000000000E+00  0.91188000000E+02  0.91188000000E+02 0.  0.
    9900012    2    3    3    0    0 -0.13407558162E+01  0.85438429384E+01  0.35790861714E+02  0.54367073062E+02  0.39999974659E+02 0.  0.
        -12    1    3    3    0    0  0.13407558162E+01 -0.85438429384E+01 -0.35790861714E+02  0.36820926938E+02  0.00000000000E+00 0.  1.
         11    1    4    4    0    0  0.27170105783E+01 -0.37168963134E+01  0.11971072791E+02  0.12825913173E+02  0.51100000000E-03 0. -1.
        -11    1    4    4    0    0  0.38913279426E+01  0.26940768694E+01 -0.69180344966E+01  0.83821050395E+01  0.51100000000E-03 0.  1.
         12    1    4    4    0    0 -0.79490943371E+01  0.95666623823E+01  0.30737823420E+02  0.33159054849E+02  0.00000000000E+00 0. -1.
</event>
<event>
 8    1  0.1212194E-006  0.9118800E+02  0.7816164E-02  0.1184000E+00
        -11   -1    0    0    0    0  0.00000000000E+00  0.00000000000E+00  0.45593999997E+02  0.45594000000E+02  0.51100000000E-03 0.  1.
         11   -1    0    0    0    0 -0.00000000000E+00 -0.00000000000E+00 -0.45593999997E+02  0.45594000000E+02  0.51100000000E-03 0. -1.
         23    2    1    2    0    0  0.00000000000E+00 -0.88817841970E-15 -0.17763568394E-14  0.91188000000E+02  0.91188000000E+02 0.  0.
    9900012    2    3    3    0    0 -0.33941938897E+02 -0.52219229219E+01 -0.13283692485E+02  0.54367079573E+02  0.39999989502E+02 0.  0.
        -12    1    3    3    0    0  0.33941938897E+02  0.52219229219E+01  0.13283692485E+02  0.36820920427E+02  0.00000000000E+00 0.  1.
         11    1    4    4    0    0 -0.21888135076E+02 -0.11531815338E+01 -0.15862519944E+02  0.27056234475E+02  0.51100000000E-03 0. -1.
        -11    1    4    4    0    0  0.58050097459E+01  0.44276290797E+01  0.17958819889E+01  0.75184592701E+01  0.51100000000E-03 0.  1.
         12    1    4    4    0    0 -0.17858813567E+02 -0.84963704678E+01  0.78294546941E+00  0.19792385828E+02  0.00000000000E+00 0. -1.
</event>
<event>
 8    1  0.1212194E-006  0.9118800E+02  0.7816164E-02  0.1184000E+00
        -11   -1    0    0    0    0  0.00000000000E+00  0.00000000000E+00  0.45593999997E+02  0.45594000000E+02  0.51100000000E-03 0. -1.
         11   -1    0    0    0    0 -0.00000000000E+00 -0.00000000000E+00 -0.45593999997E+02  0.45594000000E+02  0.51100000000E-03 0.  1.
         23    2    1    2    0    0  0.00000000000E+00  0.00000000000E+00 -0.35527136788E-14  0.91188000000E+02  0.91188000000E+02 0.  0.
    9900012    2    3    3    0    0  0.12033984071E+02 -0.22823864828E+02 -0.26268486227E+02  0.54367096331E+02  0.40000027707E+02 0.  0.
         12    1    3    3    0    0 -0.12033984071E+02  0.22823864828E+02  0.26268486227E+02  0.36820903669E+02  0.00000000000E+00 0. -1.
         11    1    4    4    0    0 -0.75220968503E+01 -0.15099458940E+02 -0.67742941151E+01  0.18178742045E+02  0.51100000000E-03 0. -1.
        -11    1    4    4    0    0  0.68293157470E+01  0.71522107439E+01 -0.23483977056E+01  0.10164085996E+02  0.51100000000E-03 0.  1.
        -12    1    4    4    0    0  0.12726765174E+02 -0.14876616632E+02 -0.17145794406E+02  0.26024268290E+02  0.00000000000E+00 0.  1.
</event>
<event>
 8    1  0.1212194E-006  0.9118800E+02  0.7816164E-02  0.1184000E+00
        -11   -1    0    0    0    0  0.00000000000E+00  0.00000000000E+00  0.45593999997E+02  0.45594000000E+02  0.51100000000E-03 0.  1.
         11   -1    0    0    0    0 -0.00000000000E+00 -0.00000000000E+00 -0.45593999997E+02  0.45594000000E+02  0.51100000000E-03 0. -1.
         23    2    1    2    0    0  0.00000000000E+00  0.00000000000E+00  0.00000000000E+00  0.91188000000E+02  0.91188000000E+02 0.  0.
    9900012    2    3    3    0    0 -0.12716131671E+02  0.20190087029E+02 -0.28043538647E+02  0.54367086394E+02  0.40000005053E+02 0.  0.
        -12    1    3    3    0    0  0.12716131671E+02 -0.20190087029E+02  0.28043538647E+02  0.36820913606E+02  0.00000000000E+00 0.  1.
         11    1    4    4    0    0 -0.94347351360E+01 -0.83017147538E+00 -0.18981473817E+02  0.21213197786E+02  0.51100000000E-03 0. -1.
        -11    1    4    4    0    0 -0.48749642955E+01  0.53847449018E+01 -0.14748603639E+02  0.16440257422E+02  0.51100000000E-03 0.  1.
        -12    1    4    4    0    0  0.15935677609E+01  0.15635513603E+02  0.56865388090E+01  0.16713631187E+02  0.00000000000E+00 0.  1.
</event>
<event>
 8    1  0.1212194E-006  0.9118800E+02  0.7816164E-02  0.1184000E+00
        -11   -1    0    0    0    0  0.00000000000E+00  0.00000000000E+00  0.45593999997E+02  0.45594000000E+02  0.51100000000E-03 0.  1.
         11   -1    0    0    0    0 -0.00000000000E+00 -0.00000000000E+00 -0.45593999997E+02  0.45594000000E+02  0.51100000000E-03 0. -1.
         23    2    1    2    0    0  0.00000000000E+00  0.35527136788E-14  0.00000000000E+00  0.91188000000E+02  0.91188000000E+02 0.  0.
    9900012    2    3    3    0    0  0.17479573875E+02  0.21237599279E+02  0.24478726371E+02  0.54367093293E+02  0.40000020781E+02 0.  0.
         12    1    3    3    0    0 -0.17479573875E+02 -0.21237599279E+02 -0.24478726371E+02  0.36820906707E+02  0.00000000000E+00 0. -1.
         11    1    4    4    0    0  0.73239960338E+01 -0.97150431102E+01  0.50831416598E+01  0.13185647877E+02  0.51100000000E-03 0. -1.
        -11    1    4    4    0    0 -0.29793528172E+01  0.21848259041E+01  0.55303016848E+01  0.66508829810E+01  0.51100000000E-03 0.  1.
        -12    1    4    4    0    0  0.13134930658E+02  0.28767816485E+02  0.13865283026E+02  0.34530562435E+02  0.00000000000E+00 0.  1.
</event>
<event>
 8    1  0.1212194E-006  0.9118800E+02  0.7816164E-02  0.1184000E+00
        -11   -1    0    0    0    0  0.00000000000E+00  0.00000000000E+00  0.45593999997E+02  0.45594000000E+02  0.51100000000E-03 0.  1.
         11   -1    0    0    0    0 -0.00000000000E+00 -0.00000000000E+00 -0.45593999997E+02  0.45594000000E+02  0.51100000000E-03 0. -1.
         23    2    1    2    0    0  0.00000000000E+00 -0.44408920985E-15  0.00000000000E+00  0.91188000000E+02  0.91188000000E+02 0.  0.
    9900012    2    3    3    0    0 -0.17856474050E+02  0.34972792060E+01  0.32010827477E+02  0.54367113222E+02  0.40000066213E+02 0.  0.
         12    1    3    3    0    0  0.17856474050E+02 -0.34972792060E+01 -0.32010827477E+02  0.36820886778E+02  0.00000000000E+00 0. -1.
         11    1    4    4    0    0 -0.24852738109E+01  0.12071773554E+02  0.10901889443E+02  0.16454649688E+02  0.51100000000E-03 0. -1.
        -11    1    4    4    0    0 -0.18880213170E+02 -0.50269209195E+00  0.22081930943E+02  0.29057302406E+02  0.51100000000E-03 0.  1.
        -12    1    4    4    0    0  0.35090129310E+01 -0.80718022565E+01 -0.97299290846E+00  0.88551611288E+01  0.00000000000E+00 0.  1.
</event>
<event>
 8    1  0.1212194E-006  0.9118800E+02  0.7816164E-02  0.1184000E+00
        -11   -1    0    0    0    0  0.00000000000E+00  0.00000000000E+00  0.45593999997E+02  0.45594000000E+02  0.51100000000E-03 0. -1.
         11   -1    0    0    0    0 -0.00000000000E+00 -0.00000000000E+00 -0.45593999997E+02  0.45594000000E+02  0.51100000000E-03 0.  1.
         23    2    1    2    0    0 -0.17763568394E-14  0.35527136788E-14  0.35527136788E-14  0.91188000000E+02  0.91188000000E+02 0.  0.
    9900012    2    3    3    0    0  0.15041656353E+02 -0.19983016921E+02 -0.27022344302E+02  0.54367089057E+02  0.40000011123E+02 0.  0.
         12    1    3    3    0    0 -0.15041656353E+02  0.19983016921E+02  0.27022344302E+02  0.36820910943E+02  0.00000000000E+00 0. -1.
         11    1    4    4    0    0  0.16478759753E+02 -0.76034672748E+01 -0.25300781609E+02  0.31136663082E+02  0.51100000000E-03 0. -1.
        -11    1    4    4    0    0 -0.20866808784E+00 -0.92114857381E+01 -0.10409571835E+02  0.13901589762E+02  0.51100000000E-03 0.  1.
         12    1    4    4    0    0 -0.12284353125E+01 -0.31680639084E+01  0.86880091413E+01  0.93288362127E+01  0.00000000000E+00 0. -1.
</event>
<event>
 8    1  0.1212194E-006  0.9118800E+02  0.7816164E-02  0.1184000E+00
        -11   -1    0    0    0    0  0.00000000000E+00  0.00000000000E+00  0.45593999997E+02  0.45594000000E+02  0.51100000000E-03 0.  1.
         11   -1    0    0    0    0 -0.00000000000E+00 -0.00000000000E+00 -0.45593999997E+02  0.45594000000E+02  0.51100000000E-03 0. -1.
         23    2    1    2    0    0 -0.35527136788E-14 -0.35527136788E-14  0.00000000000E+00  0.91188000000E+02  0.91188000000E+02 0.  0.
    9900012    2    3    3    0    0  0.20342229326E+02  0.26100539032E+02  0.16147287381E+02  0.54367091246E+02  0.40000016114E+02 0.  0.
         12    1    3    3    0    0 -0.20342229326E+02 -0.26100539032E+02 -0.16147287381E+02  0.36820908754E+02  0.00000000000E+00 0. -1.
         11    1    4    4    0    0  0.11798529133E+02  0.23977933470E+00  0.15383799125E+02  0.19388761167E+02  0.51100000000E-03 0. -1.
        -11    1    4    4    0    0 -0.14247619346E+01  0.93120787334E+01  0.98494396471E+01  0.13629241304E+02  0.51100000000E-03 0.  1.
         12    1    4    4    0    0  0.99684621277E+01  0.16548680964E+02 -0.90859513908E+01  0.21349088775E+02  0.00000000000E+00 0. -1.
</event>
<event>
 8    1  0.1212194E-006  0.9118800E+02  0.7816164E-02  0.1184000E+00
        -11   -1    0    0    0    0  0.00000000000E+00  0.00000000000E+00  0.45593999997E+02  0.45594000000E+02  0.51100000000E-03 0. -1.
         11   -1    0    0    0    0 -0.00000000000E+00 -0.00000000000E+00 -0.45593999997E+02  0.45594000000E+02  0.51100000000E-03 0.  1.
         23    2    1    2    0    0  0.35527136788E-14  0.00000000000E+00 -0.35527136788E-14  0.91188000000E+02  0.91188000000E+02 0.  0.
    9900012    2    3    3    0    0  0.25583180902E+02 -0.51528181045E+01  0.25975543575E+02  0.54367088231E+02  0.40000009240E+02 0.  0.
        -12    1    3    3    0    0 -0.25583180902E+02  0.51528181045E+01 -0.25975543575E+02  0.36820911769E+02  0.00000000000E+00 0.  1.
         11    1    4    4    0    0  0.67859821505E+01 -0.24555792271E+01  0.65899342897E+01  0.97727507536E+01  0.51100000000E-03 0. -1.
        -11    1    4    4    0    0  0.28848742948E+02  0.12748448725E+01  0.17057443484E+02  0.33538508876E+02  0.51100000000E-03 0.  1.
        -12    1    4    4    0    0 -0.10051544197E+02 -0.39720837498E+01  0.23281658017E+01  0.11055828602E+02  0.00000000000E+00 0.  1.
</event>
<event>
 8    1  0.1212194E-006  0.9118800E+02  0.7816164E-02  0.1184000E+00
        -11   -1    0    0    0    0  0.00000000000E+00  0.00000000000E+00  0.45593999997E+02  0.45594000000E+02  0.51100000000E-03 0. -1.
         11   -1    0    0    0    0 -0.00000000000E+00 -0.00000000000E+00 -0.45593999997E+02  0.45594000000E+02  0.51100000000E-03 0.  1.
         23    2    1    2    0    0  0.00000000000E+00  0.00000000000E+00  0.00000000000E+00  0.91188000000E+02  0.91188000000E+02 0.  0.
    9900012    2    3    3    0    0  0.92098621325E+01 -0.21751186448E+02  0.28246118229E+02  0.54367097412E+02  0.40000030170E+02 0.  0.
        -12    1    3    3    0    0 -0.92098621325E+01  0.21751186448E+02 -0.28246118229E+02  0.36820902588E+02  0.00000000000E+00 0.  1.
         11    1    4    4    0    0  0.32346047310E+01 -0.16724902294E+02 -0.12760708548E+01  0.17082546110E+02  0.51100000000E-03 0. -1.
        -11    1    4    4    0    0  0.28467638644E+01 -0.59711730815E+01  0.32315358497E+02  0.32985472067E+02  0.51100000000E-03 0.  1.
        -12    1    4    4    0    0  0.31284935372E+01  0.94488892687E+00 -0.27931694134E+01  0.42990792349E+01  0.00000000000E+00 0.  1.
</event>
<event>
 8    1  0.1212194E-006  0.9118800E+02  0.7816164E-02  0.1184000E+00
        -11   -1    0    0    0    0  0.00000000000E+00  0.00000000000E+00  0.45593999997E+02  0.45594000000E+02  0.51100000000E-03 0. -1.
         11   -1    0    0    0    0 -0.00000000000E+00 -0.00000000000E+00 -0.45593999997E+02  0.45594000000E+02  0.51100000000E-03 0.  1.
         23    2    1    2    0    0  0.00000000000E+00  0.71054273576E-14  0.00000000000E+00  0.91188000000E+02  0.91188000000E+02 0.  0.
    9900012    2    3    3    0    0  0.55178263639E+01  0.34972386183E+02 -0.10112632829E+02  0.54367088199E+02  0.40000009167E+02 0.  0.
         12    1    3    3    0    0 -0.55178263639E+01 -0.34972386183E+02  0.10112632829E+02  0.36820911801E+02  0.00000000000E+00 0. -1.
         11    1    4    4    0    0  0.51856348953E+01  0.89473787177E+01  0.83241940594E+01  0.13275488774E+02  0.51100000000E-03 0. -1.
        -11    1    4    4    0    0 -0.10480506518E+02  0.23207764319E+02 -0.14085382793E+02  0.29100504296E+02  0.51100000000E-03 0.  1.
         12    1    4    4    0    0  0.10812697986E+02  0.28172431465E+01 -0.43514440947E+01  0.11991095129E+02  0.00000000000E+00 0. -1.
</event>
<event>
 8    1  0.1212194E-006  0.9118800E+02  0.7816164E-02  0.1184000E+00
        -11   -1    0    0    0    0  0.00000000000E+00  0.00000000000E+00  0.45593999997E+02  0.45594000000E+02  0.51100000000E-03 0.  1.
         11   -1    0    0    0    0 -0.00000000000E+00 -0.00000000000E+00 -0.45593999997E+02  0.45594000000E+02  0.51100000000E-03 0. -1.
         23    2    1    2    0    0  0.00000000000E+00  0.35527136788E-14  0.17763568394E-14  0.91188000000E+02  0.91188000000E+02 0.  0.
    9900012    2    3    3    0    0 -0.17252087506E+02  0.30615747591E+02 -0.10991861812E+02  0.54367088144E+02  0.40000009041E+02 0.  0.
        -12    1    3    3    0    0  0.17252087506E+02 -0.30615747591E+02  0.10991861812E+02  0.36820911856E+02  0.00000000000E+00 0.  1.
         11    1    4    4    0    0 -0.18085277266E+00  0.35297339807E+01 -0.19186254573E+02  0.19509077234E+02  0.51100000000E-03 0. -1.
        -11    1    4    4    0    0 -0.81191791825E+00  0.10886199845E+02  0.21977745869E+01  0.11135473549E+02  0.51100000000E-03 0.  1.
         12    1    4    4    0    0 -0.16259316815E+02  0.16199813765E+02  0.59966181743E+01  0.23722537361E+02  0.00000000000E+00 0. -1.
</event>
<event>
 8    1  0.1212194E-006  0.9118800E+02  0.7816164E-02  0.1184000E+00
        -11   -1    0    0    0    0  0.00000000000E+00  0.00000000000E+00  0.45593999997E+02  0.45594000000E+02  0.51100000000E-03 0. -1.
         11   -1    0    0    0    0 -0.00000000000E+00 -0.00000000000E+00 -0.45593999997E+02  0.45594000000E+02  0.51100000000E-03 0.  1.
         23    2    1    2    0    0  0.88817841970E-15  0.00000000000E+00  0.00000000000E+00  0.91188000000E+02  0.91188000000E+02 0.  0.
    9900012    2    3    3    0    0 -0.48789451561E+01  0.98214999970E+01  0.35149885159E+02  0.54367076672E+02  0.39999982889E+02 0.  0.
        -12    1    3    3    0    0  0.48789451561E+01 -0.98214999970E+01 -0.35149885159E+02  0.36820923328E+02  0.00000000000E+00 0.  1.
         11    1    4    4    0    0  0.33185540190E+01  0.13996704730E+02  0.39038749516E+02  0.41604621235E+02  0.51100000000E-03 0. -1.
        -11    1    4    4    0    0 -0.56398686311E+01  0.15804443023E+01 -0.18966012697E+01  0.61565427803E+01  0.51100000000E-03 0.  1.
         12    1    4    4    0    0 -0.25576305440E+01 -0.57556490352E+01 -0.19922630870E+01  0.66059126564E+01  0.00000000000E+00 0. -1.
</event>
<event>
 8    1  0.1212194E-006  0.9118800E+02  0.7816164E-02  0.1184000E+00
        -11   -1    0    0    0    0  0.00000000000E+00  0.00000000000E+00  0.45593999997E+02  0.45594000000E+02  0.51100000000E-03 0.  1.
         11   -1    0    0    0    0 -0.00000000000E+00 -0.00000000000E+00 -0.45593999997E+02  0.45594000000E+02  0.51100000000E-03 0. -1.
         23    2    1    2    0    0  0.00000000000E+00  0.00000000000E+00  0.35527136788E-14  0.91188000000E+02  0.91188000000E+02 0.  0.
    9900012    2    3    3    0    0 -0.15489783586E+02 -0.15412400360E+02 -0.29636192676E+02  0.54367090224E+02  0.40000013783E+02 0.  0.
        -12    1    3    3    0    0  0.15489783586E+02  0.15412400360E+02  0.29636192676E+02  0.36820909776E+02  0.00000000000E+00 0.  1.
         11    1    4    4    0    0 -0.22835591551E+01  0.29712780083E+00 -0.32823304219E+01  0.40095661367E+01  0.51100000000E-03 0. -1.
        -11    1    4    4    0    0 -0.92830116236E+01 -0.30192761674E+00  0.81563833848E+01  0.12360908351E+02  0.51100000000E-03 0.  1.
        -12    1    4    4    0    0 -0.39232128075E+01 -0.15407600544E+02 -0.34510245639E+02  0.37996615735E+02  0.00000000000E+00 0.  1.
</event>
<event>
 8    1  0.1212194E-006  0.9118800E+02  0.7816164E-02  0.1184000E+00
        -11   -1    0    0    0    0  0.00000000000E+00  0.00000000000E+00  0.45593999997E+02  0.45594000000E+02  0.51100000000E-03 0.  1.
         11   -1    0    0    0    0 -0.00000000000E+00 -0.00000000000E+00 -0.45593999997E+02  0.45594000000E+02  0.51100000000E-03 0. -1.
         23    2    1    2    0    0  0.00000000000E+00  0.00000000000E+00 -0.17763568394E-14  0.91188000000E+02  0.91188000000E+02 0.  0.
    9900012    2    3    3    0    0 -0.26021685780E+02  0.23397620998E+02 -0.11454245575E+02  0.54367129004E+02  0.40000102191E+02 0.  0.
         12    1    3    3    0    0  0.26021685780E+02 -0.23397620998E+02  0.11454245575E+02  0.36820870996E+02  0.00000000000E+00 0. -1.
         11    1    4    4    0    0 -0.14690325639E+02 -0.32712141395E+01 -0.10331553974E+02  0.18255068258E+02  0.51100000000E-03 0. -1.
        -11    1    4    4    0    0  0.44268483837E+01  0.75482584971E+00  0.31472882903E+01  0.54838100367E+01  0.51100000000E-03 0.  1.
        -12    1    4    4    0    0 -0.15758208525E+02  0.25914009287E+02 -0.42699798906E+01  0.30628250710E+02  0.00000000000E+00 0.  1.
</event>
<event>
 8    1  0.1212194E-006  0.9118800E+02  0.7816164E-02  0.1184000E+00
        -11   -1    0    0    0    0  0.00000000000E+00  0.00000000000E+00  0.45593999997E+02  0.45594000000E+02  0.51100000000E-03 0.  1.
         11   -1    0    0    0    0 -0.00000000000E+00 -0.00000000000E+00 -0.45593999997E+02  0.45594000000E+02  0.51100000000E-03 0. -1.
         23    2    1    2    0    0  0.35527136788E-14  0.00000000000E+00  0.00000000000E+00  0.91188000000E+02  0.91188000000E+02 0.  0.
    9900012    2    3    3    0    0  0.11977880867E+02 -0.33433660137E+02  0.97211427040E+01  0.54367083720E+02  0.39999998956E+02 0.  0.
        -12    1    3    3    0    0 -0.11977880867E+02  0.33433660137E+02 -0.97211427040E+01  0.36820916280E+02  0.00000000000E+00 0.  1.
         11    1    4    4    0    0  0.14271539920E+02 -0.18123473746E+02  0.70685586799E+01  0.24126783341E+02  0.51100000000E-03 0. -1.
        -11    1    4    4    0    0  0.30446072985E+01  0.23670913163E+01  0.97287008155E+01  0.10465198265E+02  0.51100000000E-03 0.  1.
        -12    1    4    4    0    0 -0.53382663511E+01 -0.17677277708E+02 -0.70761167914E+01  0.19775102114E+02  0.00000000000E+00 0.  1.
</event>
<event>
 8    1  0.1212194E-006  0.9118800E+02  0.7816164E-02  0.1184000E+00
        -11   -1    0    0    0    0  0.00000000000E+00  0.00000000000E+00  0.45593999997E+02  0.45594000000E+02  0.51100000000E-03 0. -1.
         11   -1    0    0    0    0 -0.00000000000E+00 -0.00000000000E+00 -0.45593999997E+02  0.45594000000E+02  0.51100000000E-03 0.  1.
         23    2    1    2    0    0  0.00000000000E+00 -0.35527136788E-14  0.71054273576E-14  0.91188000000E+02  0.91188000000E+02 0.  0.
    9900012    2    3    3    0    0  0.25202455594E+01  0.31762301094E+02 -0.18454897425E+02  0.54367100399E+02  0.40000036980E+02 0.  0.
         12    1    3    3    0    0 -0.25202455594E+01 -0.31762301094E+02  0.18454897425E+02  0.36820899601E+02  0.00000000000E+00 0. -1.
         11    1    4    4    0    0  0.25943051899E+01  0.40714849042E+01  0.96149512922E+01  0.10758935698E+02  0.51100000000E-03 0. -1.
        -11    1    4    4    0    0 -0.77926651613E+01  0.17767615173E+02 -0.10669998656E+02  0.22141875504E+02  0.51100000000E-03 0.  1.
         12    1    4    4    0    0  0.77186055308E+01  0.99232010166E+01 -0.17399850061E+02  0.21466289197E+02  0.00000000000E+00 0. -1.
</event>
<event>
 8    1  0.1212194E-006  0.9118800E+02  0.7816164E-02  0.1184000E+00
        -11   -1    0    0    0    0  0.00000000000E+00  0.00000000000E+00  0.45593999997E+02  0.45594000000E+02  0.51100000000E-03 0.  1.
         11   -1    0    0    0    0 -0.00000000000E+00 -0.00000000000E+00 -0.45593999997E+02  0.45594000000E+02  0.51100000000E-03 0. -1.
         23    2    1    2    0    0  0.00000000000E+00  0.00000000000E+00  0.00000000000E+00  0.91188000000E+02  0.91188000000E+02 0.  0.
    9900012    2    3    3    0    0 -0.35046688399E+02 -0.96478950521E+01 -0.58674491124E+01  0.54367092817E+02  0.40000019695E+02 0.  0.
         12    1    3    3    0    0  0.35046688399E+02  0.96478950521E+01  0.58674491124E+01  0.36820907183E+02  0.00000000000E+00 0. -1.
         11    1    4    4    0    0 -0.17848872898E+02  0.68185295194E+01  0.90109041840E+01  0.21125127290E+02  0.51100000000E-03 0. -1.
        -11    1    4    4    0    0 -0.71790447472E+00 -0.12597692878E+02 -0.81762743131E+01  0.15035581618E+02  0.51100000000E-03 0.  1.
        -12    1    4    4    0    0 -0.16479911026E+02 -0.38687316939E+01 -0.67020789833E+01  0.18206383909E+02  0.00000000000E+00 0.  1.
</event>
<event>
 8    1  0.1212194E-006  0.9118800E+02  0.7816164E-02  0.1184000E+00
        -11   -1    0    0    0    0  0.00000000000E+00  0.00000000000E+00  0.45593999997E+02  0.45594000000E+02  0.51100000000E-03 0. -1.
         11   -1    0    0    0    0 -0.00000000000E+00 -0.00000000000E+00 -0.45593999997E+02  0.45594000000E+02  0.51100000000E-03 0.  1.
         23    2    1    2    0    0  0.00000000000E+00 -0.35527136788E-14  0.00000000000E+00  0.91188000000E+02  0.91188000000E+02 0.  0.
    9900012    2    3    3    0    0 -0.16685698700E+02  0.25842030656E+02 -0.20237529416E+02  0.54367072711E+02  0.39999973860E+02 0.  0.
         12    1    3    3    0    0  0.16685698700E+02 -0.25842030656E+02  0.20237529416E+02  0.36820927289E+02  0.00000000000E+00 0. -1.
         11    1    4    4    0    0 -0.10555385709E+01  0.83154135032E+01  0.56986805527E+01  0.10135838579E+02  0.51100000000E-03 0. -1.
        -11    1    4    4    0    0 -0.43214753480E+01  0.39219816152E+01 -0.25890584147E+02  0.26540147639E+02  0.51100000000E-03 0.  1.
        -12    1    4    4    0    0 -0.11308684781E+02  0.13604635538E+02 -0.45625821952E-01  0.17691086493E+02  0.00000000000E+00 0.  1.
</event>
<event>
 8    1  0.1212194E-006  0.9118800E+02  0.7816164E-02  0.1184000E+00
        -11   -1    0    0    0    0  0.00000000000E+00  0.00000000000E+00  0.45593999997E+02  0.45594000000E+02  0.51100000000E-03 0.  1.
         11   -1    0    0    0    0 -0.00000000000E+00 -0.00000000000E+00 -0.45593999997E+02  0.45594000000E+02  0.51100000000E-03 0. -1.
         23    2    1    2    0    0  0.00000000000E+00  0.00000000000E+00 -0.17763568394E-14  0.91188000000E+02  0.91188000000E+02 0.  0.
    9900012    2    3    3    0    0  0.26856986835E+02  0.21595888457E+02  0.12965622120E+02  0.54366980228E+02  0.39999763025E+02 0.  0.
         12    1    3    3    0    0 -0.26856986835E+02 -0.21595888457E+02 -0.12965622120E+02  0.36821019772E+02  0.00000000000E+00 0. -1.
         11    1    4    4    0    0  0.13583280266E+02 -0.41536244469E+01  0.13024988493E+02  0.19271959536E+02  0.51100000000E-03 0.  1.
        -11    1    4    4    0    0  0.14162562868E+02  0.12979076278E+02  0.70366916347E+01  0.20458485708E+02  0.51100000000E-03 0. -1.
         12    1    4    4    0    0 -0.88885629965E+00  0.12770436625E+02 -0.70960580072E+01  0.14636534985E+02  0.00000000000E+00 0. -1.
</event>
<event>
 8    1  0.1212194E-006  0.9118800E+02  0.7816164E-02  0.1184000E+00
        -11   -1    0    0    0    0  0.00000000000E+00  0.00000000000E+00  0.45593999997E+02  0.45594000000E+02  0.51100000000E-03 0. -1.
         11   -1    0    0    0    0 -0.00000000000E+00 -0.00000000000E+00 -0.45593999997E+02  0.45594000000E+02  0.51100000000E-03 0.  1.
         23    2    1    2    0    0  0.00000000000E+00  0.88817841970E-15 -0.10658141036E-13  0.91188000000E+02  0.91188000000E+02 0.  0.
    9900012    2    3    3    0    0 -0.20101211251E+02 -0.61573530439E+01 -0.30229267569E+02  0.54367077849E+02  0.39999985573E+02 0.  0.
         12    1    3    3    0    0  0.20101211251E+02  0.61573530439E+01  0.30229267569E+02  0.36820922151E+02  0.00000000000E+00 0. -1.
         11    1    4    4    0    0 -0.43835767161E+01 -0.68656958547E+01  0.27325486018E-01  0.81458131171E+01  0.51100000000E-03 0. -1.
        -11    1    4    4    0    0 -0.88866598157E+00  0.35347337824E+01  0.59590623310E+01  0.69853055957E+01  0.51100000000E-03 0.  1.
        -12    1    4    4    0    0 -0.14828968553E+02 -0.28263909716E+01 -0.36215655386E+02  0.39235959136E+02  0.00000000000E+00 0.  1.
</event>
<event>
 8    1  0.1212194E-006  0.9118800E+02  0.7816164E-02  0.1184000E+00
        -11   -1    0    0    0    0  0.00000000000E+00  0.00000000000E+00  0.45593999997E+02  0.45594000000E+02  0.51100000000E-03 0. -1.
         11   -1    0    0    0    0 -0.00000000000E+00 -0.00000000000E+00 -0.45593999997E+02  0.45594000000E+02  0.51100000000E-03 0.  1.
         23    2    1    2    0    0 -0.17763568394E-14 -0.17763568394E-14  0.00000000000E+00  0.91188000000E+02  0.91188000000E+02 0.  0.
    9900012    2    3    3    0    0  0.12557677514E+02  0.14478386062E+02  0.31439808616E+02  0.54367075333E+02  0.39999979837E+02 0.  0.
        -12    1    3    3    0    0 -0.12557677514E+02 -0.14478386062E+02 -0.31439808616E+02  0.36820924667E+02  0.00000000000E+00 0.  1.
         11    1    4    4    0    0  0.13753545437E+02  0.11538748453E+02  0.20381195467E+02  0.27160557005E+02  0.51100000000E-03 0. -1.
        -11    1    4    4    0    0 -0.16719052940E+00  0.64222102354E+01 -0.65810855915E+01  0.91969247472E+01  0.51100000000E-03 0.  1.
        -12    1    4    4    0    0 -0.10286773938E+01 -0.34825726259E+01  0.17639698741E+02  0.18009593581E+02  0.00000000000E+00 0.  1.
</event>
<event>
 8    1  0.1212194E-006  0.9118800E+02  0.7816164E-02  0.1184000E+00
        -11   -1    0    0    0    0  0.00000000000E+00  0.00000000000E+00  0.45593999997E+02  0.45594000000E+02  0.51100000000E-03 0.  1.
         11   -1    0    0    0    0 -0.00000000000E+00 -0.00000000000E+00 -0.45593999997E+02  0.45594000000E+02  0.51100000000E-03 0. -1.
         23    2    1    2    0    0  0.88817841970E-15  0.00000000000E+00  0.00000000000E+00  0.91188000000E+02  0.91188000000E+02 0.  0.
    9900012    2    3    3    0    0 -0.48210513729E+01  0.32476085479E+02  0.16668568481E+02  0.54367084210E+02  0.40000000074E+02 0.  0.
         12    1    3    3    0    0  0.48210513729E+01 -0.32476085479E+02 -0.16668568481E+02  0.36820915790E+02  0.00000000000E+00 0. -1.
         11    1    4    4    0    0 -0.79360911745E+00  0.61535273325E+01 -0.27799057286E+01  0.67987932889E+01  0.51100000000E-03 0. -1.
        -11    1    4    4    0    0  0.65402749942E+01  0.30759607089E+02  0.17351530819E+02  0.35916629119E+02  0.51100000000E-03 0.  1.
         12    1    4    4    0    0 -0.10567717250E+02 -0.44370489419E+01  0.20969433905E+01  0.11651661803E+02  0.00000000000E+00 0. -1.
</event>
<event>
 8    1  0.1212194E-006  0.9118800E+02  0.7816164E-02  0.1184000E+00
        -11   -1    0    0    0    0  0.00000000000E+00  0.00000000000E+00  0.45593999997E+02  0.45594000000E+02  0.51100000000E-03 0. -1.
         11   -1    0    0    0    0 -0.00000000000E+00 -0.00000000000E+00 -0.45593999997E+02  0.45594000000E+02  0.51100000000E-03 0.  1.
         23    2    1    2    0    0  0.00000000000E+00  0.00000000000E+00 -0.88817841970E-15  0.91188000000E+02  0.91188000000E+02 0.  0.
    9900012    2    3    3    0    0  0.10402937912E+02 -0.34790707428E+02 -0.60963642660E+01  0.54367080704E+02  0.39999992080E+02 0.  0.
         12    1    3    3    0    0 -0.10402937912E+02  0.34790707428E+02  0.60963642660E+01  0.36820919296E+02  0.00000000000E+00 0. -1.
         11    1    4    4    0    0  0.66200301774E+01 -0.19055126318E+01  0.28666604098E+01  0.74614690314E+01  0.51100000000E-03 0. -1.
        -11    1    4    4    0    0  0.23460902415E+01  0.62592314391E+01  0.16030854629E+00  0.66863904104E+01  0.51100000000E-03 0.  1.
        -12    1    4    4    0    0  0.14368174932E+01 -0.39144426236E+02 -0.91233332221E+01  0.40219221262E+02  0.00000000000E+00 0.  1.
</event>
<event>
 8    1  0.1212194E-006  0.9118800E+02  0.7816164E-02  0.1184000E+00
        -11   -1    0    0    0    0  0.00000000000E+00  0.00000000000E+00  0.45593999997E+02  0.45594000000E+02  0.51100000000E-03 0. -1.
         11   -1    0    0    0    0 -0.00000000000E+00 -0.00000000000E+00 -0.45593999997E+02  0.45594000000E+02  0.51100000000E-03 0.  1.
         23    2    1    2    0    0  0.00000000000E+00  0.00000000000E+00 -0.35527136788E-14  0.91188000000E+02  0.91188000000E+02 0.  0.
    9900012    2    3    3    0    0 -0.26048045131E+02 -0.12490817681E+02  0.22831101222E+02  0.54367077083E+02  0.39999983826E+02 0.  0.
        -12    1    3    3    0    0  0.26048045131E+02  0.12490817681E+02 -0.22831101222E+02  0.36820922917E+02  0.00000000000E+00 0.  1.
         11    1    4    4    0    0 -0.22700871506E+02  0.77638892600E+01  0.35264649795E+01  0.24249608226E+02  0.51100000000E-03 0.  1.
        -11    1    4    4    0    0 -0.36170080214E+01 -0.15751366836E+02  0.19823242741E+02  0.25576341749E+02  0.51100000000E-03 0. -1.
        -12    1    4    4    0    0  0.26983439689E+00 -0.45033401058E+01 -0.51860649938E+00  0.45411271081E+01  0.00000000000E+00 0.  1.
</event>
<event>
 8    1  0.1212194E-006  0.9118800E+02  0.7816164E-02  0.1184000E+00
        -11   -1    0    0    0    0  0.00000000000E+00  0.00000000000E+00  0.45593999997E+02  0.45594000000E+02  0.51100000000E-03 0.  1.
         11   -1    0    0    0    0 -0.00000000000E+00 -0.00000000000E+00 -0.45593999997E+02  0.45594000000E+02  0.51100000000E-03 0. -1.
         23    2    1    2    0    0  0.00000000000E+00  0.00000000000E+00  0.00000000000E+00  0.91188000000E+02  0.91188000000E+02 0.  0.
    9900012    2    3    3    0    0  0.18728616689E+02  0.28300444810E+02 -0.14286480121E+02  0.54367085105E+02  0.40000002113E+02 0.  0.
        -12    1    3    3    0    0 -0.18728616689E+02 -0.28300444810E+02  0.14286480121E+02  0.36820914895E+02  0.00000000000E+00 0.  1.
         11    1    4    4    0    0 -0.59974814439E+01  0.26056742704E+02 -0.76595380479E+01  0.27813524541E+02  0.51100000000E-03 0. -1.
        -11    1    4    4    0    0  0.84829616480E+01 -0.24061901728E+01 -0.22342010939E+01  0.90962654017E+01  0.51100000000E-03 0.  1.
        -12    1    4    4    0    0  0.16243136485E+02  0.46498922782E+01 -0.43927409787E+01  0.17457295162E+02  0.00000000000E+00 0.  1.
</event>
<event>
 8    1  0.1212194E-006  0.9118800E+02  0.7816164E-02  0.1184000E+00
        -11   -1    0    0    0    0  0.00000000000E+00  0.00000000000E+00  0.45593999997E+02  0.45594000000E+02  0.51100000000E-03 0.  1.
         11   -1    0    0    0    0 -0.00000000000E+00 -0.00000000000E+00 -0.45593999997E+02  0.45594000000E+02  0.51100000000E-03 0. -1.
         23    2    1    2    0    0  0.00000000000E+00  0.00000000000E+00 -0.88817841970E-15  0.91188000000E+02  0.91188000000E+02 0.  0.
    9900012    2    3    3    0    0  0.32707744022E+02 -0.15449061950E+02 -0.68782511485E+01  0.54367076967E+02  0.39999983561E+02 0.  0.
        -12    1    3    3    0    0 -0.32707744022E+02  0.15449061950E+02  0.68782511485E+01  0.36820923033E+02  0.00000000000E+00 0.  1.
         11    1    4    4    0    0  0.16573476391E+01  0.19675404341E+01 -0.10511187863E+02  0.10821417980E+02  0.51100000000E-03 0. -1.
        -11    1    4    4    0    0  0.86805114189E+00 -0.10514508681E+02  0.65963689638E+01  0.12442688188E+02  0.51100000000E-03 0.  1.
        -12    1    4    4    0    0  0.30182345241E+02 -0.69020937033E+01 -0.29634322496E+01  0.31102970798E+02  0.00000000000E+00 0.  1.
</event>
<event>
 8    1  0.1212194E-006  0.9118800E+02  0.7816164E-02  0.1184000E+00
        -11   -1    0    0    0    0  0.00000000000E+00  0.00000000000E+00  0.45593999997E+02  0.45594000000E+02  0.51100000000E-03 0. -1.
         11   -1    0    0    0    0 -0.00000000000E+00 -0.00000000000E+00 -0.45593999997E+02  0.45594000000E+02  0.51100000000E-03 0.  1.
         23    2    1    2    0    0 -0.88817841970E-15  0.00000000000E+00  0.00000000000E+00  0.91188000000E+02  0.91188000000E+02 0.  0.
    9900012    2    3    3    0    0 -0.21479783366E+01 -0.28773865563E+02 -0.22874531777E+02  0.54366900690E+02  0.39999581701E+02 0.  0.
         12    1    3    3    0    0  0.21479783366E+01  0.28773865563E+02  0.22874531777E+02  0.36821099310E+02  0.00000000000E+00 0. -1.
         11    1    4    4    0    0 -0.10080431927E+02 -0.93345587772E+01 -0.63128585496E+01  0.15119566089E+02  0.51100000000E-03 0. -1.
        -11    1    4    4    0    0  0.62759894519E+01  0.67937231713E+01 -0.52120688074E+01  0.10616420284E+02  0.51100000000E-03 0.  1.
         12    1    4    4    0    0  0.16564641383E+01 -0.26233029957E+02 -0.11349604420E+02  0.28630914317E+02  0.00000000000E+00 0. -1.
</event>
<event>
 8    1  0.1212194E-006  0.9118800E+02  0.7816164E-02  0.1184000E+00
        -11   -1    0    0    0    0  0.00000000000E+00  0.00000000000E+00  0.45593999997E+02  0.45594000000E+02  0.51100000000E-03 0.  1.
         11   -1    0    0    0    0 -0.00000000000E+00 -0.00000000000E+00 -0.45593999997E+02  0.45594000000E+02  0.51100000000E-03 0. -1.
         23    2    1    2    0    0  0.00000000000E+00  0.35527136788E-14  0.17763568394E-14  0.91188000000E+02  0.91188000000E+02 0.  0.
    9900012    2    3    3    0    0 -0.30654349503E+02  0.16467502167E+02 -0.12037762439E+02  0.54367143199E+02  0.40000134549E+02 0.  0.
        -12    1    3    3    0    0  0.30654349503E+02 -0.16467502167E+02  0.12037762439E+02  0.36820856801E+02  0.00000000000E+00 0.  1.
         11    1    4    4    0    0 -0.69436023107E+01  0.81970467098E+01 -0.80816220383E+01  0.13443132181E+02  0.51100000000E-03 0. -1.
        -11    1    4    4    0    0 -0.19141207114E+02 -0.99473806660E+01 -0.48887903065E+01  0.22118690351E+02  0.51100000000E-03 0.  1.
        -12    1    4    4    0    0 -0.45695400777E+01  0.18217836123E+02  0.93264990562E+00  0.18805320666E+02  0.00000000000E+00 0.  1.
</event>
<event>
 8    1  0.1212194E-006  0.9118800E+02  0.7816164E-02  0.1184000E+00
        -11   -1    0    0    0    0  0.00000000000E+00  0.00000000000E+00  0.45593999997E+02  0.45594000000E+02  0.51100000000E-03 0.  1.
         11   -1    0    0    0    0 -0.00000000000E+00 -0.00000000000E+00 -0.45593999997E+02  0.45594000000E+02  0.51100000000E-03 0. -1.
         23    2    1    2    0    0  0.00000000000E+00  0.35527136788E-14 -0.35527136788E-14  0.91188000000E+02  0.91188000000E+02 0.  0.
    9900012    2    3    3    0    0  0.87655068452E+01  0.27574351408E+02 -0.22772785368E+02  0.54367099424E+02  0.40000034757E+02 0.  0.
        -12    1    3    3    0    0 -0.87655068452E+01 -0.27574351408E+02  0.22772785368E+02  0.36820900576E+02  0.00000000000E+00 0.  1.
         11    1    4    4    0    0  0.61096325831E+00 -0.37333517167E+01  0.90777659132E+00  0.38904048304E+01  0.51100000000E-03 0. -1.
        -11    1    4    4    0    0 -0.79509669095E+01  0.10910443383E+01 -0.11725178055E+02  0.14208731584E+02  0.51100000000E-03 0.  1.
         12    1    4    4    0    0  0.16105510496E+02  0.30216658786E+02 -0.11955383904E+02  0.36267963009E+02  0.00000000000E+00 0. -1.
</event>
<event>
 8    1  0.1212194E-006  0.9118800E+02  0.7816164E-02  0.1184000E+00
        -11   -1    0    0    0    0  0.00000000000E+00  0.00000000000E+00  0.45593999997E+02  0.45594000000E+02  0.51100000000E-03 0. -1.
         11   -1    0    0    0    0 -0.00000000000E+00 -0.00000000000E+00 -0.45593999997E+02  0.45594000000E+02  0.51100000000E-03 0.  1.
         23    2    1    2    0    0  0.00000000000E+00  0.00000000000E+00  0.00000000000E+00  0.91188000000E+02  0.91188000000E+02 0.  0.
    9900012    2    3    3    0    0 -0.11332065007E+02 -0.21571727664E+02  0.27604792329E+02  0.54367086224E+02  0.40000004665E+02 0.  0.
        -12    1    3    3    0    0  0.11332065007E+02  0.21571727664E+02 -0.27604792329E+02  0.36820913776E+02  0.00000000000E+00 0.  1.
         11    1    4    4    0    0 -0.95271583330E+00 -0.27023014901E+02  0.27597777660E+02  0.38636619078E+02  0.51100000000E-03 0. -1.
        -11    1    4    4    0    0 -0.93374659546E+01 -0.60446604156E+00  0.13124354532E+01  0.94486050150E+01  0.51100000000E-03 0.  1.
         12    1    4    4    0    0 -0.10418832191E+01  0.60557532784E+01 -0.13054207835E+01  0.62818621310E+01  0.00000000000E+00 0. -1.
</event>
<event>
 8    1  0.1212194E-006  0.9118800E+02  0.7816164E-02  0.1184000E+00
        -11   -1    0    0    0    0  0.00000000000E+00  0.00000000000E+00  0.45593999997E+02  0.45594000000E+02  0.51100000000E-03 0.  1.
         11   -1    0    0    0    0 -0.00000000000E+00 -0.00000000000E+00 -0.45593999997E+02  0.45594000000E+02  0.51100000000E-03 0. -1.
         23    2    1    2    0    0  0.19428902931E-14  0.00000000000E+00  0.88817841970E-15  0.91188000000E+02  0.91188000000E+02 0.  0.
    9900012    2    3    3    0    0 -0.46652719686E+00  0.36014264971E+02 -0.76508309118E+01  0.54367080095E+02  0.39999990692E+02 0.  0.
         12    1    3    3    0    0  0.46652719686E+00 -0.36014264971E+02  0.76508309118E+01  0.36820919905E+02  0.00000000000E+00 0. -1.
         11    1    4    4    0    0  0.91367575270E+01  0.36884785828E+01 -0.10816054176E+02  0.14631207762E+02  0.51100000000E-03 0. -1.
        -11    1    4    4    0    0 -0.15562401175E+02  0.26725811004E+02 -0.11017812465E+00  0.30926840181E+02  0.51100000000E-03 0.  1.
        -12    1    4    4    0    0  0.59591164510E+01  0.55999753848E+01  0.32754013890E+01  0.88090321515E+01  0.00000000000E+00 0.  1.
</event>
<event>
 8    1  0.1212194E-006  0.9118800E+02  0.7816164E-02  0.1184000E+00
        -11   -1    0    0    0    0  0.00000000000E+00  0.00000000000E+00  0.45593999997E+02  0.45594000000E+02  0.51100000000E-03 0. -1.
         11   -1    0    0    0    0 -0.00000000000E+00 -0.00000000000E+00 -0.45593999997E+02  0.45594000000E+02  0.51100000000E-03 0.  1.
         23    2    1    2    0    0  0.35527136788E-14  0.88817841970E-15  0.00000000000E+00  0.91188000000E+02  0.91188000000E+02 0.  0.
    9900012    2    3    3    0    0 -0.25160373560E+02 -0.47494775456E+01 -0.26460826900E+02  0.54367118766E+02  0.40000078852E+02 0.  0.
         12    1    3    3    0    0  0.25160373560E+02  0.47494775456E+01  0.26460826900E+02  0.36820881234E+02  0.00000000000E+00 0. -1.
         11    1    4    4    0    0 -0.12201640100E+02  0.24901366703E+01 -0.26652110419E+02  0.29417950163E+02  0.51100000000E-03 0. -1.
        -11    1    4    4    0    0 -0.15233163578E+02 -0.64725074168E+01 -0.65447786482E+01  0.17798223300E+02  0.51100000000E-03 0.  1.
         12    1    4    4    0    0  0.22744301179E+01 -0.76710679915E+00  0.67360621673E+01  0.71509453028E+01  0.00000000000E+00 0. -1.
</event>
<event>
 8    1  0.1212194E-006  0.9118800E+02  0.7816164E-02  0.1184000E+00
        -11   -1    0    0    0    0  0.00000000000E+00  0.00000000000E+00  0.45593999997E+02  0.45594000000E+02  0.51100000000E-03 0.  1.
         11   -1    0    0    0    0 -0.00000000000E+00 -0.00000000000E+00 -0.45593999997E+02  0.45594000000E+02  0.51100000000E-03 0. -1.
         23    2    1    2    0    0  0.88817841970E-15  0.00000000000E+00 -0.17763568394E-14  0.91188000000E+02  0.91188000000E+02 0.  0.
    9900012    2    3    3    0    0  0.53497991453E+01  0.35111857485E+02 -0.97116799635E+01  0.54367087265E+02  0.40000007038E+02 0.  0.
         12    1    3    3    0    0 -0.53497991453E+01 -0.35111857485E+02  0.97116799635E+01  0.36820912735E+02  0.00000000000E+00 0. -1.
         11    1    4    4    0    0 -0.50060492090E+00  0.10579447541E+02 -0.15066195594E+02  0.18416448232E+02  0.51100000000E-03 0.  1.
        -11    1    4    4    0    0 -0.51535538637E+01  0.13443894273E+02 -0.70232525287E+01  0.16019472120E+02  0.51100000000E-03 0. -1.
        -12    1    4    4    0    0  0.11003957930E+02  0.11088515671E+02  0.12377768159E+02  0.19931166913E+02  0.00000000000E+00 0.  1.
</event>
<event>
 8    1  0.1212194E-006  0.9118800E+02  0.7816164E-02  0.1184000E+00
        -11   -1    0    0    0    0  0.00000000000E+00  0.00000000000E+00  0.45593999997E+02  0.45594000000E+02  0.51100000000E-03 0. -1.
         11   -1    0    0    0    0 -0.00000000000E+00 -0.00000000000E+00 -0.45593999997E+02  0.45594000000E+02  0.51100000000E-03 0.  1.
         23    2    1    2    0    0  0.17763568394E-14  0.00000000000E+00  0.00000000000E+00  0.91188000000E+02  0.91188000000E+02 0.  0.
    9900012    2    3    3    0    0  0.91350027780E+01 -0.15153044633E+02  0.32291086566E+02  0.54367118573E+02  0.40000078412E+02 0.  0.
        -12    1    3    3    0    0 -0.91350027780E+01  0.15153044633E+02 -0.32291086566E+02  0.36820881427E+02  0.00000000000E+00 0.  1.
         11    1    4    4    0    0 -0.73920768915E+01 -0.71280779412E+01  0.30096696720E+02  0.31800368703E+02  0.51100000000E-03 0. -1.
        -11    1    4    4    0    0  0.10823062430E+02 -0.75108239657E+01 -0.43469580855E+01  0.13872534082E+02  0.51100000000E-03 0.  1.
         12    1    4    4    0    0  0.57040172397E+01 -0.51414272643E+00  0.65413479316E+01  0.86942157885E+01  0.00000000000E+00 0. -1.
</event>
<event>
 8    1  0.1212194E-006  0.9118800E+02  0.7816164E-02  0.1184000E+00
        -11   -1    0    0    0    0  0.00000000000E+00  0.00000000000E+00  0.45593999997E+02  0.45594000000E+02  0.51100000000E-03 0. -1.
         11   -1    0    0    0    0 -0.00000000000E+00 -0.00000000000E+00 -0.45593999997E+02  0.45594000000E+02  0.51100000000E-03 0.  1.
         23    2    1    2    0    0 -0.53290705182E-14 -0.35527136788E-14  0.17763568394E-14  0.91188000000E+02  0.91188000000E+02 0.  0.
    9900012    2    3    3    0    0 -0.13221278173E+02 -0.30785538508E+02  0.15271854343E+02  0.54367066921E+02  0.39999960661E+02 0.  0.
        -12    1    3    3    0    0  0.13221278173E+02  0.30785538508E+02 -0.15271854343E+02  0.36820933079E+02  0.00000000000E+00 0.  1.
         11    1    4    4    0    0  0.87667033779E+00  0.44289511844E+01  0.31560944764E+00  0.45258998066E+01  0.51100000000E-03 0. -1.
        -11    1    4    4    0    0  0.76267459358E+01 -0.10529575399E+02  0.10388658492E+02  0.16642218517E+02  0.51100000000E-03 0.  1.
        -12    1    4    4    0    0 -0.21724694446E+02 -0.24684914293E+02  0.45675864031E+01  0.33198948598E+02  0.00000000000E+00 0.  1.
</event>
<event>
 8    1  0.1212194E-006  0.9118800E+02  0.7816164E-02  0.1184000E+00
        -11   -1    0    0    0    0  0.00000000000E+00  0.00000000000E+00  0.45593999997E+02  0.45594000000E+02  0.51100000000E-03 0. -1.
         11   -1    0    0    0    0 -0.00000000000E+00 -0.00000000000E+00 -0.45593999997E+02  0.45594000000E+02  0.51100000000E-03 0.  1.
         23    2    1    2    0    0 -0.44408920985E-15 -0.35527136788E-14  0.00000000000E+00  0.91188000000E+02  0.91188000000E+02 0.  0.
    9900012    2    3    3    0    0  0.27810920030E+01  0.26567876032E+02 -0.25341536456E+02  0.54367082310E+02  0.39999995742E+02 0.  0.
         12    1    3    3    0    0 -0.27810920030E+01 -0.26567876032E+02  0.25341536456E+02  0.36820917690E+02  0.00000000000E+00 0. -1.
         11    1    4    4    0    0 -0.64197304666E+01 -0.19660055092E+01  0.23889032311E+01  0.71263578239E+01  0.51100000000E-03 0. -1.
        -11    1    4    4    0    0 -0.13545162120E+00 -0.30792192103E-01  0.37306157128E+01  0.37332009267E+01  0.51100000000E-03 0.  1.
        -12    1    4    4    0    0  0.93362740908E+01  0.28564673734E+02 -0.31461055400E+02  0.43507523559E+02  0.00000000000E+00 0.  1.
</event>
<event>
 8    1  0.1212194E-006  0.9118800E+02  0.7816164E-02  0.1184000E+00
        -11   -1    0    0    0    0  0.00000000000E+00  0.00000000000E+00  0.45593999997E+02  0.45594000000E+02  0.51100000000E-03 0. -1.
         11   -1    0    0    0    0 -0.00000000000E+00 -0.00000000000E+00 -0.45593999997E+02  0.45594000000E+02  0.51100000000E-03 0.  1.
         23    2    1    2    0    0  0.15404344467E-14  0.00000000000E+00 -0.35527136788E-14  0.91188000000E+02  0.91188000000E+02 0.  0.
    9900012    2    3    3    0    0 -0.31573083130E-01 -0.26415937414E+02  0.25651223515E+02  0.54366973206E+02  0.39999747018E+02 0.  0.
        -12    1    3    3    0    0  0.31573083130E-01  0.26415937414E+02 -0.25651223515E+02  0.36821026794E+02  0.00000000000E+00 0.  1.
         11    1    4    4    0    0 -0.64616601580E+01 -0.66097749110E+01  0.75830672367E+01  0.11955964426E+02  0.51100000000E-03 0. -1.
        -11    1    4    4    0    0  0.11676336711E+02 -0.14652570590E+02  0.25705272343E+02  0.31808736070E+02  0.51100000000E-03 0.  1.
         12    1    4    4    0    0 -0.52462496358E+01 -0.51535919126E+01 -0.76371160647E+01  0.10602272710E+02  0.00000000000E+00 0. -1.
</event>
<event>
 8    1  0.1212194E-006  0.9118800E+02  0.7816164E-02  0.1184000E+00
        -11   -1    0    0    0    0  0.00000000000E+00  0.00000000000E+00  0.45593999997E+02  0.45594000000E+02  0.51100000000E-03 0.  1.
         11   -1    0    0    0    0 -0.00000000000E+00 -0.00000000000E+00 -0.45593999997E+02  0.45594000000E+02  0.51100000000E-03 0. -1.
         23    2    1    2    0    0  0.00000000000E+00  0.66613381478E-15  0.00000000000E+00  0.91188000000E+02  0.91188000000E+02 0.  0.
    9900012    2    3    3    0    0 -0.17784857277E+02 -0.16862402511E+01 -0.32196817475E+02  0.54367087328E+02  0.40000007181E+02 0.  0.
        -12    1    3    3    0    0  0.17784857277E+02  0.16862402511E+01  0.32196817475E+02  0.36820912672E+02  0.00000000000E+00 0.  1.
         11    1    4    4    0    0 -0.19323986108E+02 -0.14251329634E+02 -0.30556738770E+02  0.38861692192E+02  0.51100000000E-03 0. -1.
        -11    1    4    4    0    0 -0.20452144122E+01  0.98567850744E+01  0.12792645724E+01  0.10147690974E+02  0.51100000000E-03 0.  1.
         12    1    4    4    0    0  0.35843432439E+01  0.27083043089E+01 -0.29193432767E+01  0.53577041619E+01  0.00000000000E+00 0. -1.
</event>
<event>
 8    1  0.1212194E-006  0.9118800E+02  0.7816164E-02  0.1184000E+00
        -11   -1    0    0    0    0  0.00000000000E+00  0.00000000000E+00  0.45593999997E+02  0.45594000000E+02  0.51100000000E-03 0. -1.
         11   -1    0    0    0    0 -0.00000000000E+00 -0.00000000000E+00 -0.45593999997E+02  0.45594000000E+02  0.51100000000E-03 0.  1.
         23    2    1    2    0    0  0.00000000000E+00  0.00000000000E+00 -0.35527136788E-14  0.91188000000E+02  0.91188000000E+02 0.  0.
    9900012    2    3    3    0    0 -0.28044359524E+01 -0.21781614215E+02  0.29554637477E+02  0.54367079653E+02  0.39999989684E+02 0.  0.
        -12    1    3    3    0    0  0.28044359524E+01  0.21781614215E+02 -0.29554637477E+02  0.36820920347E+02  0.00000000000E+00 0.  1.
         11    1    4    4    0    0  0.22589960313E+01  0.92162412276E+00 -0.24530049926E+01  0.34597236665E+01  0.51100000000E-03 0. -1.
        -11    1    4    4    0    0 -0.12138193163E+02 -0.22573716567E+01  0.88307866791E-01  0.12346629442E+02  0.51100000000E-03 0.  1.
         12    1    4    4    0    0  0.70747611788E+01 -0.20445866682E+02  0.31919334603E+02  0.38560726544E+02  0.00000000000E+00 0. -1.
</event>
<event>
 8    1  0.1212194E-006  0.9118800E+02  0.7816164E-02  0.1184000E+00
        -11   -1    0    0    0    0  0.00000000000E+00  0.00000000000E+00  0.45593999997E+02  0.45594000000E+02  0.51100000000E-03 0.  1.
         11   -1    0    0    0    0 -0.00000000000E+00 -0.00000000000E+00 -0.45593999997E+02  0.45594000000E+02  0.51100000000E-03 0. -1.
         23    2    1    2    0    0  0.00000000000E+00  0.35527136788E-14  0.17763568394E-14  0.91188000000E+02  0.91188000000E+02 0.  0.
    9900012    2    3    3    0    0  0.16785630096E+02 -0.31738650636E+02  0.81657902998E+01  0.54367089458E+02  0.40000012037E+02 0.  0.
         12    1    3    3    0    0 -0.16785630096E+02  0.31738650636E+02 -0.81657902998E+01  0.36820910542E+02  0.00000000000E+00 0. -1.
         11    1    4    4    0    0  0.59748060473E+01 -0.89395496122E+01 -0.50466912801E+01  0.11877834302E+02  0.51100000000E-03 0. -1.
        -11    1    4    4    0    0  0.19733042101E+02 -0.22694887676E+02  0.52472672731E+01  0.30528424317E+02  0.51100000000E-03 0.  1.
         12    1    4    4    0    0 -0.89222180519E+01 -0.10421334767E+00  0.79652143068E+01  0.11960830838E+02  0.00000000000E+00 0. -1.
</event>
<event>
 8    1  0.1212194E-006  0.9118800E+02  0.7816164E-02  0.1184000E+00
        -11   -1    0    0    0    0  0.00000000000E+00  0.00000000000E+00  0.45593999997E+02  0.45594000000E+02  0.51100000000E-03 0. -1.
         11   -1    0    0    0    0 -0.00000000000E+00 -0.00000000000E+00 -0.45593999997E+02  0.45594000000E+02  0.51100000000E-03 0.  1.
         23    2    1    2    0    0  0.17763568394E-14  0.00000000000E+00  0.00000000000E+00  0.91188000000E+02  0.91188000000E+02 0.  0.
    9900012    2    3    3    0    0 -0.77868761611E+01  0.33170416858E+02 -0.13959523176E+02  0.54367078200E+02  0.39999986372E+02 0.  0.
         12    1    3    3    0    0  0.77868761611E+01 -0.33170416858E+02  0.13959523176E+02  0.36820921800E+02  0.00000000000E+00 0. -1.
         11    1    4    4    0    0 -0.48804714499E+00 -0.64829799308E+01 -0.67178200675E+01  0.93486001903E+01  0.51100000000E-03 0. -1.
        -11    1    4    4    0    0  0.56846400775E+01  0.78621401772E+01 -0.41069023104E+01  0.10535417781E+02  0.51100000000E-03 0.  1.
        -12    1    4    4    0    0 -0.12983469094E+02  0.31791256612E+02 -0.31348007980E+01  0.34483060228E+02  0.00000000000E+00 0.  1.
</event>
<event>
 8    1  0.1212194E-006  0.9118800E+02  0.7816164E-02  0.1184000E+00
        -11   -1    0    0    0    0  0.00000000000E+00  0.00000000000E+00  0.45593999997E+02  0.45594000000E+02  0.51100000000E-03 0.  1.
         11   -1    0    0    0    0 -0.00000000000E+00 -0.00000000000E+00 -0.45593999997E+02  0.45594000000E+02  0.51100000000E-03 0. -1.
         23    2    1    2    0    0  0.88817841970E-15  0.00000000000E+00  0.00000000000E+00  0.91188000000E+02  0.91188000000E+02 0.  0.
    9900012    2    3    3    0    0  0.77499287732E+01  0.90699349436E+01 -0.34834676410E+02  0.54367084796E+02  0.40000001409E+02 0.  0.
        -12    1    3    3    0    0 -0.77499287732E+01 -0.90699349436E+01  0.34834676410E+02  0.36820915204E+02  0.00000000000E+00 0.  1.
         11    1    4    4    0    0  0.32740971219E+01 -0.79902237559E+01 -0.16623841042E+02  0.18732738158E+02  0.51100000000E-03 0. -1.
        -11    1    4    4    0    0  0.46436614128E+00  0.47698999938E+00  0.59884004414E+01  0.60252879998E+01  0.51100000000E-03 0.  1.
        -12    1    4    4    0    0  0.40114655100E+01  0.16583168700E+02 -0.24199235809E+02  0.29609058638E+02  0.00000000000E+00 0.  1.
</event>
<event>
 8    1  0.1212194E-006  0.9118800E+02  0.7816164E-02  0.1184000E+00
        -11   -1    0    0    0    0  0.00000000000E+00  0.00000000000E+00  0.45593999997E+02  0.45594000000E+02  0.51100000000E-03 0. -1.
         11   -1    0    0    0    0 -0.00000000000E+00 -0.00000000000E+00 -0.45593999997E+02  0.45594000000E+02  0.51100000000E-03 0.  1.
         23    2    1    2    0    0 -0.88817841970E-15 -0.72164496601E-15 -0.71054273576E-14  0.91188000000E+02  0.91188000000E+02 0.  0.
    9900012    2    3    3    0    0  0.53857860683E+01 -0.68894024417E-01  0.36424788788E+02  0.54367127167E+02  0.40000098003E+02 0.  0.
        -12    1    3    3    0    0 -0.53857860683E+01  0.68894024417E-01 -0.36424788788E+02  0.36820872833E+02  0.00000000000E+00 0.  1.
         11    1    4    4    0    0 -0.40959817448E+01 -0.60568731500E+01  0.53045338530E+00  0.73310408445E+01  0.51100000000E-03 0.  1.
        -11    1    4    4    0    0 -0.52366189903E+01  0.12657733170E+02  0.12121573744E+02  0.18291335045E+02  0.51100000000E-03 0. -1.
         12    1    4    4    0    0  0.14718386803E+02 -0.66697540446E+01  0.23772761659E+02  0.28744751277E+02  0.00000000000E+00 0. -1.
</event>
<event>
 8    1  0.1212194E-006  0.9118800E+02  0.7816164E-02  0.1184000E+00
        -11   -1    0    0    0    0  0.00000000000E+00  0.00000000000E+00  0.45593999997E+02  0.45594000000E+02  0.51100000000E-03 0. -1.
         11   -1    0    0    0    0 -0.00000000000E+00 -0.00000000000E+00 -0.45593999997E+02  0.45594000000E+02  0.51100000000E-03 0.  1.
         23    2    1    2    0    0  0.17763568394E-14  0.00000000000E+00  0.44408920985E-15  0.91188000000E+02  0.91188000000E+02 0.  0.
    9900012    2    3    3    0    0 -0.15726813231E+02 -0.33200831254E+02 -0.24803601152E+01  0.54367081534E+02  0.39999993973E+02 0.  0.
         12    1    3    3    0    0  0.15726813231E+02  0.33200831254E+02  0.24803601152E+01  0.36820918466E+02  0.00000000000E+00 0. -1.
         11    1    4    4    0    0  0.53489159090E+01  0.34290468864E+01  0.44347226919E+01  0.77482920419E+01  0.51100000000E-03 0.  1.
        -11    1    4    4    0    0 -0.28787026329E+01 -0.21188758466E+02  0.11848961676E+01  0.21416217998E+02  0.51100000000E-03 0. -1.
        -12    1    4    4    0    0 -0.18197026507E+02 -0.15441119675E+02 -0.80999789747E+01  0.25202571494E+02  0.00000000000E+00 0.  1.
</event>
<event>
 8    1  0.1212194E-006  0.9118800E+02  0.7816164E-02  0.1184000E+00
        -11   -1    0    0    0    0  0.00000000000E+00  0.00000000000E+00  0.45593999997E+02  0.45594000000E+02  0.51100000000E-03 0.  1.
         11   -1    0    0    0    0 -0.00000000000E+00 -0.00000000000E+00 -0.45593999997E+02  0.45594000000E+02  0.51100000000E-03 0. -1.
         23    2    1    2    0    0  0.00000000000E+00  0.00000000000E+00  0.22204460493E-14  0.91188000000E+02  0.91188000000E+02 0.  0.
    9900012    2    3    3    0    0  0.27594854994E+02  0.24340891920E+02  0.13507390085E+01  0.54367088313E+02  0.40000009427E+02 0.  0.
         12    1    3    3    0    0 -0.27594854994E+02 -0.24340891920E+02 -0.13507390085E+01  0.36820911687E+02  0.00000000000E+00 0. -1.
         11    1    4    4    0    0  0.72781794986E+01 -0.15121316903E+01  0.70575740311E+01  0.10250258071E+02  0.51100000000E-03 0. -1.
        -11    1    4    4    0    0  0.20431425894E+02  0.22343543228E+02 -0.15284368102E+02  0.33915910670E+02  0.51100000000E-03 0.  1.
        -12    1    4    4    0    0 -0.11475039828E+00  0.35094803821E+01  0.95775330797E+01  0.10200919571E+02  0.00000000000E+00 0.  1.
</event>
<event>
 8    1  0.1212194E-006  0.9118800E+02  0.7816164E-02  0.1184000E+00
        -11   -1    0    0    0    0  0.00000000000E+00  0.00000000000E+00  0.45593999997E+02  0.45594000000E+02  0.51100000000E-03 0.  1.
         11   -1    0    0    0    0 -0.00000000000E+00 -0.00000000000E+00 -0.45593999997E+02  0.45594000000E+02  0.51100000000E-03 0. -1.
         23    2    1    2    0    0  0.00000000000E+00  0.00000000000E+00  0.00000000000E+00  0.91188000000E+02  0.91188000000E+02 0.  0.
    9900012    2    3    3    0    0  0.71034869425E+01 -0.25638056650E+02  0.25456052653E+02  0.54367080780E+02  0.39999992254E+02 0.  0.
         12    1    3    3    0    0 -0.71034869425E+01  0.25638056650E+02 -0.25456052653E+02  0.36820919220E+02  0.00000000000E+00 0. -1.
         11    1    4    4    0    0  0.53333485886E+01 -0.42357291024E+01  0.24245590574E+02  0.25184016175E+02  0.51100000000E-03 0. -1.
        -11    1    4    4    0    0  0.11521615765E+01 -0.52196323670E+01  0.95674850659E+01  0.10959416458E+02  0.51100000000E-03 0.  1.
         12    1    4    4    0    0  0.61797677741E+00 -0.16182695180E+02 -0.83570229862E+01  0.18223648147E+02  0.00000000000E+00 0. -1.
</event>
<event>
 8    1  0.1212194E-006  0.9118800E+02  0.7816164E-02  0.1184000E+00
        -11   -1    0    0    0    0  0.00000000000E+00  0.00000000000E+00  0.45593999997E+02  0.45594000000E+02  0.51100000000E-03 0. -1.
         11   -1    0    0    0    0 -0.00000000000E+00 -0.00000000000E+00 -0.45593999997E+02  0.45594000000E+02  0.51100000000E-03 0.  1.
         23    2    1    2    0    0  0.00000000000E+00  0.00000000000E+00  0.00000000000E+00  0.91188000000E+02  0.91188000000E+02 0.  0.
    9900012    2    3    3    0    0  0.19723014579E+02 -0.23856017618E+02  0.19941752434E+02  0.54367076997E+02  0.39999983629E+02 0.  0.
         12    1    3    3    0    0 -0.19723014579E+02  0.23856017618E+02 -0.19941752434E+02  0.36820923003E+02  0.00000000000E+00 0. -1.
         11    1    4    4    0    0  0.13316113413E+02 -0.42459957015E+01  0.15931830804E+02  0.21193645013E+02  0.51100000000E-03 0. -1.
        -11    1    4    4    0    0  0.16074935981E+02 -0.15776339238E+02  0.30506707929E+01  0.22728903165E+02  0.51100000000E-03 0.  1.
         12    1    4    4    0    0 -0.96680348150E+01 -0.38336826786E+01  0.95925083734E+00  0.10444528818E+02  0.00000000000E+00 0. -1.
</event>
<event>
 8    1  0.1212194E-006  0.9118800E+02  0.7816164E-02  0.1184000E+00
        -11   -1    0    0    0    0  0.00000000000E+00  0.00000000000E+00  0.45593999997E+02  0.45594000000E+02  0.51100000000E-03 0.  1.
         11   -1    0    0    0    0 -0.00000000000E+00 -0.00000000000E+00 -0.45593999997E+02  0.45594000000E+02  0.51100000000E-03 0. -1.
         23    2    1    2    0    0  0.00000000000E+00  0.00000000000E+00 -0.35527136788E-14  0.91188000000E+02  0.91188000000E+02 0.  0.
    9900012    2    3    3    0    0  0.17140510348E+02  0.27427462299E+02 -0.17598793981E+02  0.54367077513E+02  0.39999984807E+02 0.  0.
         12    1    3    3    0    0 -0.17140510348E+02 -0.27427462299E+02  0.17598793981E+02  0.36820922487E+02  0.00000000000E+00 0. -1.
         11    1    4    4    0    0  0.14452032734E+02  0.19001834592E+02 -0.17994910463E+02  0.29895614576E+02  0.51100000000E-03 0. -1.
        -11    1    4    4    0    0  0.18743943755E+01  0.11850228553E+02  0.91159759821E+01  0.15067922531E+02  0.51100000000E-03 0.  1.
         12    1    4    4    0    0  0.81408323840E+00 -0.34246008462E+01 -0.87198595004E+01  0.94035404067E+01  0.00000000000E+00 0. -1.
</event>
<event>
 8    1  0.1212194E-006  0.9118800E+02  0.7816164E-02  0.1184000E+00
        -11   -1    0    0    0    0  0.00000000000E+00  0.00000000000E+00  0.45593999997E+02  0.45594000000E+02  0.51100000000E-03 0. -1.
         11   -1    0    0    0    0 -0.00000000000E+00 -0.00000000000E+00 -0.45593999997E+02  0.45594000000E+02  0.51100000000E-03 0.  1.
         23    2    1    2    0    0  0.00000000000E+00 -0.35527136788E-14 -0.66613381478E-15  0.91188000000E+02  0.91188000000E+02 0.  0.
    9900012    2    3    3    0    0  0.18287387752E+02  0.31936649450E+02  0.11838003809E+01  0.54367088655E+02  0.40000010208E+02 0.  0.
        -12    1    3    3    0    0 -0.18287387752E+02 -0.31936649450E+02 -0.11838003809E+01  0.36820911345E+02  0.00000000000E+00 0.  1.
         11    1    4    4    0    0 -0.78824180290E+01 -0.23229489700E+00  0.22304130392E+01  0.81951947805E+01  0.51100000000E-03 0. -1.
        -11    1    4    4    0    0  0.12116886232E+02  0.11189879300E+02 -0.10108053900E+02  0.19344381216E+02  0.51100000000E-03 0.  1.
         12    1    4    4    0    0  0.14052919549E+02  0.20979065047E+02  0.90614412414E+01  0.26827512659E+02  0.00000000000E+00 0. -1.
</event>
<event>
 8    1  0.1212194E-006  0.9118800E+02  0.7816164E-02  0.1184000E+00
        -11   -1    0    0    0    0  0.00000000000E+00  0.00000000000E+00  0.45593999997E+02  0.45594000000E+02  0.51100000000E-03 0. -1.
         11   -1    0    0    0    0 -0.00000000000E+00 -0.00000000000E+00 -0.45593999997E+02  0.45594000000E+02  0.51100000000E-03 0.  1.
         23    2    1    2    0    0 -0.17763568394E-14  0.00000000000E+00  0.00000000000E+00  0.91188000000E+02  0.91188000000E+02 0.  0.
    9900012    2    3    3    0    0 -0.93905236103E+01  0.18461426510E+02  0.30442981097E+02  0.54367064372E+02  0.39999954848E+02 0.  0.
        -12    1    3    3    0    0  0.93905236103E+01 -0.18461426510E+02 -0.30442981097E+02  0.36820935628E+02  0.00000000000E+00 0.  1.
         11    1    4    4    0    0 -0.84314108004E+01  0.16582529107E+01  0.50680773920E+01  0.99761665741E+01  0.51100000000E-03 0. -1.
        -11    1    4    4    0    0 -0.13536938270E+02  0.18955954448E+02  0.13300627177E+02  0.26823191278E+02  0.51100000000E-03 0.  1.
         12    1    4    4    0    0  0.12577825460E+02 -0.21527808491E+01  0.12074276528E+02  0.17567706520E+02  0.00000000000E+00 0. -1.
</event>
<event>
 8    1  0.1212194E-006  0.9118800E+02  0.7816164E-02  0.1184000E+00
        -11   -1    0    0    0    0  0.00000000000E+00  0.00000000000E+00  0.45593999997E+02  0.45594000000E+02  0.51100000000E-03 0.  1.
         11   -1    0    0    0    0 -0.00000000000E+00 -0.00000000000E+00 -0.45593999997E+02  0.45594000000E+02  0.51100000000E-03 0. -1.
         23    2    1    2    0    0  0.00000000000E+00  0.00000000000E+00  0.00000000000E+00  0.91188000000E+02  0.91188000000E+02 0.  0.
    9900012    2    3    3    0    0  0.82107643973E+01  0.24522874557E+02  0.26210527042E+02  0.54367085341E+02  0.40000002651E+02 0.  0.
         12    1    3    3    0    0 -0.82107643973E+01 -0.24522874557E+02 -0.26210527042E+02  0.36820914659E+02  0.00000000000E+00 0. -1.
         11    1    4    4    0    0 -0.71742603389E+01  0.12731816101E+01 -0.15141436224E+01  0.74420181398E+01  0.51100000000E-03 0. -1.
        -11    1    4    4    0    0  0.14078533848E+02  0.56102076408E+01  0.14131886528E+01  0.15220927945E+02  0.51100000000E-03 0.  1.
        -12    1    4    4    0    0  0.13064908883E+01  0.17639485306E+02  0.26311482011E+02  0.31704139256E+02  0.00000000000E+00 0.  1.
</event>
<event>
 8    1  0.1212194E-006  0.9118800E+02  0.7816164E-02  0.1184000E+00
        -11   -1    0    0    0    0  0.00000000000E+00  0.00000000000E+00  0.45593999997E+02  0.45594000000E+02  0.51100000000E-03 0. -1.
         11   -1    0    0    0    0 -0.00000000000E+00 -0.00000000000E+00 -0.45593999997E+02  0.45594000000E+02  0.51100000000E-03 0.  1.
         23    2    1    2    0    0  0.20469737017E-15  0.00000000000E+00  0.00000000000E+00  0.91188000000E+02  0.91188000000E+02 0.  0.
    9900012    2    3    3    0    0 -0.23018794174E-01 -0.24101796479E+01 -0.36741934715E+02  0.54367092048E+02  0.40000017942E+02 0.  0.
         12    1    3    3    0    0  0.23018794174E-01  0.24101796479E+01  0.36741934715E+02  0.36820907952E+02  0.00000000000E+00 0. -1.
         11    1    4    4    0    0 -0.55179184191E+00 -0.54007149700E+00  0.98764677013E+00  0.12536338630E+01  0.51100000000E-03 0. -1.
        -11    1    4    4    0    0  0.15400695997E+02 -0.26593758641E+01 -0.38364126397E+01  0.16092600144E+02  0.51100000000E-03 0.  1.
        -12    1    4    4    0    0 -0.14871922949E+02  0.78926771319E+00 -0.33893168845E+02  0.37020858041E+02  0.00000000000E+00 0.  1.
</event>
<event>
 8    1  0.1212194E-006  0.9118800E+02  0.7816164E-02  0.1184000E+00
        -11   -1    0    0    0    0  0.00000000000E+00  0.00000000000E+00  0.45593999997E+02  0.45594000000E+02  0.51100000000E-03 0. -1.
         11   -1    0    0    0    0 -0.00000000000E+00 -0.00000000000E+00 -0.45593999997E+02  0.45594000000E+02  0.51100000000E-03 0.  1.
         23    2    1    2    0    0  0.17763568394E-14  0.00000000000E+00  0.00000000000E+00  0.91188000000E+02  0.91188000000E+02 0.  0.
    9900012    2    3    3    0    0 -0.10582154938E+02  0.30424452697E+02 -0.17836745041E+02  0.54367098345E+02  0.40000032296E+02 0.  0.
         12    1    3    3    0    0  0.10582154938E+02 -0.30424452697E+02  0.17836745041E+02  0.36820901655E+02  0.00000000000E+00 0. -1.
         11    1    4    4    0    0  0.47129758633E+01  0.17087461359E+02 -0.13957934521E+02  0.22561414263E+02  0.51100000000E-03 0. -1.
        -11    1    4    4    0    0 -0.59170508439E+01  0.16637536098E+02 -0.98385810352E+01  0.20214271571E+02  0.51100000000E-03 0.  1.
         12    1    4    4    0    0 -0.93780799573E+01 -0.33005447594E+01  0.59597705159E+01  0.11591412511E+02  0.00000000000E+00 0. -1.
</event>
<event>
 8    1  0.1212194E-006  0.9118800E+02  0.7816164E-02  0.1184000E+00
        -11   -1    0    0    0    0  0.00000000000E+00  0.00000000000E+00  0.45593999997E+02  0.45594000000E+02  0.51100000000E-03 0. -1.
         11   -1    0    0    0    0 -0.00000000000E+00 -0.00000000000E+00 -0.45593999997E+02  0.45594000000E+02  0.51100000000E-03 0.  1.
         23    2    1    2    0    0  0.00000000000E+00  0.44408920985E-15  0.00000000000E+00  0.91188000000E+02  0.91188000000E+02 0.  0.
    9900012    2    3    3    0    0  0.32746380976E+02  0.35689547798E+01 -0.16453502882E+02  0.54367073038E+02  0.39999974605E+02 0.  0.
         12    1    3    3    0    0 -0.32746380976E+02 -0.35689547798E+01  0.16453502882E+02  0.36820926962E+02  0.00000000000E+00 0. -1.
         11    1    4    4    0    0  0.20328235348E+02 -0.80202336491E+01 -0.94601577007E+01  0.23812935227E+02  0.51100000000E-03 0. -1.
        -11    1    4    4    0    0  0.17203101835E+02  0.28293837124E+01 -0.10039431246E+02  0.20118208294E+02  0.51100000000E-03 0.  1.
         12    1    4    4    0    0 -0.47849562075E+01  0.87598047165E+01  0.30460860648E+01  0.10435929517E+02  0.00000000000E+00 0. -1.
</event>
<event>
 8    1  0.1212194E-006  0.9118800E+02  0.7816164E-02  0.1184000E+00
        -11   -1    0    0    0    0  0.00000000000E+00  0.00000000000E+00  0.45593999997E+02  0.45594000000E+02  0.51100000000E-03 0. -1.
         11   -1    0    0    0    0 -0.00000000000E+00 -0.00000000000E+00 -0.45593999997E+02  0.45594000000E+02  0.51100000000E-03 0.  1.
         23    2    1    2    0    0  0.17763568394E-14 -0.35527136788E-14  0.35527136788E-14  0.91188000000E+02  0.91188000000E+02 0.  0.
    9900012    2    3    3    0    0  0.13594153907E+02 -0.28265980028E+02 -0.19287664110E+02  0.54367073420E+02  0.39999975475E+02 0.  0.
         12    1    3    3    0    0 -0.13594153907E+02  0.28265980028E+02  0.19287664110E+02  0.36820926580E+02  0.00000000000E+00 0. -1.
         11    1    4    4    0    0  0.21193230842E+02 -0.55181362334E+01  0.21373429306E+01  0.22003888203E+02  0.51100000000E-03 0. -1.
        -11    1    4    4    0    0 -0.50467261126E+01 -0.17906141288E+02 -0.18117805546E+02  0.25968331066E+02  0.51100000000E-03 0.  1.
         12    1    4    4    0    0 -0.25523508222E+01 -0.48417025061E+01 -0.33072014946E+01  0.63948541502E+01  0.00000000000E+00 0. -1.
</event>
<event>
 8    1  0.1212194E-006  0.9118800E+02  0.7816164E-02  0.1184000E+00
        -11   -1    0    0    0    0  0.00000000000E+00  0.00000000000E+00  0.45593999997E+02  0.45594000000E+02  0.51100000000E-03 0.  1.
         11   -1    0    0    0    0 -0.00000000000E+00 -0.00000000000E+00 -0.45593999997E+02  0.45594000000E+02  0.51100000000E-03 0. -1.
         23    2    1    2    0    0 -0.35527136788E-14  0.00000000000E+00  0.00000000000E+00  0.91188000000E+02  0.91188000000E+02 0.  0.
    9900012    2    3    3    0    0 -0.29586091917E+02 -0.72293058372E+01  0.20692552295E+02  0.54367062773E+02  0.39999951203E+02 0.  0.
         12    1    3    3    0    0  0.29586091917E+02  0.72293058372E+01 -0.20692552295E+02  0.36820937227E+02  0.00000000000E+00 0. -1.
         11    1    4    4    0    0  0.32837751122E+01 -0.67790191006E+01 -0.32448810814E+01  0.82016786359E+01  0.51100000000E-03 0. -1.
        -11    1    4    4    0    0 -0.20254413068E+02 -0.76566528112E+01  0.48711118857E+01  0.22194443274E+02  0.51100000000E-03 0.  1.
        -12    1    4    4    0    0 -0.12615453962E+02  0.72063660746E+01  0.19066321490E+02  0.23970940863E+02  0.00000000000E+00 0.  1.
</event>
<event>
 8    1  0.1212194E-006  0.9118800E+02  0.7816164E-02  0.1184000E+00
        -11   -1    0    0    0    0  0.00000000000E+00  0.00000000000E+00  0.45593999997E+02  0.45594000000E+02  0.51100000000E-03 0. -1.
         11   -1    0    0    0    0 -0.00000000000E+00 -0.00000000000E+00 -0.45593999997E+02  0.45594000000E+02  0.51100000000E-03 0.  1.
         23    2    1    2    0    0  0.17763568394E-14 -0.44408920985E-15 -0.71054273576E-14  0.91188000000E+02  0.91188000000E+02 0.  0.
    9900012    2    3    3    0    0  0.11155646471E+02 -0.32192513457E+01 -0.34942397897E+02  0.54367038603E+02  0.39999896103E+02 0.  0.
         12    1    3    3    0    0 -0.11155646471E+02  0.32192513457E+01  0.34942397897E+02  0.36820961397E+02  0.00000000000E+00 0. -1.
         11    1    4    4    0    0  0.12255036763E+02  0.89783473544E+01 -0.12706598289E+01  0.15245039323E+02  0.51100000000E-03 0. -1.
        -11    1    4    4    0    0 -0.82288241471E+01 -0.83803819456E+01 -0.18124657943E+02  0.21597397394E+02  0.51100000000E-03 0.  1.
        -12    1    4    4    0    0  0.71294338550E+01 -0.38172167545E+01 -0.15547080125E+02  0.17524601886E+02  0.00000000000E+00 0.  1.
</event>
<event>
 8    1  0.1212194E-006  0.9118800E+02  0.7816164E-02  0.1184000E+00
        -11   -1    0    0    0    0  0.00000000000E+00  0.00000000000E+00  0.45593999997E+02  0.45594000000E+02  0.51100000000E-03 0.  1.
         11   -1    0    0    0    0 -0.00000000000E+00 -0.00000000000E+00 -0.45593999997E+02  0.45594000000E+02  0.51100000000E-03 0. -1.
         23    2    1    2    0    0  0.71054273576E-14 -0.88817841970E-15 -0.35527136788E-14  0.91188000000E+02  0.91188000000E+02 0.  0.
    9900012    2    3    3    0    0  0.32389969199E+02 -0.66112816889E+01 -0.16216073477E+02  0.54367079462E+02  0.39999989250E+02 0.  0.
        -12    1    3    3    0    0 -0.32389969199E+02  0.66112816889E+01  0.16216073477E+02  0.36820920538E+02  0.00000000000E+00 0.  1.
         11    1    4    4    0    0 -0.55935928599E+01  0.40132139713E+01  0.49230890323E+01  0.84635083353E+01  0.51100000000E-03 0.  1.
        -11    1    4    4    0    0  0.22840149792E+02 -0.22704062841E+01 -0.15564958041E+02  0.27732564005E+02  0.51100000000E-03 0. -1.
        -12    1    4    4    0    0  0.15143412267E+02 -0.83540893761E+01 -0.55742044679E+01  0.18171007122E+02  0.00000000000E+00 0.  1.
</event>
<event>
 8    1  0.1212194E-006  0.9118800E+02  0.7816164E-02  0.1184000E+00
        -11   -1    0    0    0    0  0.00000000000E+00  0.00000000000E+00  0.45593999997E+02  0.45594000000E+02  0.51100000000E-03 0. -1.
         11   -1    0    0    0    0 -0.00000000000E+00 -0.00000000000E+00 -0.45593999997E+02  0.45594000000E+02  0.51100000000E-03 0.  1.
         23    2    1    2    0    0  0.00000000000E+00  0.88817841970E-15  0.88817841970E-15  0.91188000000E+02  0.91188000000E+02 0.  0.
    9900012    2    3    3    0    0 -0.35904322166E+02  0.57191464040E+01  0.58267616190E+01  0.54367080175E+02  0.39999990876E+02 0.  0.
         12    1    3    3    0    0  0.35904322166E+02 -0.57191464040E+01 -0.58267616190E+01  0.36820919825E+02  0.00000000000E+00 0. -1.
         11    1    4    4    0    0 -0.18442855769E+02 -0.92626406938E+01  0.11656405849E+02  0.23702473270E+02  0.51100000000E-03 0. -1.
        -11    1    4    4    0    0 -0.17157849164E+02  0.29100234330E+01 -0.64834160643E+01  0.18571341051E+02  0.51100000000E-03 0.  1.
        -12    1    4    4    0    0 -0.30361723271E+00  0.12071763665E+02  0.65377183388E+00  0.12093265854E+02  0.00000000000E+00 0.  1.
</event>
<event>
 8    1  0.1212194E-006  0.9118800E+02  0.7816164E-02  0.1184000E+00
        -11   -1    0    0    0    0  0.00000000000E+00  0.00000000000E+00  0.45593999997E+02  0.45594000000E+02  0.51100000000E-03 0.  1.
         11   -1    0    0    0    0 -0.00000000000E+00 -0.00000000000E+00 -0.45593999997E+02  0.45594000000E+02  0.51100000000E-03 0. -1.
         23    2    1    2    0    0  0.00000000000E+00  0.35527136788E-14  0.00000000000E+00  0.91188000000E+02  0.91188000000E+02 0.  0.
    9900012    2    3    3    0    0  0.23660552155E+02 -0.22349068223E+02 -0.17218482553E+02  0.54367099412E+02  0.40000034729E+02 0.  0.
        -12    1    3    3    0    0 -0.23660552155E+02  0.22349068223E+02  0.17218482553E+02  0.36820900588E+02  0.00000000000E+00 0.  1.
         11    1    4    4    0    0  0.18185524709E+02 -0.19966661756E+02 -0.22092026214E+02  0.34891811548E+02  0.51100000000E-03 0. -1.
        -11    1    4    4    0    0 -0.10497570394E+01 -0.25285464766E+01 -0.61120875590E+01  0.66972495636E+01  0.51100000000E-03 0.  1.
        -12    1    4    4    0    0  0.65247844858E+01  0.14614000962E+00  0.10985631220E+02  0.12778038300E+02  0.00000000000E+00 0.  1.
</event>
<event>
 8    1  0.1212194E-006  0.9118800E+02  0.7816164E-02  0.1184000E+00
        -11   -1    0    0    0    0  0.00000000000E+00  0.00000000000E+00  0.45593999997E+02  0.45594000000E+02  0.51100000000E-03 0.  1.
         11   -1    0    0    0    0 -0.00000000000E+00 -0.00000000000E+00 -0.45593999997E+02  0.45594000000E+02  0.51100000000E-03 0. -1.
         23    2    1    2    0    0  0.00000000000E+00  0.88817841970E-15  0.00000000000E+00  0.91188000000E+02  0.91188000000E+02 0.  0.
    9900012    2    3    3    0    0 -0.32924032608E+02 -0.78231056872E+01 -0.14511622864E+02  0.54367080621E+02  0.39999991892E+02 0.  0.
        -12    1    3    3    0    0  0.32924032608E+02  0.78231056872E+01  0.14511622864E+02  0.36820919379E+02  0.00000000000E+00 0.  1.
         11    1    4    4    0    0 -0.49887272123E+00  0.56789495077E+01 -0.18086915830E+02  0.18964067760E+02  0.51100000000E-03 0. -1.
        -11    1    4    4    0    0 -0.27305628932E+02 -0.10431045649E+02  0.24993787761E+01  0.29336853601E+02  0.51100000000E-03 0.  1.
         12    1    4    4    0    0 -0.51195309545E+01 -0.30710095457E+01  0.10759141895E+01  0.60661592600E+01  0.00000000000E+00 0. -1.
</event>
<event>
 8    1  0.1212194E-006  0.9118800E+02  0.7816164E-02  0.1184000E+00
        -11   -1    0    0    0    0  0.00000000000E+00  0.00000000000E+00  0.45593999997E+02  0.45594000000E+02  0.51100000000E-03 0.  1.
         11   -1    0    0    0    0 -0.00000000000E+00 -0.00000000000E+00 -0.45593999997E+02  0.45594000000E+02  0.51100000000E-03 0. -1.
         23    2    1    2    0    0  0.00000000000E+00 -0.71054273576E-14  0.44408920985E-15  0.91188000000E+02  0.91188000000E+02 0.  0.
    9900012    2    3    3    0    0  0.16078560532E+02  0.32990472774E+02 -0.29811935391E+01  0.54367096731E+02  0.40000028618E+02 0.  0.
        -12    1    3    3    0    0 -0.16078560532E+02 -0.32990472774E+02  0.29811935391E+01  0.36820903269E+02  0.00000000000E+00 0.  1.
         11    1    4    4    0    0 -0.91273772133E+00  0.32191642270E+02 -0.72152558721E+01  0.33002951986E+02  0.51100000000E-03 0. -1.
        -11    1    4    4    0    0  0.12326217400E+02  0.61839702012E+01  0.32858676992E+01  0.14176531650E+02  0.51100000000E-03 0.  1.
         12    1    4    4    0    0  0.46650808538E+01 -0.53851396981E+01  0.94819463369E+00  0.71876130950E+01  0.00000000000E+00 0. -1.
</event>
<event>
 8    1  0.1212194E-006  0.9118800E+02  0.7816164E-02  0.1184000E+00
        -11   -1    0    0    0    0  0.00000000000E+00  0.00000000000E+00  0.45593999997E+02  0.45594000000E+02  0.51100000000E-03 0. -1.
         11   -1    0    0    0    0 -0.00000000000E+00 -0.00000000000E+00 -0.45593999997E+02  0.45594000000E+02  0.51100000000E-03 0.  1.
         23    2    1    2    0    0  0.00000000000E+00 -0.35527136788E-14  0.00000000000E+00  0.91188000000E+02  0.91188000000E+02 0.  0.
    9900012    2    3    3    0    0 -0.34021972685E+02 -0.11504491899E+02  0.81196470471E+01  0.54367127830E+02  0.40000099514E+02 0.  0.
         12    1    3    3    0    0  0.34021972685E+02  0.11504491899E+02 -0.81196470471E+01  0.36820872170E+02  0.00000000000E+00 0. -1.
         11    1    4    4    0    0  0.27073152098E+01 -0.74643019973E+01  0.56593116136E+01  0.97505470694E+01  0.51100000000E-03 0. -1.
        -11    1    4    4    0    0 -0.10050271283E+02  0.69346040245E+01  0.88360967037E+01  0.15072268942E+02  0.51100000000E-03 0.  1.
        -12    1    4    4    0    0 -0.26679016611E+02 -0.10974793926E+02 -0.63757612702E+01  0.29544311818E+02  0.00000000000E+00 0.  1.
</event>
<event>
 8    1  0.1212194E-006  0.9118800E+02  0.7816164E-02  0.1184000E+00
        -11   -1    0    0    0    0  0.00000000000E+00  0.00000000000E+00  0.45593999997E+02  0.45594000000E+02  0.51100000000E-03 0. -1.
         11   -1    0    0    0    0 -0.00000000000E+00 -0.00000000000E+00 -0.45593999997E+02  0.45594000000E+02  0.51100000000E-03 0.  1.
         23    2    1    2    0    0 -0.35527136788E-14  0.17763568394E-14  0.00000000000E+00  0.91188000000E+02  0.91188000000E+02 0.  0.
    9900012    2    3    3    0    0 -0.31836582606E+02  0.59287043093E+01 -0.17523210850E+02  0.54367075985E+02  0.39999981323E+02 0.  0.
         12    1    3    3    0    0  0.31836582606E+02 -0.59287043093E+01  0.17523210850E+02  0.36820924015E+02  0.00000000000E+00 0. -1.
         11    1    4    4    0    0 -0.28906349777E+01  0.31485559453E+01  0.11206764611E+01  0.44187205282E+01  0.51100000000E-03 0. -1.
        -11    1    4    4    0    0 -0.32646195299E+01  0.16760114532E+02 -0.61104721675E+01  0.18135519021E+02  0.51100000000E-03 0.  1.
        -12    1    4    4    0    0 -0.25681328098E+02 -0.13979966168E+02 -0.12533415144E+02  0.31812836436E+02  0.00000000000E+00 0.  1.
</event>
<event>
 8    1  0.1212194E-006  0.9118800E+02  0.7816164E-02  0.1184000E+00
        -11   -1    0    0    0    0  0.00000000000E+00  0.00000000000E+00  0.45593999997E+02  0.45594000000E+02  0.51100000000E-03 0.  1.
         11   -1    0    0    0    0 -0.00000000000E+00 -0.00000000000E+00 -0.45593999997E+02  0.45594000000E+02  0.51100000000E-03 0. -1.
         23    2    1    2    0    0  0.00000000000E+00  0.00000000000E+00  0.00000000000E+00  0.91188000000E+02  0.91188000000E+02 0.  0.
    9900012    2    3    3    0    0 -0.14889900096E+01 -0.12591538544E+02 -0.34568991244E+02  0.54367094392E+02  0.40000023285E+02 0.  0.
        -12    1    3    3    0    0  0.14889900096E+01  0.12591538544E+02  0.34568991244E+02  0.36820905608E+02  0.00000000000E+00 0.  1.
         11    1    4    4    0    0 -0.98932907541E+00  0.89843338091E+01 -0.10398134855E+02  0.13777453856E+02  0.51100000000E-03 0. -1.
        -11    1    4    4    0    0 -0.41961660182E+01 -0.60934975505E+00  0.36241157474E+01  0.55779325550E+01  0.51100000000E-03 0.  1.
         12    1    4    4    0    0  0.36965050840E+01 -0.20966522598E+02 -0.27794972136E+02  0.35011707981E+02  0.00000000000E+00 0. -1.
</event>
<event>
 8    1  0.1212194E-006  0.9118800E+02  0.7816164E-02  0.1184000E+00
        -11   -1    0    0    0    0  0.00000000000E+00  0.00000000000E+00  0.45593999997E+02  0.45594000000E+02  0.51100000000E-03 0. -1.
         11   -1    0    0    0    0 -0.00000000000E+00 -0.00000000000E+00 -0.45593999997E+02  0.45594000000E+02  0.51100000000E-03 0.  1.
         23    2    1    2    0    0 -0.17763568394E-14 -0.35527136788E-14  0.00000000000E+00  0.91188000000E+02  0.91188000000E+02 0.  0.
    9900012    2    3    3    0    0 -0.14179184541E+02 -0.11035795156E+02 -0.32139404856E+02  0.54367090268E+02  0.40000013885E+02 0.  0.
         12    1    3    3    0    0  0.14179184541E+02  0.11035795156E+02  0.32139404856E+02  0.36820909732E+02  0.00000000000E+00 0. -1.
         11    1    4    4    0    0 -0.67508852959E+01  0.47310397385E+01  0.38598145817E+01  0.91024918650E+01  0.51100000000E-03 0. -1.
        -11    1    4    4    0    0 -0.92042475336E+01 -0.12702239581E+01 -0.40506930604E+01  0.10136062159E+02  0.51100000000E-03 0.  1.
        -12    1    4    4    0    0  0.17759482886E+01 -0.14496610936E+02 -0.31948526377E+02  0.35128536244E+02  0.00000000000E+00 0.  1.
</event>
<event>
 8    1  0.1212194E-006  0.9118800E+02  0.7816164E-02  0.1184000E+00
        -11   -1    0    0    0    0  0.00000000000E+00  0.00000000000E+00  0.45593999997E+02  0.45594000000E+02  0.51100000000E-03 0.  1.
         11   -1    0    0    0    0 -0.00000000000E+00 -0.00000000000E+00 -0.45593999997E+02  0.45594000000E+02  0.51100000000E-03 0. -1.
         23    2    1    2    0    0  0.00000000000E+00  0.00000000000E+00 -0.71054273576E-14  0.91188000000E+02  0.91188000000E+02 0.  0.
    9900012    2    3    3    0    0  0.90685290468E+01  0.41633611487E+01 -0.35443031471E+02  0.54367078298E+02  0.39999986596E+02 0.  0.
        -12    1    3    3    0    0 -0.90685290468E+01 -0.41633611487E+01  0.35443031471E+02  0.36820921702E+02  0.00000000000E+00 0.  1.
         11    1    4    4    0    0  0.14396071369E+02  0.18300626743E+01 -0.74497164231E+01  0.16312396369E+02  0.51100000000E-03 0. -1.
        -11    1    4    4    0    0  0.15344789709E+01  0.27124827692E-01  0.45053128146E+01  0.47595383481E+01  0.51100000000E-03 0.  1.
        -12    1    4    4    0    0 -0.68620212929E+01  0.23061736467E+01 -0.32498627863E+02  0.33295143581E+02  0.00000000000E+00 0.  1.
</event>
<event>
 8    1  0.1212194E-006  0.9118800E+02  0.7816164E-02  0.1184000E+00
        -11   -1    0    0    0    0  0.00000000000E+00  0.00000000000E+00  0.45593999997E+02  0.45594000000E+02  0.51100000000E-03 0.  1.
         11   -1    0    0    0    0 -0.00000000000E+00 -0.00000000000E+00 -0.45593999997E+02  0.45594000000E+02  0.51100000000E-03 0. -1.
         23    2    1    2    0    0  0.35527136788E-14  0.00000000000E+00  0.00000000000E+00  0.91188000000E+02  0.91188000000E+02 0.  0.
    9900012    2    3    3    0    0 -0.28877161501E+02 -0.18736075807E+02  0.13071017808E+02  0.54367048091E+02  0.39999917732E+02 0.  0.
         12    1    3    3    0    0  0.28877161501E+02  0.18736075807E+02 -0.13071017808E+02  0.36820951909E+02  0.00000000000E+00 0. -1.
         11    1    4    4    0    0  0.35152330767E+01  0.20121719813E+01  0.32624113942E+01  0.52008680075E+01  0.51100000000E-03 0. -1.
        -11    1    4    4    0    0  0.26961361588E+01  0.39017842235E+01  0.33369937040E+01  0.57990169473E+01  0.51100000000E-03 0.  1.
         12    1    4    4    0    0 -0.35088530736E+02 -0.24650032011E+02  0.64716127099E+01  0.43367163136E+02  0.00000000000E+00 0. -1.
</event>
<event>
 8    1  0.1212194E-006  0.9118800E+02  0.7816164E-02  0.1184000E+00
        -11   -1    0    0    0    0  0.00000000000E+00  0.00000000000E+00  0.45593999997E+02  0.45594000000E+02  0.51100000000E-03 0.  1.
         11   -1    0    0    0    0 -0.00000000000E+00 -0.00000000000E+00 -0.45593999997E+02  0.45594000000E+02  0.51100000000E-03 0. -1.
         23    2    1    2    0    0 -0.66613381478E-15  0.35527136788E-14  0.00000000000E+00  0.91188000000E+02  0.91188000000E+02 0.  0.
    9900012    2    3    3    0    0  0.17751706901E+01 -0.31324295695E+02  0.19272183675E+02  0.54367084811E+02  0.40000001443E+02 0.  0.
         12    1    3    3    0    0 -0.17751706901E+01  0.31324295695E+02 -0.19272183675E+02  0.36820915189E+02  0.00000000000E+00 0. -1.
         11    1    4    4    0    0  0.35721306968E+01 -0.75449113535E+01  0.83654931515E+00  0.83896138210E+01  0.51100000000E-03 0. -1.
        -11    1    4    4    0    0  0.11412936870E+02  0.32793317343E+01  0.35893490325E+01  0.12405344468E+02  0.51100000000E-03 0.  1.
         12    1    4    4    0    0 -0.13209896877E+02 -0.27058716076E+02  0.14846285327E+02  0.33572126522E+02  0.00000000000E+00 0. -1.
</event>
<event>
 8    1  0.1212194E-006  0.9118800E+02  0.7816164E-02  0.1184000E+00
        -11   -1    0    0    0    0  0.00000000000E+00  0.00000000000E+00  0.45593999997E+02  0.45594000000E+02  0.51100000000E-03 0.  1.
         11   -1    0    0    0    0 -0.00000000000E+00 -0.00000000000E+00 -0.45593999997E+02  0.45594000000E+02  0.51100000000E-03 0. -1.
         23    2    1    2    0    0  0.17763568394E-14  0.35527136788E-14  0.35527136788E-14  0.91188000000E+02  0.91188000000E+02 0.  0.
    9900012    2    3    3    0    0 -0.14516674289E+02  0.23240568909E+02  0.24595148132E+02  0.54367093068E+02  0.40000020268E+02 0.  0.
         12    1    3    3    0    0  0.14516674289E+02 -0.23240568909E+02 -0.24595148132E+02  0.36820906932E+02  0.00000000000E+00 0. -1.
         11    1    4    4    0    0  0.46687579868E+00  0.86887643993E+01  0.15155729710E+02  0.17475947560E+02  0.51100000000E-03 0.  1.
        -11    1    4    4    0    0 -0.18185054381E+02  0.17823142459E+02  0.15106154975E+02  0.29606697356E+02  0.51100000000E-03 0. -1.
         12    1    4    4    0    0  0.32015042935E+01 -0.32713379490E+01 -0.56667365535E+01  0.72844481523E+01  0.00000000000E+00 0. -1.
</event>
<event>
 8    1  0.1212194E-006  0.9118800E+02  0.7816164E-02  0.1184000E+00
        -11   -1    0    0    0    0  0.00000000000E+00  0.00000000000E+00  0.45593999997E+02  0.45594000000E+02  0.51100000000E-03 0.  1.
         11   -1    0    0    0    0 -0.00000000000E+00 -0.00000000000E+00 -0.45593999997E+02  0.45594000000E+02  0.51100000000E-03 0. -1.
         23    2    1    2    0    0  0.00000000000E+00  0.00000000000E+00  0.22204460493E-14  0.91188000000E+02  0.91188000000E+02 0.  0.
    9900012    2    3    3    0    0 -0.21651911619E+02 -0.29526548030E+02 -0.38931885215E+01  0.54367092459E+02  0.40000018878E+02 0.  0.
         12    1    3    3    0    0  0.21651911619E+02  0.29526548030E+02  0.38931885215E+01  0.36820907541E+02  0.00000000000E+00 0. -1.
         11    1    4    4    0    0 -0.12709129268E+02 -0.37705628380E+01 -0.16434092357E+02  0.21114414572E+02  0.51100000000E-03 0. -1.
        -11    1    4    4    0    0 -0.11370325391E+02 -0.16478711005E+02  0.12613295981E+02  0.23662786220E+02  0.51100000000E-03 0.  1.
        -12    1    4    4    0    0  0.24275430407E+01 -0.92772741867E+01 -0.72392145429E-01  0.95898916663E+01  0.00000000000E+00 0.  1.
</event>
<event>
 8    1  0.1212194E-006  0.9118800E+02  0.7816164E-02  0.1184000E+00
        -11   -1    0    0    0    0  0.00000000000E+00  0.00000000000E+00  0.45593999997E+02  0.45594000000E+02  0.51100000000E-03 0. -1.
         11   -1    0    0    0    0 -0.00000000000E+00 -0.00000000000E+00 -0.45593999997E+02  0.45594000000E+02  0.51100000000E-03 0.  1.
         23    2    1    2    0    0  0.00000000000E+00  0.00000000000E+00  0.00000000000E+00  0.91188000000E+02  0.91188000000E+02 0.  0.
    9900012    2    3    3    0    0  0.16138851060E+02 -0.84917763643E+00 -0.33084685333E+02  0.54367081764E+02  0.39999994497E+02 0.  0.
         12    1    3    3    0    0 -0.16138851060E+02  0.84917763643E+00  0.33084685333E+02  0.36820918236E+02  0.00000000000E+00 0. -1.
         11    1    4    4    0    0 -0.23334997639E+01 -0.57998782773E+01 -0.18288838230E+02  0.19327840367E+02  0.51100000000E-03 0. -1.
        -11    1    4    4    0    0  0.18279912543E+02  0.13385714962E+02 -0.74441294621E+01  0.23848430374E+02  0.51100000000E-03 0.  1.
        -12    1    4    4    0    0  0.19243828097E+00 -0.84350143207E+01 -0.73517176405E+01  0.11190811023E+02  0.00000000000E+00 0.  1.
</event>
<event>
 8    1  0.1212194E-006  0.9118800E+02  0.7816164E-02  0.1184000E+00
        -11   -1    0    0    0    0  0.00000000000E+00  0.00000000000E+00  0.45593999997E+02  0.45594000000E+02  0.51100000000E-03 0.  1.
         11   -1    0    0    0    0 -0.00000000000E+00 -0.00000000000E+00 -0.45593999997E+02  0.45594000000E+02  0.51100000000E-03 0. -1.
         23    2    1    2    0    0  0.00000000000E+00 -0.17763568394E-14  0.71054273576E-14  0.91188000000E+02  0.91188000000E+02 0.  0.
    9900012    2    3    3    0    0 -0.10350690707E+02 -0.13297502686E+02  0.32738642858E+02  0.54367094091E+02  0.40000022600E+02 0.  0.
         12    1    3    3    0    0  0.10350690707E+02  0.13297502686E+02 -0.32738642858E+02  0.36820905909E+02  0.00000000000E+00 0. -1.
         11    1    4    4    0    0 -0.16484741539E+02 -0.14725691928E+01 -0.18866186539E+01  0.16657565664E+02  0.51100000000E-03 0. -1.
        -11    1    4    4    0    0  0.25993922593E+01 -0.50176417396E+01  0.23675257278E+02  0.24340324077E+02  0.51100000000E-03 0.  1.
         12    1    4    4    0    0  0.35346585729E+01 -0.68072917532E+01  0.10950004233E+02  0.13369204350E+02  0.00000000000E+00 0. -1.
</event>
<event>
 8    1  0.1212194E-006  0.9118800E+02  0.7816164E-02  0.1184000E+00
        -11   -1    0    0    0    0  0.00000000000E+00  0.00000000000E+00  0.45593999997E+02  0.45594000000E+02  0.51100000000E-03 0. -1.
         11   -1    0    0    0    0 -0.00000000000E+00 -0.00000000000E+00 -0.45593999997E+02  0.45594000000E+02  0.51100000000E-03 0.  1.
         23    2    1    2    0    0  0.17763568394E-14  0.10658141036E-13 -0.14210854715E-13  0.91188000000E+02  0.91188000000E+02 0.  0.
    9900012    2    3    3    0    0 -0.87656575443E+01 -0.19881737930E+02  0.29726428957E+02  0.54367070709E+02  0.39999969295E+02 0.  0.
        -12    1    3    3    0    0  0.87656575443E+01  0.19881737930E+02 -0.29726428957E+02  0.36820929291E+02  0.00000000000E+00 0.  1.
         11    1    4    4    0    0  0.65164084991E+00 -0.49140641341E+01 -0.42545781822E+01  0.65325414565E+01  0.51100000000E-03 0. -1.
        -11    1    4    4    0    0 -0.10166310515E+01 -0.15408334481E+01 -0.52296610159E+01  0.55459048867E+01  0.51100000000E-03 0.  1.
        -12    1    4    4    0    0 -0.84006673427E+01 -0.13426840348E+02  0.39210668156E+02  0.42288624366E+02  0.00000000000E+00 0.  1.
</event>
<event>
 8    1  0.1212194E-006  0.9118800E+02  0.7816164E-02  0.1184000E+00
        -11   -1    0    0    0    0  0.00000000000E+00  0.00000000000E+00  0.45593999997E+02  0.45594000000E+02  0.51100000000E-03 0. -1.
         11   -1    0    0    0    0 -0.00000000000E+00 -0.00000000000E+00 -0.45593999997E+02  0.45594000000E+02  0.51100000000E-03 0.  1.
         23    2    1    2    0    0  0.00000000000E+00  0.35527136788E-14  0.00000000000E+00  0.91188000000E+02  0.91188000000E+02 0.  0.
    9900012    2    3    3    0    0  0.16167930417E+02 -0.22745202239E+02  0.24021506903E+02  0.54367095710E+02  0.40000026290E+02 0.  0.
        -12    1    3    3    0    0 -0.16167930417E+02  0.22745202239E+02 -0.24021506903E+02  0.36820904290E+02  0.00000000000E+00 0.  1.
         11    1    4    4    0    0  0.54434478136E+01 -0.19385621362E+01  0.12461742942E+02  0.13736236190E+02  0.51100000000E-03 0. -1.
        -11    1    4    4    0    0  0.18268714255E+02 -0.97372990367E+01 -0.29181371395E+01  0.20906373135E+02  0.51100000000E-03 0.  1.
         12    1    4    4    0    0 -0.75442316514E+01 -0.11069341067E+02  0.14477901100E+02  0.19724486384E+02  0.00000000000E+00 0. -1.
</event>
<event>
 8    1  0.1212194E-006  0.9118800E+02  0.7816164E-02  0.1184000E+00
        -11   -1    0    0    0    0  0.00000000000E+00  0.00000000000E+00  0.45593999997E+02  0.45594000000E+02  0.51100000000E-03 0. -1.
         11   -1    0    0    0    0 -0.00000000000E+00 -0.00000000000E+00 -0.45593999997E+02  0.45594000000E+02  0.51100000000E-03 0.  1.
         23    2    1    2    0    0  0.00000000000E+00  0.88817841970E-15  0.00000000000E+00  0.91188000000E+02  0.91188000000E+02 0.  0.
    9900012    2    3    3    0    0 -0.32936560431E+02 -0.39766600933E+01 -0.15973376919E+02  0.54367087346E+02  0.40000007222E+02 0.  0.
         12    1    3    3    0    0  0.32936560431E+02  0.39766600933E+01  0.15973376919E+02  0.36820912654E+02  0.00000000000E+00 0. -1.
         11    1    4    4    0    0 -0.37233407670E-01 -0.33404590334E+01  0.35184538394E+01  0.48517595325E+01  0.51100000000E-03 0. -1.
        -11    1    4    4    0    0  0.51753047723E+01  0.46816341344E+01 -0.18700671934E+01  0.72248618827E+01  0.51100000000E-03 0.  1.
        -12    1    4    4    0    0 -0.38074631795E+02 -0.53178351943E+01 -0.17621763565E+02  0.42290465931E+02  0.00000000000E+00 0.  1.
</event>
<event>
 8    1  0.1212194E-006  0.9118800E+02  0.7816164E-02  0.1184000E+00
        -11   -1    0    0    0    0  0.00000000000E+00  0.00000000000E+00  0.45593999997E+02  0.45594000000E+02  0.51100000000E-03 0. -1.
         11   -1    0    0    0    0 -0.00000000000E+00 -0.00000000000E+00 -0.45593999997E+02  0.45594000000E+02  0.51100000000E-03 0.  1.
         23    2    1    2    0    0 -0.88817841970E-15  0.00000000000E+00 -0.35527136788E-14  0.91188000000E+02  0.91188000000E+02 0.  0.
    9900012    2    3    3    0    0  0.62211353939E+01 -0.18638933469E+02  0.31139473858E+02  0.54367092914E+02  0.40000019917E+02 0.  0.
        -12    1    3    3    0    0 -0.62211353939E+01  0.18638933469E+02 -0.31139473858E+02  0.36820907086E+02  0.00000000000E+00 0.  1.
         11    1    4    4    0    0  0.10833284297E+01 -0.40339194293E+01 -0.29404704043E+01  0.51080791799E+01  0.51100000000E-03 0. -1.
        -11    1    4    4    0    0 -0.23097397020E+01  0.89591858524E+01  0.16547609305E+02  0.18958514778E+02  0.51100000000E-03 0.  1.
         12    1    4    4    0    0  0.74475466662E+01 -0.23564199893E+02  0.17532334957E+02  0.30300498956E+02  0.00000000000E+00 0. -1.
</event>
<event>
 8    1  0.1212194E-006  0.9118800E+02  0.7816164E-02  0.1184000E+00
        -11   -1    0    0    0    0  0.00000000000E+00  0.00000000000E+00  0.45593999997E+02  0.45594000000E+02  0.51100000000E-03 0.  1.
         11   -1    0    0    0    0 -0.00000000000E+00 -0.00000000000E+00 -0.45593999997E+02  0.45594000000E+02  0.51100000000E-03 0. -1.
         23    2    1    2    0    0  0.00000000000E+00 -0.35527136788E-14  0.00000000000E+00  0.91188000000E+02  0.91188000000E+02 0.  0.
    9900012    2    3    3    0    0 -0.15251978946E+02 -0.86229830127E+01  0.32385353072E+02  0.54366949072E+02  0.39999691999E+02 0.  0.
         12    1    3    3    0    0  0.15251978946E+02  0.86229830127E+01 -0.32385353072E+02  0.36821050928E+02  0.00000000000E+00 0. -1.
         11    1    4    4    0    0 -0.23166836402E+01  0.63131100195E+01 -0.12194164589E+01  0.68344244796E+01  0.51100000000E-03 0. -1.
        -11    1    4    4    0    0 -0.22854748529E+01 -0.20387875027E+02  0.15005778814E+02  0.25417754454E+02  0.51100000000E-03 0.  1.
        -12    1    4    4    0    0 -0.10649820453E+02  0.54517819947E+01  0.18598990717E+02  0.22114770139E+02  0.00000000000E+00 0.  1.
</event>
<event>
 8    1  0.1212194E-006  0.9118800E+02  0.7816164E-02  0.1184000E+00
        -11   -1    0    0    0    0  0.00000000000E+00  0.00000000000E+00  0.45593999997E+02  0.45594000000E+02  0.51100000000E-03 0.  1.
         11   -1    0    0    0    0 -0.00000000000E+00 -0.00000000000E+00 -0.45593999997E+02  0.45594000000E+02  0.51100000000E-03 0. -1.
         23    2    1    2    0    0  0.00000000000E+00  0.00000000000E+00  0.55511151231E-16  0.91188000000E+02  0.91188000000E+02 0.  0.
    9900012    2    3    3    0    0  0.31570003282E+02 -0.18945568514E+02 -0.42503974400E+00  0.54367077519E+02  0.39999984820E+02 0.  0.
        -12    1    3    3    0    0 -0.31570003282E+02  0.18945568514E+02  0.42503974400E+00  0.36820922481E+02  0.00000000000E+00 0.  1.
         11    1    4    4    0    0 -0.67027183922E+01 -0.11025019849E+02  0.22088185323E+01  0.13090316119E+02  0.51100000000E-03 0. -1.
        -11    1    4    4    0    0  0.22671556195E+01 -0.92739296328E+00 -0.38671279401E+01  0.45776337859E+01  0.51100000000E-03 0.  1.
         12    1    4    4    0    0  0.36005566055E+02 -0.69931557018E+01  0.12332696638E+01  0.36699127615E+02  0.00000000000E+00 0. -1.
</event>
<event>
 8    1  0.1212194E-006  0.9118800E+02  0.7816164E-02  0.1184000E+00
        -11   -1    0    0    0    0  0.00000000000E+00  0.00000000000E+00  0.45593999997E+02  0.45594000000E+02  0.51100000000E-03 0.  1.
         11   -1    0    0    0    0 -0.00000000000E+00 -0.00000000000E+00 -0.45593999997E+02  0.45594000000E+02  0.51100000000E-03 0. -1.
         23    2    1    2    0    0  0.00000000000E+00 -0.17763568394E-14  0.88817841970E-15  0.91188000000E+02  0.91188000000E+02 0.  0.
    9900012    2    3    3    0    0 -0.36321526668E+02 -0.51383353226E+01 -0.31817615575E+01  0.54367090234E+02  0.40000013807E+02 0.  0.
         12    1    3    3    0    0  0.36321526668E+02  0.51383353226E+01  0.31817615575E+01  0.36820909766E+02  0.00000000000E+00 0. -1.
         11    1    4    4    0    0 -0.13084295554E+01  0.52618620763E+01 -0.11745325965E+02  0.12936454796E+02  0.51100000000E-03 0. -1.
        -11    1    4    4    0    0 -0.30267693129E+02 -0.22090344174E+01  0.31137435639E+01  0.30507515134E+02  0.51100000000E-03 0.  1.
         12    1    4    4    0    0 -0.47454039834E+01 -0.81911629815E+01  0.54498208436E+01  0.10923120304E+02  0.00000000000E+00 0. -1.
</event>
<event>
 8    1  0.1212194E-006  0.9118800E+02  0.7816164E-02  0.1184000E+00
        -11   -1    0    0    0    0  0.00000000000E+00  0.00000000000E+00  0.45593999997E+02  0.45594000000E+02  0.51100000000E-03 0.  1.
         11   -1    0    0    0    0 -0.00000000000E+00 -0.00000000000E+00 -0.45593999997E+02  0.45594000000E+02  0.51100000000E-03 0. -1.
         23    2    1    2    0    0 -0.88817841970E-15  0.00000000000E+00  0.44408920985E-15  0.91188000000E+02  0.91188000000E+02 0.  0.
    9900012    2    3    3    0    0 -0.49526261726E+01  0.36379767665E+02 -0.27865190659E+01  0.54367072664E+02  0.39999973752E+02 0.  0.
         12    1    3    3    0    0  0.49526261726E+01 -0.36379767665E+02  0.27865190659E+01  0.36820927336E+02  0.00000000000E+00 0. -1.
         11    1    4    4    0    0  0.26329481249E+01  0.39424736897E+01 -0.90917378802E+01  0.10253546341E+02  0.51100000000E-03 0. -1.
        -11    1    4    4    0    0 -0.34795975199E+01  0.79783244800E+00 -0.82921488733E+01  0.90279493083E+01  0.51100000000E-03 0.  1.
        -12    1    4    4    0    0 -0.41059767776E+01  0.31639461528E+02  0.14597367688E+02  0.35085577015E+02  0.00000000000E+00 0.  1.
</event>
<event>
 8    1  0.1212194E-006  0.9118800E+02  0.7816164E-02  0.1184000E+00
        -11   -1    0    0    0    0  0.00000000000E+00  0.00000000000E+00  0.45593999997E+02  0.45594000000E+02  0.51100000000E-03 0.  1.
         11   -1    0    0    0    0 -0.00000000000E+00 -0.00000000000E+00 -0.45593999997E+02  0.45594000000E+02  0.51100000000E-03 0. -1.
         23    2    1    2    0    0  0.00000000000E+00 -0.35527136788E-14  0.44408920985E-15  0.91188000000E+02  0.91188000000E+02 0.  0.
    9900012    2    3    3    0    0  0.24622144986E+02 -0.27191536535E+02  0.31856766060E+01  0.54367106226E+02  0.40000050264E+02 0.  0.
        -12    1    3    3    0    0 -0.24622144986E+02  0.27191536535E+02 -0.31856766060E+01  0.36820893774E+02  0.00000000000E+00 0.  1.
         11    1    4    4    0    0  0.27388889694E+02 -0.12575825077E+02 -0.27211300148E+01  0.30260654386E+02  0.51100000000E-03 0. -1.
        -11    1    4    4    0    0 -0.38693601498E+01 -0.20905321224E+01 -0.55601098108E+01  0.70892237864E+01  0.51100000000E-03 0.  1.
        -12    1    4    4    0    0  0.11026154417E+01 -0.12525179335E+02  0.11466916432E+02  0.17017228054E+02  0.00000000000E+00 0.  1.
</event>
<event>
 8    1  0.1212194E-006  0.9118800E+02  0.7816164E-02  0.1184000E+00
        -11   -1    0    0    0    0  0.00000000000E+00  0.00000000000E+00  0.45593999997E+02  0.45594000000E+02  0.51100000000E-03 0.  1.
         11   -1    0    0    0    0 -0.00000000000E+00 -0.00000000000E+00 -0.45593999997E+02  0.45594000000E+02  0.51100000000E-03 0. -1.
         23    2    1    2    0    0 -0.44408920985E-15 -0.88817841970E-15  0.00000000000E+00  0.91188000000E+02  0.91188000000E+02 0.  0.
    9900012    2    3    3    0    0  0.28823440544E+01  0.43540530123E+01  0.36448789452E+02  0.54367082882E+02  0.39999997046E+02 0.  0.
         12    1    3    3    0    0 -0.28823440544E+01 -0.43540530123E+01 -0.36448789452E+02  0.36820917118E+02  0.00000000000E+00 0. -1.
         11    1    4    4    0    0  0.64443117249E+00  0.66558619203E+01 -0.22878188354E+01  0.70675246532E+01  0.51100000000E-03 0. -1.
        -11    1    4    4    0    0  0.59327422452E+01 -0.12309768908E+02  0.31699667418E+02  0.34519512681E+02  0.51100000000E-03 0.  1.
         12    1    4    4    0    0 -0.36948293633E+01  0.10007960000E+02  0.70369408701E+01  0.12780045547E+02  0.00000000000E+00 0. -1.
</event>
<event>
 8    1  0.1212194E-006  0.9118800E+02  0.7816164E-02  0.1184000E+00
        -11   -1    0    0    0    0  0.00000000000E+00  0.00000000000E+00  0.45593999997E+02  0.45594000000E+02  0.51100000000E-03 0. -1.
         11   -1    0    0    0    0 -0.00000000000E+00 -0.00000000000E+00 -0.45593999997E+02  0.45594000000E+02  0.51100000000E-03 0.  1.
         23    2    1    2    0    0  0.00000000000E+00  0.00000000000E+00  0.00000000000E+00  0.91188000000E+02  0.91188000000E+02 0.  0.
    9900012    2    3    3    0    0 -0.24220204021E+02 -0.22292263581E+02 -0.16498957943E+02  0.54367096811E+02  0.40000028801E+02 0.  0.
        -12    1    3    3    0    0  0.24220204021E+02  0.22292263581E+02  0.16498957943E+02  0.36820903189E+02  0.00000000000E+00 0.  1.
         11    1    4    4    0    0 -0.13772552342E+02 -0.11643192509E+02 -0.42784309580E-01  0.18034659980E+02  0.51100000000E-03 0. -1.
        -11    1    4    4    0    0  0.51215320848E+01 -0.73589912424E+01 -0.18235360380E+02  0.20320266028E+02  0.51100000000E-03 0.  1.
        -12    1    4    4    0    0 -0.15569183764E+02 -0.32900798297E+01  0.17791867464E+01  0.16012170804E+02  0.00000000000E+00 0.  1.
</event>
<event>
 8    1  0.1212194E-006  0.9118800E+02  0.7816164E-02  0.1184000E+00
        -11   -1    0    0    0    0  0.00000000000E+00  0.00000000000E+00  0.45593999997E+02  0.45594000000E+02  0.51100000000E-03 0.  1.
         11   -1    0    0    0    0 -0.00000000000E+00 -0.00000000000E+00 -0.45593999997E+02  0.45594000000E+02  0.51100000000E-03 0. -1.
         23    2    1    2    0    0  0.00000000000E+00 -0.17763568394E-14  0.17763568394E-14  0.91188000000E+02  0.91188000000E+02 0.  0.
    9900012    2    3    3    0    0 -0.32771790637E+02  0.15270792688E+02 -0.69707689263E+01  0.54367095743E+02  0.40000026366E+02 0.  0.
         12    1    3    3    0    0  0.32771790637E+02 -0.15270792688E+02  0.69707689263E+01  0.36820904257E+02  0.00000000000E+00 0. -1.
         11    1    4    4    0    0 -0.26007350470E+01 -0.66254159048E+01  0.22618229138E+01  0.74683198814E+01  0.51100000000E-03 0. -1.
        -11    1    4    4    0    0 -0.10741003322E+02  0.66310410635E+01  0.95769234234E+01  0.15844788432E+02  0.51100000000E-03 0.  1.
         12    1    4    4    0    0 -0.19430052268E+02  0.15265167529E+02 -0.18809515263E+02  0.31053987430E+02  0.00000000000E+00 0. -1.
</event>
<event>
 8    1  0.1212194E-006  0.9118800E+02  0.7816164E-02  0.1184000E+00
        -11   -1    0    0    0    0  0.00000000000E+00  0.00000000000E+00  0.45593999997E+02  0.45594000000E+02  0.51100000000E-03 0. -1.
         11   -1    0    0    0    0 -0.00000000000E+00 -0.00000000000E+00 -0.45593999997E+02  0.45594000000E+02  0.51100000000E-03 0.  1.
         23    2    1    2    0    0  0.00000000000E+00  0.00000000000E+00  0.00000000000E+00  0.91188000000E+02  0.91188000000E+02 0.  0.
    9900012    2    3    3    0    0  0.64641770673E+01  0.85651331577E+01 -0.35222619878E+02  0.54367081459E+02  0.39999993802E+02 0.  0.
         12    1    3    3    0    0 -0.64641770673E+01 -0.85651331577E+01  0.35222619878E+02  0.36820918541E+02  0.00000000000E+00 0. -1.
         11    1    4    4    0    0 -0.12557096635E+02  0.14599768257E+02 -0.13407907030E+02  0.23464992654E+02  0.51100000000E-03 0. -1.
        -11    1    4    4    0    0  0.74473725530E+01  0.20957148722E+01 -0.80773024075E+01  0.11184730359E+02  0.51100000000E-03 0.  1.
         12    1    4    4    0    0  0.11573901149E+02 -0.81303499714E+01 -0.13737410441E+02  0.19717358446E+02  0.00000000000E+00 0. -1.
</event>
<event>
 8    1  0.1212194E-006  0.9118800E+02  0.7816164E-02  0.1184000E+00
        -11   -1    0    0    0    0  0.00000000000E+00  0.00000000000E+00  0.45593999997E+02  0.45594000000E+02  0.51100000000E-03 0. -1.
         11   -1    0    0    0    0 -0.00000000000E+00 -0.00000000000E+00 -0.45593999997E+02  0.45594000000E+02  0.51100000000E-03 0.  1.
         23    2    1    2    0    0 -0.88817841970E-15  0.00000000000E+00  0.00000000000E+00  0.91188000000E+02  0.91188000000E+02 0.  0.
    9900012    2    3    3    0    0  0.50184253588E+01  0.33025716116E+02 -0.15488565849E+02  0.54367106609E+02  0.40000051136E+02 0.  0.
         12    1    3    3    0    0 -0.50184253588E+01 -0.33025716116E+02  0.15488565849E+02  0.36820893391E+02  0.00000000000E+00 0. -1.
         11    1    4    4    0    0  0.75763878254E+00  0.77381719609E+01  0.76126254946E+01  0.10881424034E+02  0.51100000000E-03 0. -1.
        -11    1    4    4    0    0  0.51545130291E+01  0.12589348211E+02 -0.26948442327E+02  0.30187401959E+02  0.51100000000E-03 0.  1.
        -12    1    4    4    0    0 -0.89372645282E+00  0.12698195944E+02  0.38472509833E+01  0.13298280616E+02  0.00000000000E+00 0.  1.
</event>
<event>
 8    1  0.1212194E-006  0.9118800E+02  0.7816164E-02  0.1184000E+00
        -11   -1    0    0    0    0  0.00000000000E+00  0.00000000000E+00  0.45593999997E+02  0.45594000000E+02  0.51100000000E-03 0.  1.
         11   -1    0    0    0    0 -0.00000000000E+00 -0.00000000000E+00 -0.45593999997E+02  0.45594000000E+02  0.51100000000E-03 0. -1.
         23    2    1    2    0    0  0.00000000000E+00  0.17763568394E-14  0.71054273576E-14  0.91188000000E+02  0.91188000000E+02 0.  0.
    9900012    2    3    3    0    0  0.60728579101E+01  0.90254686635E+01  0.35177271212E+02  0.54367094284E+02  0.40000023040E+02 0.  0.
         12    1    3    3    0    0 -0.60728579101E+01 -0.90254686635E+01 -0.35177271212E+02  0.36820905716E+02  0.00000000000E+00 0. -1.
         11    1    4    4    0    0  0.10555329389E+02  0.62789230942E+01 -0.25307743175E+01  0.12539723787E+02  0.51100000000E-03 0. -1.
        -11    1    4    4    0    0  0.44789474478E+01  0.55400581029E+01  0.25207629441E+02  0.26194995636E+02  0.51100000000E-03 0.  1.
         12    1    4    4    0    0 -0.89614189269E+01 -0.27935125336E+01  0.12500416088E+02  0.15632374862E+02  0.00000000000E+00 0. -1.
</event>
<event>
 8    1  0.1212194E-006  0.9118800E+02  0.7816164E-02  0.1184000E+00
        -11   -1    0    0    0    0  0.00000000000E+00  0.00000000000E+00  0.45593999997E+02  0.45594000000E+02  0.51100000000E-03 0.  1.
         11   -1    0    0    0    0 -0.00000000000E+00 -0.00000000000E+00 -0.45593999997E+02  0.45594000000E+02  0.51100000000E-03 0. -1.
         23    2    1    2    0    0  0.00000000000E+00  0.35527136788E-14  0.71054273576E-14  0.91188000000E+02  0.91188000000E+02 0.  0.
    9900012    2    3    3    0    0  0.53383247028E+01 -0.30064733671E+02 -0.20576585897E+02  0.54367057474E+02  0.39999939123E+02 0.  0.
        -12    1    3    3    0    0 -0.53383247028E+01  0.30064733671E+02  0.20576585897E+02  0.36820942526E+02  0.00000000000E+00 0.  1.
         11    1    4    4    0    0  0.59003410419E+01 -0.33023015227E+01 -0.72096739595E+01  0.98842611571E+01  0.51100000000E-03 0.  1.
        -11    1    4    4    0    0  0.15203912502E+02 -0.16475577329E+02 -0.12430646672E+02  0.25634441297E+02  0.51100000000E-03 0. -1.
         12    1    4    4    0    0 -0.15765928841E+02 -0.10286854820E+02 -0.93626526565E+00  0.18848355020E+02  0.00000000000E+00 0. -1.
</event>
<event>
 8    1  0.1212194E-006  0.9118800E+02  0.7816164E-02  0.1184000E+00
        -11   -1    0    0    0    0  0.00000000000E+00  0.00000000000E+00  0.45593999997E+02  0.45594000000E+02  0.51100000000E-03 0.  1.
         11   -1    0    0    0    0 -0.00000000000E+00 -0.00000000000E+00 -0.45593999997E+02  0.45594000000E+02  0.51100000000E-03 0. -1.
         23    2    1    2    0    0  0.00000000000E+00  0.71054273576E-14 -0.88817841970E-15  0.91188000000E+02  0.91188000000E+02 0.  0.
    9900012    2    3    3    0    0  0.19926967826E+02  0.30346563269E+02  0.61467477563E+01  0.54367075827E+02  0.39999980962E+02 0.  0.
         12    1    3    3    0    0 -0.19926967826E+02 -0.30346563269E+02 -0.61467477563E+01  0.36820924173E+02  0.00000000000E+00 0. -1.
         11    1    4    4    0    0  0.83790810518E+01 -0.11011265698E+01 -0.78851498456E+01  0.11558419760E+02  0.51100000000E-03 0. -1.
        -11    1    4    4    0    0  0.17218612008E+02  0.29133051201E+02  0.14155881268E+02  0.36682478740E+02  0.51100000000E-03 0.  1.
         12    1    4    4    0    0 -0.56707252333E+01  0.23146386374E+01 -0.12398366586E+00  0.61261773271E+01  0.00000000000E+00 0. -1.
</event>
<event>
 8    1  0.1212194E-006  0.9118800E+02  0.7816164E-02  0.1184000E+00
        -11   -1    0    0    0    0  0.00000000000E+00  0.00000000000E+00  0.45593999997E+02  0.45594000000E+02  0.51100000000E-03 0. -1.
         11   -1    0    0    0    0 -0.00000000000E+00 -0.00000000000E+00 -0.45593999997E+02  0.45594000000E+02  0.51100000000E-03 0.  1.
         23    2    1    2    0    0  0.55511151231E-15  0.17763568394E-14  0.00000000000E+00  0.91188000000E+02  0.91188000000E+02 0.  0.
    9900012    2    3    3    0    0 -0.94374859860E+00 -0.63637389821E+01  0.36254544324E+02  0.54367084485E+02  0.40000000700E+02 0.  0.
        -12    1    3    3    0    0  0.94374859860E+00  0.63637389821E+01 -0.36254544324E+02  0.36820915515E+02  0.00000000000E+00 0.  1.
         11    1    4    4    0    0 -0.16001104299E+02  0.76620731488E+01  0.17872104468E+02  0.25182430822E+02  0.51100000000E-03 0. -1.
        -11    1    4    4    0    0  0.66536941749E+01 -0.48599296385E+01  0.13519302086E+02  0.15832311626E+02  0.51100000000E-03 0.  1.
         12    1    4    4    0    0  0.84036615256E+01 -0.91658824923E+01  0.48631377698E+01  0.13352342037E+02  0.00000000000E+00 0. -1.
</event>
<event>
 8    1  0.1212194E-006  0.9118800E+02  0.7816164E-02  0.1184000E+00
        -11   -1    0    0    0    0  0.00000000000E+00  0.00000000000E+00  0.45593999997E+02  0.45594000000E+02  0.51100000000E-03 0.  1.
         11   -1    0    0    0    0 -0.00000000000E+00 -0.00000000000E+00 -0.45593999997E+02  0.45594000000E+02  0.51100000000E-03 0. -1.
         23    2    1    2    0    0  0.00000000000E+00  0.00000000000E+00 -0.35527136788E-14  0.91188000000E+02  0.91188000000E+02 0.  0.
    9900012    2    3    3    0    0  0.16959118037E+02 -0.24871352292E+02  0.21203395090E+02  0.54367084575E+02  0.40000000905E+02 0.  0.
         12    1    3    3    0    0 -0.16959118037E+02  0.24871352292E+02 -0.21203395090E+02  0.36820915425E+02  0.00000000000E+00 0. -1.
         11    1    4    4    0    0 -0.59024143220E+01  0.48288871627E+01  0.77621423530E+01  0.10881521044E+02  0.51100000000E-03 0. -1.
        -11    1    4    4    0    0  0.66309195548E+00 -0.45889876170E+01  0.83965458182E+01  0.95916880803E+01  0.51100000000E-03 0.  1.
        -12    1    4    4    0    0  0.22198440403E+02 -0.25111251837E+02  0.50447069187E+01  0.33893875451E+02  0.00000000000E+00 0.  1.
</event>
<event>
 8    1  0.1212194E-006  0.9118800E+02  0.7816164E-02  0.1184000E+00
        -11   -1    0    0    0    0  0.00000000000E+00  0.00000000000E+00  0.45593999997E+02  0.45594000000E+02  0.51100000000E-03 0. -1.
         11   -1    0    0    0    0 -0.00000000000E+00 -0.00000000000E+00 -0.45593999997E+02  0.45594000000E+02  0.51100000000E-03 0.  1.
         23    2    1    2    0    0  0.00000000000E+00 -0.35527136788E-14  0.00000000000E+00  0.91188000000E+02  0.91188000000E+02 0.  0.
    9900012    2    3    3    0    0 -0.17293023232E+02  0.31471825685E+02  0.81397477229E+01  0.54367082610E+02  0.39999996427E+02 0.  0.
         12    1    3    3    0    0  0.17293023232E+02 -0.31471825685E+02 -0.81397477229E+01  0.36820917390E+02  0.00000000000E+00 0. -1.
         11    1    4    4    0    0 -0.21650359976E+02  0.71367202652E+01  0.67752654715E+01  0.23781822590E+02  0.51100000000E-03 0. -1.
        -11    1    4    4    0    0  0.63223181882E+01  0.20346524001E+02 -0.58643121557E+01  0.22098481927E+02  0.51100000000E-03 0.  1.
        -12    1    4    4    0    0 -0.19649814438E+01  0.39885814189E+01  0.72287944072E+01  0.84867780925E+01  0.00000000000E+00 0.  1.
</event>
<event>
 8    1  0.1212194E-006  0.9118800E+02  0.7816164E-02  0.1184000E+00
        -11   -1    0    0    0    0  0.00000000000E+00  0.00000000000E+00  0.45593999997E+02  0.45594000000E+02  0.51100000000E-03 0. -1.
         11   -1    0    0    0    0 -0.00000000000E+00 -0.00000000000E+00 -0.45593999997E+02  0.45594000000E+02  0.51100000000E-03 0.  1.
         23    2    1    2    0    0  0.00000000000E+00  0.35527136788E-14  0.71054273576E-14  0.91188000000E+02  0.91188000000E+02 0.  0.
    9900012    2    3    3    0    0 -0.88745637108E+01 -0.29181828987E+02 -0.20626254265E+02  0.54367090327E+02  0.40000014019E+02 0.  0.
         12    1    3    3    0    0  0.88745637108E+01  0.29181828987E+02  0.20626254265E+02  0.36820909673E+02  0.00000000000E+00 0. -1.
         11    1    4    4    0    0 -0.15558090928E+01  0.63860197046E+01 -0.13915097582E+01  0.67184886150E+01  0.51100000000E-03 0. -1.
        -11    1    4    4    0    0 -0.12466794162E+01 -0.10911411300E+02 -0.19356673388E+02  0.22255199641E+02  0.51100000000E-03 0.  1.
         12    1    4    4    0    0 -0.60720752019E+01 -0.24656437392E+02  0.12192888125E+00  0.25393402072E+02  0.00000000000E+00 0. -1.
</event>
<event>
 8    1  0.1212194E-006  0.9118800E+02  0.7816164E-02  0.1184000E+00
        -11   -1    0    0    0    0  0.00000000000E+00  0.00000000000E+00  0.45593999997E+02  0.45594000000E+02  0.51100000000E-03 0.  1.
         11   -1    0    0    0    0 -0.00000000000E+00 -0.00000000000E+00 -0.45593999997E+02  0.45594000000E+02  0.51100000000E-03 0. -1.
         23    2    1    2    0    0  0.00000000000E+00  0.00000000000E+00  0.00000000000E+00  0.91188000000E+02  0.91188000000E+02 0.  0.
    9900012    2    3    3    0    0  0.17067432640E+02 -0.28657251462E+02 -0.15596285429E+02  0.54367089671E+02  0.40000012524E+02 0.  0.
         12    1    3    3    0    0 -0.17067432640E+02  0.28657251462E+02  0.15596285429E+02  0.36820910329E+02  0.00000000000E+00 0. -1.
         11    1    4    4    0    0 -0.37816473346E+01  0.44631441617E+01 -0.12130910609E+02  0.13467720848E+02  0.51100000000E-03 0. -1.
        -11    1    4    4    0    0  0.90368998371E+01 -0.24539361900E+02 -0.20399969638E+01  0.26229895711E+02  0.51100000000E-03 0.  1.
         12    1    4    4    0    0  0.11812180137E+02 -0.85810337237E+01 -0.14253778554E+01  0.14669473112E+02  0.00000000000E+00 0. -1.
</event>
<event>
 8    1  0.1212194E-006  0.9118800E+02  0.7816164E-02  0.1184000E+00
        -11   -1    0    0    0    0  0.00000000000E+00  0.00000000000E+00  0.45593999997E+02  0.45594000000E+02  0.51100000000E-03 0.  1.
         11   -1    0    0    0    0 -0.00000000000E+00 -0.00000000000E+00 -0.45593999997E+02  0.45594000000E+02  0.51100000000E-03 0. -1.
         23    2    1    2    0    0  0.35527136788E-14 -0.35527136788E-14 -0.35527136788E-14  0.91188000000E+02  0.91188000000E+02 0.  0.
    9900012    2    3    3    0    0 -0.21236756611E+02  0.22876215902E+02  0.19531000917E+02  0.54367067337E+02  0.39999961608E+02 0.  0.
         12    1    3    3    0    0  0.21236756611E+02 -0.22876215902E+02 -0.19531000917E+02  0.36820932663E+02  0.00000000000E+00 0. -1.
         11    1    4    4    0    0 -0.56393576280E+00  0.54977807038E+01  0.56714218055E+01  0.79188788201E+01  0.51100000000E-03 0. -1.
        -11    1    4    4    0    0 -0.34869486602E+01  0.23475258757E+02  0.31832049792E+00  0.23734951292E+02  0.51100000000E-03 0.  1.
         12    1    4    4    0    0 -0.17185872188E+02 -0.60968235582E+01  0.13541258613E+02  0.22713237224E+02  0.00000000000E+00 0. -1.
</event>
<event>
 8    1  0.1212194E-006  0.9118800E+02  0.7816164E-02  0.1184000E+00
        -11   -1    0    0    0    0  0.00000000000E+00  0.00000000000E+00  0.45593999997E+02  0.45594000000E+02  0.51100000000E-03 0.  1.
         11   -1    0    0    0    0 -0.00000000000E+00 -0.00000000000E+00 -0.45593999997E+02  0.45594000000E+02  0.51100000000E-03 0. -1.
         23    2    1    2    0    0 -0.35527136788E-14  0.00000000000E+00 -0.35527136788E-14  0.91188000000E+02  0.91188000000E+02 0.  0.
    9900012    2    3    3    0    0  0.18039946194E+02  0.14820140155E+02  0.28472885151E+02  0.54367062998E+02  0.39999951716E+02 0.  0.
         12    1    3    3    0    0 -0.18039946194E+02 -0.14820140155E+02 -0.28472885151E+02  0.36820937002E+02  0.00000000000E+00 0. -1.
         11    1    4    4    0    0 -0.30958803902E+01 -0.67247820023E+00 -0.32453676509E+01  0.45353184862E+01  0.51100000000E-03 0. -1.
        -11    1    4    4    0    0  0.22481241278E+02  0.14553506768E+02  0.36217012714E+02  0.45043121326E+02  0.51100000000E-03 0.  1.
        -12    1    4    4    0    0 -0.13454146933E+01  0.93911158665E+00 -0.44987599114E+01  0.47886231852E+01  0.00000000000E+00 0.  1.
</event>
<event>
 8    1  0.1212194E-006  0.9118800E+02  0.7816164E-02  0.1184000E+00
        -11   -1    0    0    0    0  0.00000000000E+00  0.00000000000E+00  0.45593999997E+02  0.45594000000E+02  0.51100000000E-03 0. -1.
         11   -1    0    0    0    0 -0.00000000000E+00 -0.00000000000E+00 -0.45593999997E+02  0.45594000000E+02  0.51100000000E-03 0.  1.
         23    2    1    2    0    0  0.88817841970E-15  0.00000000000E+00 -0.71054273576E-14  0.91188000000E+02  0.91188000000E+02 0.  0.
    9900012    2    3    3    0    0  0.20298636143E+01 -0.21444833347E+02 -0.29862658149E+02  0.54367087800E+02  0.40000008257E+02 0.  0.
         12    1    3    3    0    0 -0.20298636143E+01  0.21444833347E+02  0.29862658149E+02  0.36820912200E+02  0.00000000000E+00 0. -1.
         11    1    4    4    0    0  0.39605525171E+01 -0.20353268053E+02 -0.66582512480E+01  0.21777828326E+02  0.51100000000E-03 0. -1.
        -11    1    4    4    0    0  0.83733973325E+01 -0.63592669027E+01 -0.68294030520E+01  0.12537735232E+02  0.51100000000E-03 0.  1.
         12    1    4    4    0    0 -0.10304086235E+02  0.52677016085E+01 -0.16375003849E+02  0.20051524242E+02  0.00000000000E+00 0. -1.
</event>
<event>
 8    1  0.1212194E-006  0.9118800E+02  0.7816164E-02  0.1184000E+00
        -11   -1    0    0    0    0  0.00000000000E+00  0.00000000000E+00  0.45593999997E+02  0.45594000000E+02  0.51100000000E-03 0.  1.
         11   -1    0    0    0    0 -0.00000000000E+00 -0.00000000000E+00 -0.45593999997E+02  0.45594000000E+02  0.51100000000E-03 0. -1.
         23    2    1    2    0    0 -0.44408920985E-15  0.00000000000E+00  0.00000000000E+00  0.91188000000E+02  0.91188000000E+02 0.  0.
    9900012    2    3    3    0    0  0.20765944411E+01 -0.17329054706E+02 -0.32421767128E+02  0.54367090653E+02  0.40000014761E+02 0.  0.
        -12    1    3    3    0    0 -0.20765944411E+01  0.17329054706E+02  0.32421767128E+02  0.36820909347E+02  0.00000000000E+00 0.  1.
         11    1    4    4    0    0  0.63050861169E+01 -0.65977443411E+01 -0.51298519690E+01  0.10468988624E+02  0.51100000000E-03 0. -1.
        -11    1    4    4    0    0  0.23438046613E+01 -0.21466954547E+02 -0.14913339198E+02  0.26243689606E+02  0.51100000000E-03 0.  1.
         12    1    4    4    0    0 -0.65722963371E+01  0.10735644183E+02 -0.12378575961E+02  0.17654412423E+02  0.00000000000E+00 0. -1.
</event>
<event>
 8    1  0.1212194E-006  0.9118800E+02  0.7816164E-02  0.1184000E+00
        -11   -1    0    0    0    0  0.00000000000E+00  0.00000000000E+00  0.45593999997E+02  0.45594000000E+02  0.51100000000E-03 0.  1.
         11   -1    0    0    0    0 -0.00000000000E+00 -0.00000000000E+00 -0.45593999997E+02  0.45594000000E+02  0.51100000000E-03 0. -1.
         23    2    1    2    0    0  0.00000000000E+00 -0.35527136788E-14  0.00000000000E+00  0.91188000000E+02  0.91188000000E+02 0.  0.
    9900012    2    3    3    0    0 -0.19405645451E+02 -0.22024426335E+02  0.22228934124E+02  0.54367082805E+02  0.39999996872E+02 0.  0.
         12    1    3    3    0    0  0.19405645451E+02  0.22024426335E+02 -0.22228934124E+02  0.36820917195E+02  0.00000000000E+00 0. -1.
         11    1    4    4    0    0 -0.63783157917E+01  0.20553114568E-01 -0.52507689436E+01  0.82615924330E+01  0.51100000000E-03 0. -1.
        -11    1    4    4    0    0 -0.12536606901E+02 -0.47367055415E+00  0.19322791974E+02  0.23038254412E+02  0.51100000000E-03 0.  1.
         12    1    4    4    0    0 -0.49072275805E+00 -0.21571308895E+02  0.81569110931E+01  0.23067235961E+02  0.00000000000E+00 0. -1.
</event>
<event>
 8    1  0.1212194E-006  0.9118800E+02  0.7816164E-02  0.1184000E+00
        -11   -1    0    0    0    0  0.00000000000E+00  0.00000000000E+00  0.45593999997E+02  0.45594000000E+02  0.51100000000E-03 0.  1.
         11   -1    0    0    0    0 -0.00000000000E+00 -0.00000000000E+00 -0.45593999997E+02  0.45594000000E+02  0.51100000000E-03 0. -1.
         23    2    1    2    0    0  0.44408920985E-15  0.00000000000E+00 -0.35527136788E-14  0.91188000000E+02  0.91188000000E+02 0.  0.
    9900012    2    3    3    0    0  0.39961815449E+01  0.30975862934E+02 -0.19501398383E+02  0.54367107964E+02  0.40000054226E+02 0.  0.
        -12    1    3    3    0    0 -0.39961815449E+01 -0.30975862934E+02  0.19501398383E+02  0.36820892036E+02  0.00000000000E+00 0.  1.
         11    1    4    4    0    0  0.88366222287E+01  0.78869626009E+00 -0.14066095619E+02  0.16630182814E+02  0.51100000000E-03 0. -1.
        -11    1    4    4    0    0 -0.27517341580E+01  0.31596600734E+02  0.32763772222E-01  0.31716214979E+02  0.51100000000E-03 0.  1.
        -12    1    4    4    0    0 -0.20887065259E+01 -0.14094340608E+01 -0.54680665360E+01  0.60207101712E+01  0.00000000000E+00 0.  1.
</event>
<event>
 8    1  0.1212194E-006  0.9118800E+02  0.7816164E-02  0.1184000E+00
        -11   -1    0    0    0    0  0.00000000000E+00  0.00000000000E+00  0.45593999997E+02  0.45594000000E+02  0.51100000000E-03 0.  1.
         11   -1    0    0    0    0 -0.00000000000E+00 -0.00000000000E+00 -0.45593999997E+02  0.45594000000E+02  0.51100000000E-03 0. -1.
         23    2    1    2    0    0  0.00000000000E+00  0.00000000000E+00 -0.17763568394E-14  0.91188000000E+02  0.91188000000E+02 0.  0.
    9900012    2    3    3    0    0  0.76457829348E+01 -0.35109456734E+02  0.80404323216E+01  0.54367075232E+02  0.39999979607E+02 0.  0.
         12    1    3    3    0    0 -0.76457829348E+01  0.35109456734E+02 -0.80404323216E+01  0.36820924768E+02  0.00000000000E+00 0. -1.
         11    1    4    4    0    0 -0.26750906872E+00 -0.35278946010E+01  0.13105459374E+02  0.13574633221E+02  0.51100000000E-03 0. -1.
        -11    1    4    4    0    0  0.85242303443E+01 -0.14765890363E+01  0.37330778616E+01  0.94222443573E+01  0.51100000000E-03 0.  1.
        -12    1    4    4    0    0 -0.61093834077E+00 -0.30104973096E+02 -0.87981049140E+01  0.31370197654E+02  0.00000000000E+00 0.  1.
</event>
<event>
 8    1  0.1212194E-006  0.9118800E+02  0.7816164E-02  0.1184000E+00
        -11   -1    0    0    0    0  0.00000000000E+00  0.00000000000E+00  0.45593999997E+02  0.45594000000E+02  0.51100000000E-03 0. -1.
         11   -1    0    0    0    0 -0.00000000000E+00 -0.00000000000E+00 -0.45593999997E+02  0.45594000000E+02  0.51100000000E-03 0.  1.
         23    2    1    2    0    0  0.00000000000E+00  0.35527136788E-14 -0.35527136788E-14  0.91188000000E+02  0.91188000000E+02 0.  0.
    9900012    2    3    3    0    0  0.96294450926E+01 -0.29534884105E+02  0.19767256747E+02  0.54367081609E+02  0.39999994144E+02 0.  0.
        -12    1    3    3    0    0 -0.96294450926E+01  0.29534884105E+02 -0.19767256747E+02  0.36820918391E+02  0.00000000000E+00 0.  1.
         11    1    4    4    0    0 -0.79155958118E+00 -0.63871070326E+01  0.11295809656E+02  0.13000654555E+02  0.51100000000E-03 0. -1.
        -11    1    4    4    0    0  0.22500988305E+01  0.68000297239E+01  0.74098875270E+01  0.10305813040E+02  0.51100000000E-03 0.  1.
         12    1    4    4    0    0  0.81709058433E+01 -0.29947806796E+02  0.10615595637E+01  0.31060614014E+02  0.00000000000E+00 0. -1.
</event>
<event>
 8    1  0.1212194E-006  0.9118800E+02  0.7816164E-02  0.1184000E+00
        -11   -1    0    0    0    0  0.00000000000E+00  0.00000000000E+00  0.45593999997E+02  0.45594000000E+02  0.51100000000E-03 0. -1.
         11   -1    0    0    0    0 -0.00000000000E+00 -0.00000000000E+00 -0.45593999997E+02  0.45594000000E+02  0.51100000000E-03 0.  1.
         23    2    1    2    0    0  0.00000000000E+00  0.35527136788E-14  0.00000000000E+00  0.91188000000E+02  0.91188000000E+02 0.  0.
    9900012    2    3    3    0    0  0.20175574179E+02 -0.22081144739E+02  0.21474380478E+02  0.54367085246E+02  0.40000002435E+02 0.  0.
         12    1    3    3    0    0 -0.20175574179E+02  0.22081144739E+02 -0.21474380478E+02  0.36820914754E+02  0.00000000000E+00 0. -1.
         11    1    4    4    0    0  0.35164486318E+01 -0.72326413850E+01  0.14814872952E+02  0.16856956227E+02  0.51100000000E-03 0. -1.
        -11    1    4    4    0    0  0.14075086977E+02  0.13872778809E+01  0.13640405183E+02  0.19649256148E+02  0.51100000000E-03 0.  1.
        -12    1    4    4    0    0  0.25840385693E+01 -0.16235781235E+02 -0.69808976570E+01  0.17860872871E+02  0.00000000000E+00 0.  1.
</event>
<event>
 8    1  0.1212194E-006  0.9118800E+02  0.7816164E-02  0.1184000E+00
        -11   -1    0    0    0    0  0.00000000000E+00  0.00000000000E+00  0.45593999997E+02  0.45594000000E+02  0.51100000000E-03 0. -1.
         11   -1    0    0    0    0 -0.00000000000E+00 -0.00000000000E+00 -0.45593999997E+02  0.45594000000E+02  0.51100000000E-03 0.  1.
         23    2    1    2    0    0  0.88817841970E-15  0.00000000000E+00  0.00000000000E+00  0.91188000000E+02  0.91188000000E+02 0.  0.
    9900012    2    3    3    0    0 -0.54529522315E+01 -0.35145120000E+02 -0.95324622044E+01  0.54367055097E+02  0.39999933704E+02 0.  0.
         12    1    3    3    0    0  0.54529522315E+01  0.35145120000E+02  0.95324622044E+01  0.36820944903E+02  0.00000000000E+00 0. -1.
         11    1    4    4    0    0  0.77405012317E+00 -0.36089852400E+01  0.90186946304E+01  0.97447822527E+01  0.51100000000E-03 0. -1.
        -11    1    4    4    0    0 -0.14502212327E+02 -0.22968076453E+02 -0.18215942188E+02  0.32705767815E+02  0.51100000000E-03 0.  1.
        -12    1    4    4    0    0  0.82752099726E+01 -0.85680583071E+01 -0.33521464726E+00  0.11916505029E+02  0.00000000000E+00 0.  1.
</event>
<event>
 8    1  0.1212194E-006  0.9118800E+02  0.7816164E-02  0.1184000E+00
        -11   -1    0    0    0    0  0.00000000000E+00  0.00000000000E+00  0.45593999997E+02  0.45594000000E+02  0.51100000000E-03 0.  1.
         11   -1    0    0    0    0 -0.00000000000E+00 -0.00000000000E+00 -0.45593999997E+02  0.45594000000E+02  0.51100000000E-03 0. -1.
         23    2    1    2    0    0  0.17763568394E-14 -0.35527136788E-14  0.00000000000E+00  0.91188000000E+02  0.91188000000E+02 0.  0.
    9900012    2    3    3    0    0 -0.15542558915E+02 -0.24075016431E+02  0.23121451919E+02  0.54367094354E+02  0.40000023198E+02 0.  0.
         12    1    3    3    0    0  0.15542558915E+02  0.24075016431E+02 -0.23121451919E+02  0.36820905646E+02  0.00000000000E+00 0. -1.
         11    1    4    4    0    0  0.29807912853E+01 -0.82741539013E+01  0.84787929876E+00  0.88354761635E+01  0.51100000000E-03 0. -1.
        -11    1    4    4    0    0 -0.28053667942E+01 -0.90965712548E+01 -0.68757285616E+01  0.11742799281E+02  0.51100000000E-03 0.  1.
        -12    1    4    4    0    0 -0.15717983406E+02 -0.67042912746E+01  0.29149301182E+02  0.33788818909E+02  0.00000000000E+00 0.  1.
</event>
<event>
 8    1  0.1212194E-006  0.9118800E+02  0.7816164E-02  0.1184000E+00
        -11   -1    0    0    0    0  0.00000000000E+00  0.00000000000E+00  0.45593999997E+02  0.45594000000E+02  0.51100000000E-03 0.  1.
         11   -1    0    0    0    0 -0.00000000000E+00 -0.00000000000E+00 -0.45593999997E+02  0.45594000000E+02  0.51100000000E-03 0. -1.
         23    2    1    2    0    0 -0.22204460493E-15  0.00000000000E+00  0.00000000000E+00  0.91188000000E+02  0.91188000000E+02 0.  0.
    9900012    2    3    3    0    0 -0.90668653625E+00 -0.12931624429E+02  0.34463471433E+02  0.54367084014E+02  0.39999999626E+02 0.  0.
         12    1    3    3    0    0  0.90668653625E+00  0.12931624429E+02 -0.34463471433E+02  0.36820915986E+02  0.00000000000E+00 0. -1.
         11    1    4    4    0    0 -0.56056258236E+01  0.83188708126E+01  0.45627713666E+01  0.11020232996E+02  0.51100000000E-03 0. -1.
        -11    1    4    4    0    0  0.15994801907E+01 -0.24971595149E+02  0.18999904790E+02  0.31418709131E+02  0.51100000000E-03 0.  1.
        -12    1    4    4    0    0  0.30994590966E+01  0.37210999079E+01  0.10900795277E+02  0.11928141887E+02  0.00000000000E+00 0.  1.
</event>
<event>
 8    1  0.1212194E-006  0.9118800E+02  0.7816164E-02  0.1184000E+00
        -11   -1    0    0    0    0  0.00000000000E+00  0.00000000000E+00  0.45593999997E+02  0.45594000000E+02  0.51100000000E-03 0. -1.
         11   -1    0    0    0    0 -0.00000000000E+00 -0.00000000000E+00 -0.45593999997E+02  0.45594000000E+02  0.51100000000E-03 0.  1.
         23    2    1    2    0    0  0.00000000000E+00  0.00000000000E+00  0.00000000000E+00  0.91188000000E+02  0.91188000000E+02 0.  0.
    9900012    2    3    3    0    0  0.25652649652E+02  0.18101091200E+02  0.19237267769E+02  0.54367076491E+02  0.39999982477E+02 0.  0.
         12    1    3    3    0    0 -0.25652649652E+02 -0.18101091200E+02 -0.19237267769E+02  0.36820923509E+02  0.00000000000E+00 0. -1.
         11    1    4    4    0    0 -0.13478402663E+01 -0.27134306034E+01 -0.43529633168E+01  0.53035524813E+01  0.51100000000E-03 0. -1.
        -11    1    4    4    0    0  0.26772894706E+02  0.67801559475E+01  0.95819576489E+01  0.29233068916E+02  0.51100000000E-03 0.  1.
        -12    1    4    4    0    0  0.22759521272E+00  0.14034365856E+02  0.14008273437E+02  0.19830455094E+02  0.00000000000E+00 0.  1.
</event>
<event>
 8    1  0.1212194E-006  0.9118800E+02  0.7816164E-02  0.1184000E+00
        -11   -1    0    0    0    0  0.00000000000E+00  0.00000000000E+00  0.45593999997E+02  0.45594000000E+02  0.51100000000E-03 0.  1.
         11   -1    0    0    0    0 -0.00000000000E+00 -0.00000000000E+00 -0.45593999997E+02  0.45594000000E+02  0.51100000000E-03 0. -1.
         23    2    1    2    0    0  0.44408920985E-15  0.35527136788E-14 -0.35527136788E-14  0.91188000000E+02  0.91188000000E+02 0.  0.
    9900012    2    3    3    0    0  0.22035394949E+01  0.21251644088E+02 -0.29988205875E+02  0.54367075862E+02  0.39999981043E+02 0.  0.
        -12    1    3    3    0    0 -0.22035394949E+01 -0.21251644088E+02  0.29988205875E+02  0.36820924138E+02  0.00000000000E+00 0.  1.
         11    1    4    4    0    0 -0.49413179272E+01  0.69257357239E+01 -0.46225519374E+01  0.96824803047E+01  0.51100000000E-03 0. -1.
        -11    1    4    4    0    0 -0.88220734397E+01  0.50768758521E+01  0.32067738937E+01  0.10671787444E+02  0.51100000000E-03 0.  1.
        -12    1    4    4    0    0  0.15966930862E+02  0.92490325123E+01 -0.28572427831E+02  0.34012808113E+02  0.00000000000E+00 0.  1.
</event>
<event>
 8    1  0.1212194E-006  0.9118800E+02  0.7816164E-02  0.1184000E+00
        -11   -1    0    0    0    0  0.00000000000E+00  0.00000000000E+00  0.45593999997E+02  0.45594000000E+02  0.51100000000E-03 0.  1.
         11   -1    0    0    0    0 -0.00000000000E+00 -0.00000000000E+00 -0.45593999997E+02  0.45594000000E+02  0.51100000000E-03 0. -1.
         23    2    1    2    0    0 -0.71054273576E-14  0.35527136788E-14  0.00000000000E+00  0.91188000000E+02  0.91188000000E+02 0.  0.
    9900012    2    3    3    0    0  0.34022642093E+02 -0.62875783732E+01  0.12597871964E+02  0.54367079387E+02  0.39999989078E+02 0.  0.
         12    1    3    3    0    0 -0.34022642093E+02  0.62875783732E+01 -0.12597871964E+02  0.36820920613E+02  0.00000000000E+00 0. -1.
         11    1    4    4    0    0  0.58397331666E+01  0.57016882127E+01  0.97869766596E+01  0.12743494196E+02  0.51100000000E-03 0. -1.
        -11    1    4    4    0    0  0.23117211085E+02  0.50940073240E+01  0.24873934620E+01  0.23802131952E+02  0.51100000000E-03 0.  1.
        -12    1    4    4    0    0  0.50656978416E+01 -0.17083273910E+02  0.32350184235E+00  0.17821453239E+02  0.00000000000E+00 0.  1.
</event>
<event>
 8    1  0.1212194E-006  0.9118800E+02  0.7816164E-02  0.1184000E+00
        -11   -1    0    0    0    0  0.00000000000E+00  0.00000000000E+00  0.45593999997E+02  0.45594000000E+02  0.51100000000E-03 0.  1.
         11   -1    0    0    0    0 -0.00000000000E+00 -0.00000000000E+00 -0.45593999997E+02  0.45594000000E+02  0.51100000000E-03 0. -1.
         23    2    1    2    0    0  0.00000000000E+00 -0.88817841970E-15 -0.18873791419E-14  0.91188000000E+02  0.91188000000E+02 0.  0.
    9900012    2    3    3    0    0  0.35973918771E+02 -0.77891956425E+01 -0.98973444613E+00  0.54367163850E+02  0.40000181628E+02 0.  0.
         12    1    3    3    0    0 -0.35973918771E+02  0.77891956425E+01  0.98973444613E+00  0.36820836150E+02  0.00000000000E+00 0. -1.
         11    1    4    4    0    0 -0.26609296972E+01 -0.45624790374E+01  0.27264378329E+01  0.59439233960E+01  0.51100000000E-03 0. -1.
        -11    1    4    4    0    0  0.32000464634E+02  0.81394404726E+00  0.92392021981E+01  0.33317489390E+02  0.51100000000E-03 0.  1.
        -12    1    4    4    0    0  0.66343838343E+01 -0.40406606524E+01 -0.12955374477E+02  0.15105751064E+02  0.00000000000E+00 0.  1.
</event>
<event>
 8    1  0.1212194E-006  0.9118800E+02  0.7816164E-02  0.1184000E+00
        -11   -1    0    0    0    0  0.00000000000E+00  0.00000000000E+00  0.45593999997E+02  0.45594000000E+02  0.51100000000E-03 0.  1.
         11   -1    0    0    0    0 -0.00000000000E+00 -0.00000000000E+00 -0.45593999997E+02  0.45594000000E+02  0.51100000000E-03 0. -1.
         23    2    1    2    0    0  0.00000000000E+00  0.00000000000E+00  0.35527136788E-14  0.91188000000E+02  0.91188000000E+02 0.  0.
    9900012    2    3    3    0    0  0.30984890967E+02 -0.86888482467E+01  0.17894605513E+02  0.54367130123E+02  0.40000104741E+02 0.  0.
         12    1    3    3    0    0 -0.30984890967E+02  0.86888482467E+01 -0.17894605513E+02  0.36820869877E+02  0.00000000000E+00 0. -1.
         11    1    4    4    0    0  0.32673058295E+02 -0.11320485497E+02  0.91803541997E+01  0.35776543066E+02  0.51100000000E-03 0. -1.
        -11    1    4    4    0    0  0.62789559056E+01  0.38855188965E+01  0.73357357912E+01  0.10408437165E+02  0.51100000000E-03 0.  1.
         12    1    4    4    0    0 -0.79671232341E+01 -0.12538816462E+01  0.13785155216E+01  0.81821498919E+01  0.00000000000E+00 0. -1.
</event>
<event>
 8    1  0.1212194E-006  0.9118800E+02  0.7816164E-02  0.1184000E+00
        -11   -1    0    0    0    0  0.00000000000E+00  0.00000000000E+00  0.45593999997E+02  0.45594000000E+02  0.51100000000E-03 0.  1.
         11   -1    0    0    0    0 -0.00000000000E+00 -0.00000000000E+00 -0.45593999997E+02  0.45594000000E+02  0.51100000000E-03 0. -1.
         23    2    1    2    0    0  0.00000000000E+00  0.00000000000E+00  0.00000000000E+00  0.91188000000E+02  0.91188000000E+02 0.  0.
    9900012    2    3    3    0    0  0.20110959778E+02  0.23958611877E+02 -0.19424573533E+02  0.54367084161E+02  0.39999999962E+02 0.  0.
        -12    1    3    3    0    0 -0.20110959778E+02 -0.23958611877E+02  0.19424573533E+02  0.36820915839E+02  0.00000000000E+00 0.  1.
         11    1    4    4    0    0  0.15751483477E+02  0.17151282019E+02 -0.15454527741E+02  0.27948490738E+02  0.51100000000E-03 0. -1.
        -11    1    4    4    0    0 -0.59158069875E+01  0.10316442006E+02 -0.85370774613E+01  0.14639243144E+02  0.51100000000E-03 0.  1.
         12    1    4    4    0    0  0.10275283289E+02 -0.35091121478E+01  0.45670316684E+01  0.11779350279E+02  0.00000000000E+00 0. -1.
</event>
<event>
 8    1  0.1212194E-006  0.9118800E+02  0.7816164E-02  0.1184000E+00
        -11   -1    0    0    0    0  0.00000000000E+00  0.00000000000E+00  0.45593999997E+02  0.45594000000E+02  0.51100000000E-03 0.  1.
         11   -1    0    0    0    0 -0.00000000000E+00 -0.00000000000E+00 -0.45593999997E+02  0.45594000000E+02  0.51100000000E-03 0. -1.
         23    2    1    2    0    0  0.00000000000E+00  0.35527136788E-14 -0.17763568394E-14  0.91188000000E+02  0.91188000000E+02 0.  0.
    9900012    2    3    3    0    0 -0.24956666821E+02 -0.22245154880E+02  0.15430370398E+02  0.54367102875E+02  0.40000042625E+02 0.  0.
         12    1    3    3    0    0  0.24956666821E+02  0.22245154880E+02 -0.15430370398E+02  0.36820897125E+02  0.00000000000E+00 0. -1.
         11    1    4    4    0    0 -0.24174267685E+02 -0.12674706767E+02  0.96087487811E+01  0.28937371393E+02  0.51100000000E-03 0. -1.
        -11    1    4    4    0    0  0.35871654934E+01 -0.14116171261E+02 -0.27162803152E+01  0.14815945004E+02  0.51100000000E-03 0.  1.
        -12    1    4    4    0    0 -0.43695646297E+01  0.45457231486E+01  0.85379019326E+01  0.10613786478E+02  0.00000000000E+00 0.  1.
</event>
<event>
 8    1  0.1212194E-006  0.9118800E+02  0.7816164E-02  0.1184000E+00
        -11   -1    0    0    0    0  0.00000000000E+00  0.00000000000E+00  0.45593999997E+02  0.45594000000E+02  0.51100000000E-03 0. -1.
         11   -1    0    0    0    0 -0.00000000000E+00 -0.00000000000E+00 -0.45593999997E+02  0.45594000000E+02  0.51100000000E-03 0.  1.
         23    2    1    2    0    0  0.71054273576E-14  0.00000000000E+00  0.00000000000E+00  0.91188000000E+02  0.91188000000E+02 0.  0.
    9900012    2    3    3    0    0  0.23707697493E+02 -0.28158705871E+02  0.90062393462E+00  0.54367098867E+02  0.40000033487E+02 0.  0.
         12    1    3    3    0    0 -0.23707697493E+02  0.28158705871E+02 -0.90062393462E+00  0.36820901133E+02  0.00000000000E+00 0. -1.
         11    1    4    4    0    0 -0.36991113396E+01  0.46284361897E+01  0.20031767282E+01  0.62544834743E+01  0.51100000000E-03 0. -1.
        -11    1    4    4    0    0 -0.10506283124E+01  0.17756548514E+01 -0.25972572507E+01  0.33170039930E+01  0.51100000000E-03 0.  1.
         12    1    4    4    0    0  0.28457437145E+02 -0.34562796912E+02  0.14947044571E+01  0.44795611400E+02  0.00000000000E+00 0. -1.
</event>
<event>
 8    1  0.1212194E-006  0.9118800E+02  0.7816164E-02  0.1184000E+00
        -11   -1    0    0    0    0  0.00000000000E+00  0.00000000000E+00  0.45593999997E+02  0.45594000000E+02  0.51100000000E-03 0.  1.
         11   -1    0    0    0    0 -0.00000000000E+00 -0.00000000000E+00 -0.45593999997E+02  0.45594000000E+02  0.51100000000E-03 0. -1.
         23    2    1    2    0    0  0.00000000000E+00  0.35527136788E-14  0.00000000000E+00  0.91188000000E+02  0.91188000000E+02 0.  0.
    9900012    2    3    3    0    0 -0.40242866856E+01  0.73421956488E+01  0.35856338721E+02  0.54367085471E+02  0.40000002947E+02 0.  0.
         12    1    3    3    0    0  0.40242866856E+01 -0.73421956488E+01 -0.35856338721E+02  0.36820914529E+02  0.00000000000E+00 0. -1.
         11    1    4    4    0    0 -0.15268634230E+02 -0.86902907713E+01  0.26382752203E+02  0.31697033915E+02  0.51100000000E-03 0. -1.
        -11    1    4    4    0    0  0.11905293780E+02  0.13916944956E+02  0.89883451616E+01  0.20401169719E+02  0.51100000000E-03 0.  1.
         12    1    4    4    0    0 -0.66094623600E+00  0.21155414642E+01  0.48524135697E+00  0.22688818365E+01  0.00000000000E+00 0. -1.
</event>
<event>
 8    1  0.1212194E-006  0.9118800E+02  0.7816164E-02  0.1184000E+00
        -11   -1    0    0    0    0  0.00000000000E+00  0.00000000000E+00  0.45593999997E+02  0.45594000000E+02  0.51100000000E-03 0. -1.
         11   -1    0    0    0    0 -0.00000000000E+00 -0.00000000000E+00 -0.45593999997E+02  0.45594000000E+02  0.51100000000E-03 0.  1.
         23    2    1    2    0    0 -0.88817841970E-15  0.35527136788E-14  0.00000000000E+00  0.91188000000E+02  0.91188000000E+02 0.  0.
    9900012    2    3    3    0    0 -0.69284700497E+01  0.31127202706E+02  0.18408503172E+02  0.54367089710E+02  0.40000012612E+02 0.  0.
        -12    1    3    3    0    0  0.69284700497E+01 -0.31127202706E+02 -0.18408503172E+02  0.36820910290E+02  0.00000000000E+00 0.  1.
         11    1    4    4    0    0 -0.65719737817E+01  0.14080240040E+02  0.33080909864E+01  0.15886707186E+02  0.51100000000E-03 0. -1.
        -11    1    4    4    0    0 -0.15196853620E+02  0.65976672202E+01  0.10958945719E+02  0.19863838104E+02  0.51100000000E-03 0.  1.
        -12    1    4    4    0    0  0.14840357352E+02  0.10449295446E+02  0.41414664663E+01  0.18616544420E+02  0.00000000000E+00 0.  1.
</event>
<event>
 8    1  0.1212194E-006  0.9118800E+02  0.7816164E-02  0.1184000E+00
        -11   -1    0    0    0    0  0.00000000000E+00  0.00000000000E+00  0.45593999997E+02  0.45594000000E+02  0.51100000000E-03 0. -1.
         11   -1    0    0    0    0 -0.00000000000E+00 -0.00000000000E+00 -0.45593999997E+02  0.45594000000E+02  0.51100000000E-03 0.  1.
         23    2    1    2    0    0  0.35527136788E-14  0.00000000000E+00 -0.35527136788E-14  0.91188000000E+02  0.91188000000E+02 0.  0.
    9900012    2    3    3    0    0 -0.13216707396E+02  0.19592928306E+02  0.28235023663E+02  0.54367071777E+02  0.39999971729E+02 0.  0.
        -12    1    3    3    0    0  0.13216707396E+02 -0.19592928306E+02 -0.28235023663E+02  0.36820928223E+02  0.00000000000E+00 0.  1.
         11    1    4    4    0    0  0.13449578566E+02  0.79841166645E+01  0.10127605885E+02  0.18633456033E+02  0.51100000000E-03 0. -1.
        -11    1    4    4    0    0 -0.16611883697E+02  0.47101180828E+01  0.53277156427E+01  0.18069987453E+02  0.51100000000E-03 0.  1.
         12    1    4    4    0    0 -0.10054402264E+02  0.68986935586E+01  0.12779702135E+02  0.17663628290E+02  0.00000000000E+00 0. -1.
</event>
<event>
 8    1  0.1212194E-006  0.9118800E+02  0.7816164E-02  0.1184000E+00
        -11   -1    0    0    0    0  0.00000000000E+00  0.00000000000E+00  0.45593999997E+02  0.45594000000E+02  0.51100000000E-03 0.  1.
         11   -1    0    0    0    0 -0.00000000000E+00 -0.00000000000E+00 -0.45593999997E+02  0.45594000000E+02  0.51100000000E-03 0. -1.
         23    2    1    2    0    0  0.00000000000E+00  0.00000000000E+00  0.00000000000E+00  0.91188000000E+02  0.91188000000E+02 0.  0.
    9900012    2    3    3    0    0 -0.85642871876E+01  0.69902708324E+01  0.35122395184E+02  0.54366898104E+02  0.39999575807E+02 0.  0.
         12    1    3    3    0    0  0.85642871876E+01 -0.69902708324E+01 -0.35122395184E+02  0.36821101896E+02  0.00000000000E+00 0. -1.
         11    1    4    4    0    0  0.73411578529E+01  0.47820045062E+01 -0.43551112355E+01  0.97840257488E+01  0.51100000000E-03 0. -1.
        -11    1    4    4    0    0 -0.13303901080E+02  0.70995239604E+01  0.30692568498E+02  0.34196941175E+02  0.51100000000E-03 0.  1.
        -12    1    4    4    0    0 -0.26015439608E+01 -0.48912576342E+01  0.87849379210E+01  0.10385931181E+02  0.00000000000E+00 0.  1.
</event>
<event>
 8    1  0.1212194E-006  0.9118800E+02  0.7816164E-02  0.1184000E+00
        -11   -1    0    0    0    0  0.00000000000E+00  0.00000000000E+00  0.45593999997E+02  0.45594000000E+02  0.51100000000E-03 0. -1.
         11   -1    0    0    0    0 -0.00000000000E+00 -0.00000000000E+00 -0.45593999997E+02  0.45594000000E+02  0.51100000000E-03 0.  1.
         23    2    1    2    0    0  0.00000000000E+00  0.00000000000E+00  0.00000000000E+00  0.91188000000E+02  0.91188000000E+02 0.  0.
    9900012    2    3    3    0    0  0.10626437388E+02  0.17922334214E+02 -0.30358666268E+02  0.54367084031E+02  0.39999999664E+02 0.  0.
         12    1    3    3    0    0 -0.10626437388E+02 -0.17922334214E+02  0.30358666268E+02  0.36820915969E+02  0.00000000000E+00 0. -1.
         11    1    4    4    0    0  0.26522591871E+01  0.41501161349E+00  0.57672928981E+01  0.63614763278E+01  0.51100000000E-03 0. -1.
        -11    1    4    4    0    0  0.13997170925E+02  0.26858177117E+01 -0.24069825652E+02  0.27973039125E+02  0.51100000000E-03 0.  1.
        -12    1    4    4    0    0 -0.60229927237E+01  0.14821504889E+02 -0.12056133514E+02  0.20032568578E+02  0.00000000000E+00 0.  1.
</event>
<event>
 8    1  0.1212194E-006  0.9118800E+02  0.7816164E-02  0.1184000E+00
        -11   -1    0    0    0    0  0.00000000000E+00  0.00000000000E+00  0.45593999997E+02  0.45594000000E+02  0.51100000000E-03 0.  1.
         11   -1    0    0    0    0 -0.00000000000E+00 -0.00000000000E+00 -0.45593999997E+02  0.45594000000E+02  0.51100000000E-03 0. -1.
         23    2    1    2    0    0  0.17763568394E-14  0.35527136788E-14  0.35527136788E-14  0.91188000000E+02  0.91188000000E+02 0.  0.
    9900012    2    3    3    0    0  0.85157281552E+01 -0.31093013826E+02 -0.17790047492E+02  0.54367096635E+02  0.40000028400E+02 0.  0.
         12    1    3    3    0    0 -0.85157281552E+01  0.31093013826E+02  0.17790047492E+02  0.36820903365E+02  0.00000000000E+00 0. -1.
         11    1    4    4    0    0 -0.25102529658E+00 -0.15184088157E+02 -0.18676554307E+02  0.24071419316E+02  0.51100000000E-03 0. -1.
        -11    1    4    4    0    0  0.16967215386E+02 -0.13575940703E+02  0.12102305824E+01  0.21763667482E+02  0.51100000000E-03 0.  1.
         12    1    4    4    0    0 -0.82004619343E+01 -0.23329849672E+01 -0.32372376724E+00  0.85320098377E+01  0.00000000000E+00 0. -1.
</event>
<event>
 8    1  0.1212194E-006  0.9118800E+02  0.7816164E-02  0.1184000E+00
        -11   -1    0    0    0    0  0.00000000000E+00  0.00000000000E+00  0.45593999997E+02  0.45594000000E+02  0.51100000000E-03 0. -1.
         11   -1    0    0    0    0 -0.00000000000E+00 -0.00000000000E+00 -0.45593999997E+02  0.45594000000E+02  0.51100000000E-03 0.  1.
         23    2    1    2    0    0  0.00000000000E+00  0.00000000000E+00  0.00000000000E+00  0.91188000000E+02  0.91188000000E+02 0.  0.
    9900012    2    3    3    0    0  0.83847941064E+01  0.80672744163E+01 -0.34934204920E+02  0.54367022798E+02  0.39999860073E+02 0.  0.
         12    1    3    3    0    0 -0.83847941064E+01 -0.80672744163E+01  0.34934204920E+02  0.36820977202E+02  0.00000000000E+00 0. -1.
         11    1    4    4    0    0  0.86242851835E+01  0.78951143566E+01  0.31534437948E+01  0.12110133511E+02  0.51100000000E-03 0. -1.
        -11    1    4    4    0    0  0.55184018649E+01  0.29834861037E+01 -0.34181869199E+02  0.34752757166E+02  0.51100000000E-03 0.  1.
         12    1    4    4    0    0 -0.57578929420E+01 -0.28113260440E+01 -0.39057795158E+01  0.75041321206E+01  0.00000000000E+00 0. -1.
</event>
<event>
 8    1  0.1212194E-006  0.9118800E+02  0.7816164E-02  0.1184000E+00
        -11   -1    0    0    0    0  0.00000000000E+00  0.00000000000E+00  0.45593999997E+02  0.45594000000E+02  0.51100000000E-03 0.  1.
         11   -1    0    0    0    0 -0.00000000000E+00 -0.00000000000E+00 -0.45593999997E+02  0.45594000000E+02  0.51100000000E-03 0. -1.
         23    2    1    2    0    0 -0.44408920985E-15  0.13322676296E-14  0.00000000000E+00  0.91188000000E+02  0.91188000000E+02 0.  0.
    9900012    2    3    3    0    0  0.25537942591E+01  0.39112273812E+01 -0.36523421683E+02  0.54367083442E+02  0.39999998323E+02 0.  0.
        -12    1    3    3    0    0 -0.25537942591E+01 -0.39112273812E+01  0.36523421683E+02  0.36820916558E+02  0.00000000000E+00 0.  1.
         11    1    4    4    0    0  0.23749301490E+01  0.14297584722E+02 -0.14847688183E+02  0.20748856999E+02  0.51100000000E-03 0. -1.
        -11    1    4    4    0    0  0.93302069120E+01 -0.11209392247E+02 -0.19183547410E+02  0.24097961056E+02  0.51100000000E-03 0.  1.
         12    1    4    4    0    0 -0.91513428019E+01  0.82303490579E+00 -0.24921860894E+01  0.95202653869E+01  0.00000000000E+00 0. -1.
</event>
<event>
 8    1  0.1212194E-006  0.9118800E+02  0.7816164E-02  0.1184000E+00
        -11   -1    0    0    0    0  0.00000000000E+00  0.00000000000E+00  0.45593999997E+02  0.45594000000E+02  0.51100000000E-03 0. -1.
         11   -1    0    0    0    0 -0.00000000000E+00 -0.00000000000E+00 -0.45593999997E+02  0.45594000000E+02  0.51100000000E-03 0.  1.
         23    2    1    2    0    0 -0.66613381478E-15  0.00000000000E+00  0.00000000000E+00  0.91188000000E+02  0.91188000000E+02 0.  0.
    9900012    2    3    3    0    0 -0.10226018842E+01 -0.17219277924E+02 -0.32530566557E+02  0.54366986878E+02  0.39999778185E+02 0.  0.
         12    1    3    3    0    0  0.10226018842E+01  0.17219277924E+02  0.32530566557E+02  0.36821013122E+02  0.00000000000E+00 0. -1.
         11    1    4    4    0    0 -0.64747004390E+01 -0.85502264985E+01 -0.24413020972E+01  0.10999457948E+02  0.51100000000E-03 0. -1.
        -11    1    4    4    0    0  0.12477837151E+02 -0.79257051412E+01 -0.32659896801E+02  0.35849436276E+02  0.51100000000E-03 0.  1.
         12    1    4    4    0    0 -0.70257385966E+01 -0.74334628382E+00  0.25706323416E+01  0.75180926545E+01  0.00000000000E+00 0. -1.
</event>
<event>
 8    1  0.1212194E-006  0.9118800E+02  0.7816164E-02  0.1184000E+00
        -11   -1    0    0    0    0  0.00000000000E+00  0.00000000000E+00  0.45593999997E+02  0.45594000000E+02  0.51100000000E-03 0.  1.
         11   -1    0    0    0    0 -0.00000000000E+00 -0.00000000000E+00 -0.45593999997E+02  0.45594000000E+02  0.51100000000E-03 0. -1.
         23    2    1    2    0    0 -0.19984014443E-14  0.00000000000E+00  0.35527136788E-14  0.91188000000E+02  0.91188000000E+02 0.  0.
    9900012    2    3    3    0    0  0.13587791890E+01  0.31762078203E+02  0.18576983410E+02  0.54367079244E+02  0.39999988753E+02 0.  0.
         12    1    3    3    0    0 -0.13587791890E+01 -0.31762078203E+02 -0.18576983410E+02  0.36820920756E+02  0.00000000000E+00 0. -1.
         11    1    4    4    0    0 -0.90807410438E+01  0.56181590458E+01 -0.53555344247E+01  0.11945933124E+02  0.51100000000E-03 0.  1.
        -11    1    4    4    0    0  0.73099652328E+01 -0.19851055053E+00  0.10494997509E+01  0.73875874365E+01  0.51100000000E-03 0. -1.
        -12    1    4    4    0    0  0.31295550000E+01  0.26342429708E+02  0.22883018084E+02  0.35033558684E+02  0.00000000000E+00 0.  1.
</event>
<event>
 8    1  0.1212194E-006  0.9118800E+02  0.7816164E-02  0.1184000E+00
        -11   -1    0    0    0    0  0.00000000000E+00  0.00000000000E+00  0.45593999997E+02  0.45594000000E+02  0.51100000000E-03 0. -1.
         11   -1    0    0    0    0 -0.00000000000E+00 -0.00000000000E+00 -0.45593999997E+02  0.45594000000E+02  0.51100000000E-03 0.  1.
         23    2    1    2    0    0  0.00000000000E+00  0.00000000000E+00 -0.17763568394E-14  0.91188000000E+02  0.91188000000E+02 0.  0.
    9900012    2    3    3    0    0 -0.31822539918E+02  0.14187908626E+02  0.11908357687E+02  0.54367085008E+02  0.40000001893E+02 0.  0.
        -12    1    3    3    0    0  0.31822539918E+02 -0.14187908626E+02 -0.11908357687E+02  0.36820914992E+02  0.00000000000E+00 0.  1.
         11    1    4    4    0    0 -0.54372365678E+01  0.23455813620E+01  0.14616564909E+02  0.15770518806E+02  0.51100000000E-03 0.  1.
        -11    1    4    4    0    0 -0.11537347618E+02  0.94912536378E+01  0.10761335872E+02  0.18411969902E+02  0.51100000000E-03 0. -1.
        -12    1    4    4    0    0 -0.14847955733E+02  0.23510736259E+01 -0.13469543094E+02  0.20184596300E+02  0.00000000000E+00 0.  1.
</event>
<event>
 8    1  0.1212194E-006  0.9118800E+02  0.7816164E-02  0.1184000E+00
        -11   -1    0    0    0    0  0.00000000000E+00  0.00000000000E+00  0.45593999997E+02  0.45594000000E+02  0.51100000000E-03 0.  1.
         11   -1    0    0    0    0 -0.00000000000E+00 -0.00000000000E+00 -0.45593999997E+02  0.45594000000E+02  0.51100000000E-03 0. -1.
         23    2    1    2    0    0  0.00000000000E+00  0.00000000000E+00  0.00000000000E+00  0.91188000000E+02  0.91188000000E+02 0.  0.
    9900012    2    3    3    0    0  0.30096410208E+02  0.11844110883E+02 -0.17598379557E+02  0.54367084299E+02  0.40000000276E+02 0.  0.
        -12    1    3    3    0    0 -0.30096410208E+02 -0.11844110883E+02  0.17598379557E+02  0.36820915701E+02  0.00000000000E+00 0.  1.
         11    1    4    4    0    0  0.85311334378E+01 -0.23751719155E+01 -0.21311456010E+02  0.23078124640E+02  0.51100000000E-03 0. -1.
        -11    1    4    4    0    0  0.17781807858E+02  0.16476012020E+02  0.76093668047E+01  0.25407757206E+02  0.51100000000E-03 0.  1.
         12    1    4    4    0    0  0.37834689120E+01 -0.22567292214E+01 -0.38962903518E+01  0.58812024529E+01  0.00000000000E+00 0. -1.
</event>
<event>
 8    1  0.1212194E-006  0.9118800E+02  0.7816164E-02  0.1184000E+00
        -11   -1    0    0    0    0  0.00000000000E+00  0.00000000000E+00  0.45593999997E+02  0.45594000000E+02  0.51100000000E-03 0.  1.
         11   -1    0    0    0    0 -0.00000000000E+00 -0.00000000000E+00 -0.45593999997E+02  0.45594000000E+02  0.51100000000E-03 0. -1.
         23    2    1    2    0    0  0.00000000000E+00  0.00000000000E+00  0.00000000000E+00  0.91188000000E+02  0.91188000000E+02 0.  0.
    9900012    2    3    3    0    0  0.11313691290E+02 -0.23456154419E+02 -0.26030546031E+02  0.54367080438E+02  0.39999991475E+02 0.  0.
        -12    1    3    3    0    0 -0.11313691290E+02  0.23456154419E+02  0.26030546031E+02  0.36820919562E+02  0.00000000000E+00 0.  1.
         11    1    4    4    0    0  0.12080178046E+02 -0.17090835231E+02 -0.25159822895E+02  0.32726809176E+02  0.51100000000E-03 0. -1.
        -11    1    4    4    0    0  0.14878883275E-01 -0.53314986887E+01  0.96581245867E+01  0.11031974911E+02  0.51100000000E-03 0.  1.
        -12    1    4    4    0    0 -0.78136563962E+00 -0.10338204991E+01 -0.10528847723E+02  0.10608296351E+02  0.00000000000E+00 0.  1.
</event>
<event>
 8    1  0.1212194E-006  0.9118800E+02  0.7816164E-02  0.1184000E+00
        -11   -1    0    0    0    0  0.00000000000E+00  0.00000000000E+00  0.45593999997E+02  0.45594000000E+02  0.51100000000E-03 0. -1.
         11   -1    0    0    0    0 -0.00000000000E+00 -0.00000000000E+00 -0.45593999997E+02  0.45594000000E+02  0.51100000000E-03 0.  1.
         23    2    1    2    0    0 -0.17763568394E-14 -0.35527136788E-14  0.35527136788E-14  0.91188000000E+02  0.91188000000E+02 0.  0.
    9900012    2    3    3    0    0  0.90314190551E+01  0.30956562760E+02  0.17773699021E+02  0.54367086310E+02  0.40000004861E+02 0.  0.
         12    1    3    3    0    0 -0.90314190551E+01 -0.30956562760E+02 -0.17773699021E+02  0.36820913690E+02  0.00000000000E+00 0. -1.
         11    1    4    4    0    0 -0.93954137389E+01  0.91738201688E+01 -0.17038978800E+01  0.13241451735E+02  0.51100000000E-03 0. -1.
        -11    1    4    4    0    0 -0.51602173966E+01  0.28046764822E+01  0.41593158419E+01  0.71968022263E+01  0.51100000000E-03 0.  1.
         12    1    4    4    0    0  0.23587050191E+02  0.18978066109E+02  0.15318281059E+02  0.33928832349E+02  0.00000000000E+00 0. -1.
</event>
<event>
 8    1  0.1212194E-006  0.9118800E+02  0.7816164E-02  0.1184000E+00
        -11   -1    0    0    0    0  0.00000000000E+00  0.00000000000E+00  0.45593999997E+02  0.45594000000E+02  0.51100000000E-03 0.  1.
         11   -1    0    0    0    0 -0.00000000000E+00 -0.00000000000E+00 -0.45593999997E+02  0.45594000000E+02  0.51100000000E-03 0. -1.
         23    2    1    2    0    0 -0.17763568394E-14 -0.35527136788E-14  0.00000000000E+00  0.91188000000E+02  0.91188000000E+02 0.  0.
    9900012    2    3    3    0    0 -0.15587543768E+02 -0.28111624037E+02  0.17959543247E+02  0.54367080398E+02  0.39999991383E+02 0.  0.
         12    1    3    3    0    0  0.15587543768E+02  0.28111624037E+02 -0.17959543247E+02  0.36820919602E+02  0.00000000000E+00 0. -1.
         11    1    4    4    0    0 -0.12050938554E+02 -0.59240577132E+01  0.22183973088E+01  0.13610322064E+02  0.51100000000E-03 0.  1.
        -11    1    4    4    0    0 -0.37711842855E+01 -0.46358618334E+01 -0.87675762366E+01  0.10610534349E+02  0.51100000000E-03 0. -1.
        -12    1    4    4    0    0  0.23457907107E+00 -0.17551704490E+02  0.24508722175E+02  0.30146223984E+02  0.00000000000E+00 0.  1.
</event>
<event>
 8    1  0.1212194E-006  0.9118800E+02  0.7816164E-02  0.1184000E+00
        -11   -1    0    0    0    0  0.00000000000E+00  0.00000000000E+00  0.45593999997E+02  0.45594000000E+02  0.51100000000E-03 0.  1.
         11   -1    0    0    0    0 -0.00000000000E+00 -0.00000000000E+00 -0.45593999997E+02  0.45594000000E+02  0.51100000000E-03 0. -1.
         23    2    1    2    0    0 -0.88817841970E-15  0.26645352591E-14 -0.71054273576E-14  0.91188000000E+02  0.91188000000E+02 0.  0.
    9900012    2    3    3    0    0  0.76104450428E+01 -0.51665246995E+01  0.35653445522E+02  0.54367081641E+02  0.39999994216E+02 0.  0.
         12    1    3    3    0    0 -0.76104450428E+01  0.51665246995E+01 -0.35653445522E+02  0.36820918359E+02  0.00000000000E+00 0. -1.
         11    1    4    4    0    0  0.77198054923E+01 -0.12279813343E+01 -0.45662692247E+00  0.78301879545E+01  0.51100000000E-03 0. -1.
        -11    1    4    4    0    0 -0.77051890267E+01  0.10450599813E+02  0.17952095462E+02  0.22155421596E+02  0.51100000000E-03 0.  1.
        -12    1    4    4    0    0  0.75958285772E+01 -0.14389143178E+02  0.18157976983E+02  0.24381472090E+02  0.00000000000E+00 0.  1.
</event>
<event>
 8    1  0.1212194E-006  0.9118800E+02  0.7816164E-02  0.1184000E+00
        -11   -1    0    0    0    0  0.00000000000E+00  0.00000000000E+00  0.45593999997E+02  0.45594000000E+02  0.51100000000E-03 0. -1.
         11   -1    0    0    0    0 -0.00000000000E+00 -0.00000000000E+00 -0.45593999997E+02  0.45594000000E+02  0.51100000000E-03 0.  1.
         23    2    1    2    0    0  0.00000000000E+00  0.35527136788E-14 -0.35527136788E-14  0.91188000000E+02  0.91188000000E+02 0.  0.
    9900012    2    3    3    0    0 -0.23531086214E+02 -0.19411391078E+02  0.20621988398E+02  0.54367074869E+02  0.39999978779E+02 0.  0.
        -12    1    3    3    0    0  0.23531086214E+02  0.19411391078E+02 -0.20621988398E+02  0.36820925131E+02  0.00000000000E+00 0.  1.
         11    1    4    4    0    0 -0.15736221072E+02  0.39271890396E+01  0.16416941301E+02  0.23077422502E+02  0.51100000000E-03 0.  1.
        -11    1    4    4    0    0 -0.10513906464E+02 -0.10847578346E+02  0.90600576054E+01  0.17615244227E+02  0.51100000000E-03 0. -1.
        -12    1    4    4    0    0  0.27190413218E+01 -0.12491001772E+02 -0.48550105078E+01  0.13674408141E+02  0.00000000000E+00 0.  1.
</event>
<event>
 8    1  0.1212194E-006  0.9118800E+02  0.7816164E-02  0.1184000E+00
        -11   -1    0    0    0    0  0.00000000000E+00  0.00000000000E+00  0.45593999997E+02  0.45594000000E+02  0.51100000000E-03 0.  1.
         11   -1    0    0    0    0 -0.00000000000E+00 -0.00000000000E+00 -0.45593999997E+02  0.45594000000E+02  0.51100000000E-03 0. -1.
         23    2    1    2    0    0 -0.71054273576E-14  0.00000000000E+00 -0.88817841970E-15  0.91188000000E+02  0.91188000000E+02 0.  0.
    9900012    2    3    3    0    0  0.35783148299E+02  0.86050248273E+01 -0.11443874186E+01  0.54366949268E+02  0.39999692445E+02 0.  0.
        -12    1    3    3    0    0 -0.35783148299E+02 -0.86050248273E+01  0.11443874186E+01  0.36821050732E+02  0.00000000000E+00 0.  1.
         11    1    4    4    0    0 -0.66102606853E+00  0.27797343508E+00  0.72698724238E+01  0.73051536611E+01  0.51100000000E-03 0.  1.
        -11    1    4    4    0    0  0.40637383258E+02  0.93793579814E+01 -0.90932866677E+01  0.42685561222E+02  0.51100000000E-03 0. -1.
         12    1    4    4    0    0 -0.41932088906E+01 -0.10523065893E+01  0.67902682532E+00  0.43762343845E+01  0.00000000000E+00 0. -1.
</event>
<event>
 8    1  0.1212194E-006  0.9118800E+02  0.7816164E-02  0.1184000E+00
        -11   -1    0    0    0    0  0.00000000000E+00  0.00000000000E+00  0.45593999997E+02  0.45594000000E+02  0.51100000000E-03 0. -1.
         11   -1    0    0    0    0 -0.00000000000E+00 -0.00000000000E+00 -0.45593999997E+02  0.45594000000E+02  0.51100000000E-03 0.  1.
         23    2    1    2    0    0  0.00000000000E+00  0.17763568394E-14  0.00000000000E+00  0.91188000000E+02  0.91188000000E+02 0.  0.
    9900012    2    3    3    0    0 -0.33857514067E+02 -0.12905621135E+02  0.65493679897E+01  0.54367074744E+02  0.39999978493E+02 0.  0.
        -12    1    3    3    0    0  0.33857514067E+02  0.12905621135E+02 -0.65493679897E+01  0.36820925256E+02  0.00000000000E+00 0.  1.
         11    1    4    4    0    0 -0.31167287365E+01  0.90459010478E+01  0.12666000770E+02  0.15873559763E+02  0.51100000000E-03 0. -1.
        -11    1    4    4    0    0 -0.24295049453E+02 -0.17607157272E+02 -0.31330693478E+01  0.30167491426E+02  0.51100000000E-03 0.  1.
         12    1    4    4    0    0 -0.64457358774E+01 -0.43443649105E+01 -0.29835634324E+01  0.83260235546E+01  0.00000000000E+00 0. -1.
</event>
<event>
 8    1  0.1212194E-006  0.9118800E+02  0.7816164E-02  0.1184000E+00
        -11   -1    0    0    0    0  0.00000000000E+00  0.00000000000E+00  0.45593999997E+02  0.45594000000E+02  0.51100000000E-03 0.  1.
         11   -1    0    0    0    0 -0.00000000000E+00 -0.00000000000E+00 -0.45593999997E+02  0.45594000000E+02  0.51100000000E-03 0. -1.
         23    2    1    2    0    0 -0.17763568394E-14  0.17763568394E-14 -0.71054273576E-14  0.91188000000E+02  0.91188000000E+02 0.  0.
    9900012    2    3    3    0    0  0.14023635305E+02 -0.11056444349E+02  0.32200547817E+02  0.54367046882E+02  0.39999914976E+02 0.  0.
         12    1    3    3    0    0 -0.14023635305E+02  0.11056444349E+02 -0.32200547817E+02  0.36820953118E+02  0.00000000000E+00 0. -1.
         11    1    4    4    0    0  0.60778747705E+01 -0.29923948506E+01  0.13937224311E+02  0.15496490261E+02  0.51100000000E-03 0.  1.
        -11    1    4    4    0    0  0.11229909470E+02  0.33294611382E+00  0.25136638435E+02  0.27533113008E+02  0.51100000000E-03 0. -1.
         12    1    4    4    0    0 -0.32841489360E+01 -0.83969956126E+01 -0.68733149287E+01  0.11337443612E+02  0.00000000000E+00 0. -1.
</event>
<event>
 8    1  0.1212194E-006  0.9118800E+02  0.7816164E-02  0.1184000E+00
        -11   -1    0    0    0    0  0.00000000000E+00  0.00000000000E+00  0.45593999997E+02  0.45594000000E+02  0.51100000000E-03 0.  1.
         11   -1    0    0    0    0 -0.00000000000E+00 -0.00000000000E+00 -0.45593999997E+02  0.45594000000E+02  0.51100000000E-03 0. -1.
         23    2    1    2    0    0  0.00000000000E+00  0.17763568394E-14  0.00000000000E+00  0.91188000000E+02  0.91188000000E+02 0.  0.
    9900012    2    3    3    0    0  0.28852756541E+02  0.42072870913E+01  0.22485436513E+02  0.54367113537E+02  0.40000066931E+02 0.  0.
         12    1    3    3    0    0 -0.28852756541E+02 -0.42072870913E+01 -0.22485436513E+02  0.36820886463E+02  0.00000000000E+00 0. -1.
         11    1    4    4    0    0  0.21790924370E+02 -0.11181010657E+02  0.88247900030E+01  0.26033369030E+02  0.51100000000E-03 0. -1.
        -11    1    4    4    0    0  0.98847583453E+01  0.10981359427E+01  0.77721091194E+01  0.12622203869E+02  0.51100000000E-03 0.  1.
         12    1    4    4    0    0 -0.28229261742E+01  0.14290161805E+02  0.58885373909E+01  0.15711540638E+02  0.00000000000E+00 0. -1.
</event>
<event>
 8    1  0.1212194E-006  0.9118800E+02  0.7816164E-02  0.1184000E+00
        -11   -1    0    0    0    0  0.00000000000E+00  0.00000000000E+00  0.45593999997E+02  0.45594000000E+02  0.51100000000E-03 0. -1.
         11   -1    0    0    0    0 -0.00000000000E+00 -0.00000000000E+00 -0.45593999997E+02  0.45594000000E+02  0.51100000000E-03 0.  1.
         23    2    1    2    0    0  0.35527136788E-14  0.00000000000E+00  0.00000000000E+00  0.91188000000E+02  0.91188000000E+02 0.  0.
    9900012    2    3    3    0    0 -0.14167934546E+02 -0.61187288554E+01 -0.33430688628E+02  0.54367079938E+02  0.39999990334E+02 0.  0.
         12    1    3    3    0    0  0.14167934546E+02  0.61187288554E+01  0.33430688628E+02  0.36820920062E+02  0.00000000000E+00 0. -1.
         11    1    4    4    0    0  0.12254193023E+01  0.41503543305E+01  0.22943604114E+01  0.48980795720E+01  0.51100000000E-03 0. -1.
        -11    1    4    4    0    0  0.32589808112E+01 -0.31208950783E+01  0.33260278560E+01  0.56056581752E+01  0.51100000000E-03 0.  1.
        -12    1    4    4    0    0 -0.18652334659E+02 -0.71481881076E+01 -0.39051076895E+02  0.43863342191E+02  0.00000000000E+00 0.  1.
</event>
<event>
 8    1  0.1212194E-006  0.9118800E+02  0.7816164E-02  0.1184000E+00
        -11   -1    0    0    0    0  0.00000000000E+00  0.00000000000E+00  0.45593999997E+02  0.45594000000E+02  0.51100000000E-03 0.  1.
         11   -1    0    0    0    0 -0.00000000000E+00 -0.00000000000E+00 -0.45593999997E+02  0.45594000000E+02  0.51100000000E-03 0. -1.
         23    2    1    2    0    0 -0.88817841970E-15  0.71054273576E-14  0.00000000000E+00  0.91188000000E+02  0.91188000000E+02 0.  0.
    9900012    2    3    3    0    0  0.74849259114E+01 -0.29218510600E+02  0.21119527217E+02  0.54367083289E+02  0.39999997973E+02 0.  0.
         12    1    3    3    0    0 -0.74849259114E+01  0.29218510600E+02 -0.21119527217E+02  0.36820916711E+02  0.00000000000E+00 0. -1.
         11    1    4    4    0    0  0.74035353138E+01 -0.11338604810E+02  0.16636817766E+02  0.21451340280E+02  0.51100000000E-03 0. -1.
        -11    1    4    4    0    0  0.74171687150E+01 -0.22660272239E+02  0.36375018348E+01  0.24119157314E+02  0.51100000000E-03 0.  1.
         12    1    4    4    0    0 -0.73357781174E+01  0.47803664484E+01  0.84520761628E+00  0.87965856946E+01  0.00000000000E+00 0. -1.
</event>
<event>
 8    1  0.1212194E-006  0.9118800E+02  0.7816164E-02  0.1184000E+00
        -11   -1    0    0    0    0  0.00000000000E+00  0.00000000000E+00  0.45593999997E+02  0.45594000000E+02  0.51100000000E-03 0. -1.
         11   -1    0    0    0    0 -0.00000000000E+00 -0.00000000000E+00 -0.45593999997E+02  0.45594000000E+02  0.51100000000E-03 0.  1.
         23    2    1    2    0    0 -0.17763568394E-14 -0.17763568394E-14  0.00000000000E+00  0.91188000000E+02  0.91188000000E+02 0.  0.
    9900012    2    3    3    0    0 -0.91555993560E+01  0.11888584775E+02 -0.33624676800E+02  0.54367050292E+02  0.39999922751E+02 0.  0.
         12    1    3    3    0    0  0.91555993560E+01 -0.11888584775E+02  0.33624676800E+02  0.36820949708E+02  0.00000000000E+00 0. -1.
         11    1    4    4    0    0 -0.33544153816E+01  0.12810629210E+01 -0.13642854597E+02  0.14107469886E+02  0.51100000000E-03 0.  1.
        -11    1    4    4    0    0 -0.16740298171E+02  0.15231103944E+02 -0.99891471075E+01  0.24738778677E+02  0.51100000000E-03 0. -1.
        -12    1    4    4    0    0  0.10939114197E+02 -0.46235820907E+01 -0.99926750952E+01  0.15520801729E+02  0.00000000000E+00 0.  1.
</event>
<event>
 8    1  0.1212194E-006  0.9118800E+02  0.7816164E-02  0.1184000E+00
        -11   -1    0    0    0    0  0.00000000000E+00  0.00000000000E+00  0.45593999997E+02  0.45594000000E+02  0.51100000000E-03 0.  1.
         11   -1    0    0    0    0 -0.00000000000E+00 -0.00000000000E+00 -0.45593999997E+02  0.45594000000E+02  0.51100000000E-03 0. -1.
         23    2    1    2    0    0  0.00000000000E+00  0.00000000000E+00  0.00000000000E+00  0.91188000000E+02  0.91188000000E+02 0.  0.
    9900012    2    3    3    0    0 -0.11104150157E+02  0.31862655191E+02  0.14739423317E+02  0.54367061035E+02  0.39999947241E+02 0.  0.
         12    1    3    3    0    0  0.11104150157E+02 -0.31862655191E+02 -0.14739423317E+02  0.36820938965E+02  0.00000000000E+00 0. -1.
         11    1    4    4    0    0 -0.57784643389E+01 -0.27906934668E+01  0.12788081690E+02  0.14307817923E+02  0.51100000000E-03 0. -1.
        -11    1    4    4    0    0  0.27139790660E+01  0.13420333875E+02  0.88823400866E+01  0.16320753946E+02  0.51100000000E-03 0.  1.
         12    1    4    4    0    0 -0.80396648836E+01  0.21233014783E+02 -0.69309984598E+01  0.23738489165E+02  0.00000000000E+00 0. -1.
</event>
<event>
 8    1  0.1212194E-006  0.9118800E+02  0.7816164E-02  0.1184000E+00
        -11   -1    0    0    0    0  0.00000000000E+00  0.00000000000E+00  0.45593999997E+02  0.45594000000E+02  0.51100000000E-03 0. -1.
         11   -1    0    0    0    0 -0.00000000000E+00 -0.00000000000E+00 -0.45593999997E+02  0.45594000000E+02  0.51100000000E-03 0.  1.
         23    2    1    2    0    0 -0.17763568394E-14  0.00000000000E+00  0.00000000000E+00  0.91188000000E+02  0.91188000000E+02 0.  0.
    9900012    2    3    3    0    0  0.68425700892E+01 -0.84792354042E+01 -0.35171863342E+02  0.54367106890E+02  0.40000051777E+02 0.  0.
         12    1    3    3    0    0 -0.68425700892E+01  0.84792354042E+01  0.35171863342E+02  0.36820893110E+02  0.00000000000E+00 0. -1.
         11    1    4    4    0    0 -0.92635073630E+01 -0.12982744713E+02 -0.68375014284E+01  0.17352684374E+02  0.51100000000E-03 0. -1.
        -11    1    4    4    0    0  0.15561193380E+02  0.85432623793E+01 -0.27683602389E+02  0.32886470060E+02  0.51100000000E-03 0.  1.
        -12    1    4    4    0    0  0.54488407235E+00 -0.40397530706E+01 -0.65075952461E+00  0.41279524564E+01  0.00000000000E+00 0.  1.
</event>
<event>
 8    1  0.1212194E-006  0.9118800E+02  0.7816164E-02  0.1184000E+00
        -11   -1    0    0    0    0  0.00000000000E+00  0.00000000000E+00  0.45593999997E+02  0.45594000000E+02  0.51100000000E-03 0. -1.
         11   -1    0    0    0    0 -0.00000000000E+00 -0.00000000000E+00 -0.45593999997E+02  0.45594000000E+02  0.51100000000E-03 0.  1.
         23    2    1    2    0    0  0.00000000000E+00  0.00000000000E+00  0.00000000000E+00  0.91188000000E+02  0.91188000000E+02 0.  0.
    9900012    2    3    3    0    0 -0.16884780297E+02  0.25439314460E+02 -0.20579667720E+02  0.54367119384E+02  0.40000080260E+02 0.  0.
         12    1    3    3    0    0  0.16884780297E+02 -0.25439314460E+02  0.20579667720E+02  0.36820880616E+02  0.00000000000E+00 0. -1.
         11    1    4    4    0    0 -0.20229440822E+02  0.10854220383E+02 -0.32682783772E+01  0.23188920197E+02  0.51100000000E-03 0. -1.
        -11    1    4    4    0    0  0.51805617367E+01  0.96762818005E+01  0.20102474944E+01  0.11158393461E+02  0.51100000000E-03 0.  1.
         12    1    4    4    0    0 -0.18359012113E+01  0.49088122763E+01 -0.19321636838E+02  0.20019805726E+02  0.00000000000E+00 0. -1.
</event>
<event>
 8    1  0.1212194E-006  0.9118800E+02  0.7816164E-02  0.1184000E+00
        -11   -1    0    0    0    0  0.00000000000E+00  0.00000000000E+00  0.45593999997E+02  0.45594000000E+02  0.51100000000E-03 0.  1.
         11   -1    0    0    0    0 -0.00000000000E+00 -0.00000000000E+00 -0.45593999997E+02  0.45594000000E+02  0.51100000000E-03 0. -1.
         23    2    1    2    0    0  0.00000000000E+00 -0.88817841970E-15 -0.35527136788E-14  0.91188000000E+02  0.91188000000E+02 0.  0.
    9900012    2    3    3    0    0 -0.23703577721E+02 -0.46036901438E+01 -0.27797947894E+02  0.54367089272E+02  0.40000011614E+02 0.  0.
        -12    1    3    3    0    0  0.23703577721E+02  0.46036901438E+01  0.27797947894E+02  0.36820910728E+02  0.00000000000E+00 0.  1.
         11    1    4    4    0    0 -0.28861973576E+02 -0.10252793544E+02 -0.24118292417E+02  0.38984937137E+02  0.51100000000E-03 0. -1.
        -11    1    4    4    0    0  0.43901856285E+01 -0.11918069748E+01 -0.65076406938E+01  0.79399950490E+01  0.51100000000E-03 0.  1.
         12    1    4    4    0    0  0.76821022733E+00  0.68409103754E+01  0.28279852165E+01  0.74421570867E+01  0.00000000000E+00 0. -1.
</event>
<event>
 8    1  0.1212194E-006  0.9118800E+02  0.7816164E-02  0.1184000E+00
        -11   -1    0    0    0    0  0.00000000000E+00  0.00000000000E+00  0.45593999997E+02  0.45594000000E+02  0.51100000000E-03 0.  1.
         11   -1    0    0    0    0 -0.00000000000E+00 -0.00000000000E+00 -0.45593999997E+02  0.45594000000E+02  0.51100000000E-03 0. -1.
         23    2    1    2    0    0  0.16653345369E-15  0.00000000000E+00  0.00000000000E+00  0.91188000000E+02  0.91188000000E+02 0.  0.
    9900012    2    3    3    0    0  0.38731179218E+00  0.72865133679E+01  0.36090647382E+02  0.54367107616E+02  0.40000053433E+02 0.  0.
         12    1    3    3    0    0 -0.38731179218E+00 -0.72865133679E+01 -0.36090647382E+02  0.36820892384E+02  0.00000000000E+00 0. -1.
         11    1    4    4    0    0  0.10882496173E+02 -0.56095779953E+01  0.14186208205E+02  0.18738852466E+02  0.51100000000E-03 0. -1.
        -11    1    4    4    0    0  0.37225413696E+00  0.68819282743E+01  0.22157967642E+02  0.23205064969E+02  0.51100000000E-03 0.  1.
         12    1    4    4    0    0 -0.10867438518E+02  0.60141630889E+01 -0.25352846511E+00  0.12423190182E+02  0.00000000000E+00 0. -1.
</event>
<event>
 8    1  0.1212194E-006  0.9118800E+02  0.7816164E-02  0.1184000E+00
        -11   -1    0    0    0    0  0.00000000000E+00  0.00000000000E+00  0.45593999997E+02  0.45594000000E+02  0.51100000000E-03 0. -1.
         11   -1    0    0    0    0 -0.00000000000E+00 -0.00000000000E+00 -0.45593999997E+02  0.45594000000E+02  0.51100000000E-03 0.  1.
         23    2    1    2    0    0  0.00000000000E+00  0.35527136788E-14  0.17763568394E-14  0.91188000000E+02  0.91188000000E+02 0.  0.
    9900012    2    3    3    0    0  0.16910997427E+02  0.29869643149E+02  0.13326732715E+02  0.54367092614E+02  0.40000019233E+02 0.  0.
        -12    1    3    3    0    0 -0.16910997427E+02 -0.29869643149E+02 -0.13326732715E+02  0.36820907386E+02  0.00000000000E+00 0.  1.
         11    1    4    4    0    0 -0.12618334801E+01  0.63479323381E+01  0.75320421817E+00  0.65158104297E+01  0.51100000000E-03 0. -1.
        -11    1    4    4    0    0 -0.84871496660E+01  0.16570279815E+02  0.52328268824E+01  0.19338778660E+02  0.51100000000E-03 0.  1.
        -12    1    4    4    0    0  0.26659980574E+02  0.69514309963E+01  0.73407016140E+01  0.28512503525E+02  0.00000000000E+00 0.  1.
</event>
<event>
 8    1  0.1212194E-006  0.9118800E+02  0.7816164E-02  0.1184000E+00
        -11   -1    0    0    0    0  0.00000000000E+00  0.00000000000E+00  0.45593999997E+02  0.45594000000E+02  0.51100000000E-03 0. -1.
         11   -1    0    0    0    0 -0.00000000000E+00 -0.00000000000E+00 -0.45593999997E+02  0.45594000000E+02  0.51100000000E-03 0.  1.
         23    2    1    2    0    0  0.71054273576E-14  0.00000000000E+00  0.88817841970E-15  0.91188000000E+02  0.91188000000E+02 0.  0.
    9900012    2    3    3    0    0 -0.23868550502E+02 -0.27096090604E+02  0.72024702623E+01  0.54367062926E+02  0.39999951552E+02 0.  0.
        -12    1    3    3    0    0  0.23868550502E+02  0.27096090604E+02 -0.72024702623E+01  0.36820937074E+02  0.00000000000E+00 0.  1.
         11    1    4    4    0    0 -0.21736080834E+02 -0.13209219353E+02  0.12813745531E+02  0.28480392566E+02  0.51100000000E-03 0. -1.
        -11    1    4    4    0    0  0.70383716792E+01 -0.88635504978E+01  0.36771195292E+01  0.11900521485E+02  0.51100000000E-03 0.  1.
        -12    1    4    4    0    0 -0.91708413475E+01 -0.50233207536E+01 -0.92883947982E+01  0.13986148875E+02  0.00000000000E+00 0.  1.
</event>
<event>
 8    1  0.1212194E-006  0.9118800E+02  0.7816164E-02  0.1184000E+00
        -11   -1    0    0    0    0  0.00000000000E+00  0.00000000000E+00  0.45593999997E+02  0.45594000000E+02  0.51100000000E-03 0.  1.
         11   -1    0    0    0    0 -0.00000000000E+00 -0.00000000000E+00 -0.45593999997E+02  0.45594000000E+02  0.51100000000E-03 0. -1.
         23    2    1    2    0    0 -0.88817841970E-15  0.35527136788E-14  0.35527136788E-14  0.91188000000E+02  0.91188000000E+02 0.  0.
    9900012    2    3    3    0    0 -0.78099114767E+01  0.31051112022E+02 -0.18182778770E+02  0.54367085850E+02  0.40000003811E+02 0.  0.
        -12    1    3    3    0    0  0.78099114767E+01 -0.31051112022E+02  0.18182778770E+02  0.36820914150E+02  0.00000000000E+00 0.  1.
         11    1    4    4    0    0 -0.19661508328E+01  0.10722080391E+02 -0.20617838999E+02  0.23322179192E+02  0.51100000000E-03 0. -1.
        -11    1    4    4    0    0 -0.13514232481E+02  0.18041526816E+02 -0.42277128328E+00  0.22545729201E+02  0.51100000000E-03 0.  1.
        -12    1    4    4    0    0  0.76704718369E+01  0.22875048149E+01  0.28578315125E+01  0.84991774562E+01  0.00000000000E+00 0.  1.
</event>
<event>
 8    1  0.1212194E-006  0.9118800E+02  0.7816164E-02  0.1184000E+00
        -11   -1    0    0    0    0  0.00000000000E+00  0.00000000000E+00  0.45593999997E+02  0.45594000000E+02  0.51100000000E-03 0.  1.
         11   -1    0    0    0    0 -0.00000000000E+00 -0.00000000000E+00 -0.45593999997E+02  0.45594000000E+02  0.51100000000E-03 0. -1.
         23    2    1    2    0    0  0.00000000000E+00  0.00000000000E+00 -0.44408920985E-15  0.91188000000E+02  0.91188000000E+02 0.  0.
    9900012    2    3    3    0    0 -0.10968828944E+02 -0.35142986562E+02 -0.65971911660E+00  0.54367082817E+02  0.39999996897E+02 0.  0.
         12    1    3    3    0    0  0.10968828944E+02  0.35142986562E+02  0.65971911660E+00  0.36820917183E+02  0.00000000000E+00 0. -1.
         11    1    4    4    0    0 -0.25547985473E+01 -0.25654223540E+02 -0.10613118359E+02  0.27880180463E+02  0.51100000000E-03 0. -1.
        -11    1    4    4    0    0 -0.47006585811E+01 -0.14166402064E+02  0.12989934865E+02  0.19786903411E+02  0.51100000000E-03 0.  1.
         12    1    4    4    0    0 -0.37133718159E+01  0.46776390421E+01 -0.30365356229E+01  0.66999989433E+01  0.00000000000E+00 0. -1.
</event>
<event>
 8    1  0.1212194E-006  0.9118800E+02  0.7816164E-02  0.1184000E+00
        -11   -1    0    0    0    0  0.00000000000E+00  0.00000000000E+00  0.45593999997E+02  0.45594000000E+02  0.51100000000E-03 0.  1.
         11   -1    0    0    0    0 -0.00000000000E+00 -0.00000000000E+00 -0.45593999997E+02  0.45594000000E+02  0.51100000000E-03 0. -1.
         23    2    1    2    0    0  0.00000000000E+00  0.00000000000E+00  0.00000000000E+00  0.91188000000E+02  0.91188000000E+02 0.  0.
    9900012    2    3    3    0    0 -0.21548465600E+02  0.13766791103E+02 -0.26493748425E+02  0.54367087293E+02  0.40000007102E+02 0.  0.
        -12    1    3    3    0    0  0.21548465600E+02 -0.13766791103E+02  0.26493748425E+02  0.36820912707E+02  0.00000000000E+00 0.  1.
         11    1    4    4    0    0 -0.26588180325E+01  0.17351966402E+02 -0.13645520372E+02  0.22234214127E+02  0.51100000000E-03 0. -1.
        -11    1    4    4    0    0 -0.16650309278E+02  0.35303493834E+01  0.29193737719E+00  0.17022966648E+02  0.51100000000E-03 0.  1.
         12    1    4    4    0    0 -0.22393382898E+01 -0.71155246821E+01 -0.13140165429E+02  0.15109906518E+02  0.00000000000E+00 0. -1.
</event>
<event>
 8    1  0.1212194E-006  0.9118800E+02  0.7816164E-02  0.1184000E+00
        -11   -1    0    0    0    0  0.00000000000E+00  0.00000000000E+00  0.45593999997E+02  0.45594000000E+02  0.51100000000E-03 0.  1.
         11   -1    0    0    0    0 -0.00000000000E+00 -0.00000000000E+00 -0.45593999997E+02  0.45594000000E+02  0.51100000000E-03 0. -1.
         23    2    1    2    0    0  0.35527136788E-14 -0.35527136788E-14 -0.44408920985E-15  0.91188000000E+02  0.91188000000E+02 0.  0.
    9900012    2    3    3    0    0  0.20983081492E+02 -0.30083769884E+02 -0.32337563088E+01  0.54367080685E+02  0.39999992037E+02 0.  0.
         12    1    3    3    0    0 -0.20983081492E+02  0.30083769884E+02  0.32337563088E+01  0.36820919315E+02  0.00000000000E+00 0. -1.
         11    1    4    4    0    0 -0.18248613445E+00 -0.93683110623E+01  0.50859021080E+01  0.10661376734E+02  0.51100000000E-03 0. -1.
        -11    1    4    4    0    0  0.25128976178E+02 -0.17409143300E+02 -0.15959699332E+02  0.34485587094E+02  0.51100000000E-03 0.  1.
         12    1    4    4    0    0 -0.39634085506E+01 -0.33063155214E+01  0.76400409153E+01  0.92201168568E+01  0.00000000000E+00 0. -1.
</event>
<event>
 8    1  0.1212194E-006  0.9118800E+02  0.7816164E-02  0.1184000E+00
        -11   -1    0    0    0    0  0.00000000000E+00  0.00000000000E+00  0.45593999997E+02  0.45594000000E+02  0.51100000000E-03 0. -1.
         11   -1    0    0    0    0 -0.00000000000E+00 -0.00000000000E+00 -0.45593999997E+02  0.45594000000E+02  0.51100000000E-03 0.  1.
         23    2    1    2    0    0  0.00000000000E+00  0.00000000000E+00  0.00000000000E+00  0.91188000000E+02  0.91188000000E+02 0.  0.
    9900012    2    3    3    0    0  0.21931494977E+02  0.29422937040E+02  0.30132740103E+01  0.54367088601E+02  0.40000010083E+02 0.  0.
         12    1    3    3    0    0 -0.21931494977E+02 -0.29422937040E+02 -0.30132740103E+01  0.36820911399E+02  0.00000000000E+00 0. -1.
         11    1    4    4    0    0  0.25746236546E+01  0.37609629626E-01  0.67633969062E+01  0.72369634115E+01  0.51100000000E-03 0. -1.
        -11    1    4    4    0    0  0.45615224719E+01  0.56006104214E+00 -0.12708446759E+02  0.13513910423E+02  0.51100000000E-03 0.  1.
        -12    1    4    4    0    0  0.14795348851E+02  0.28825266368E+02  0.89583238626E+01  0.33616214767E+02  0.00000000000E+00 0.  1.
</event>
<event>
 8    1  0.1212194E-006  0.9118800E+02  0.7816164E-02  0.1184000E+00
        -11   -1    0    0    0    0  0.00000000000E+00  0.00000000000E+00  0.45593999997E+02  0.45594000000E+02  0.51100000000E-03 0. -1.
         11   -1    0    0    0    0 -0.00000000000E+00 -0.00000000000E+00 -0.45593999997E+02  0.45594000000E+02  0.51100000000E-03 0.  1.
         23    2    1    2    0    0  0.00000000000E+00 -0.17763568394E-14 -0.71054273576E-14  0.91188000000E+02  0.91188000000E+02 0.  0.
    9900012    2    3    3    0    0  0.11603941835E+02  0.88464830349E+01  0.33806330872E+02  0.54367085627E+02  0.40000003305E+02 0.  0.
        -12    1    3    3    0    0 -0.11603941835E+02 -0.88464830349E+01 -0.33806330872E+02  0.36820914373E+02  0.00000000000E+00 0.  1.
         11    1    4    4    0    0  0.32375233534E+01 -0.16066307731E+00 -0.33188042550E+01  0.46391628590E+01  0.51100000000E-03 0. -1.
        -11    1    4    4    0    0 -0.16789050169E+01  0.11099020516E+02  0.14920335908E-01  0.11225292929E+02  0.51100000000E-03 0.  1.
         12    1    4    4    0    0  0.10045323499E+02 -0.20918744034E+01  0.37110214791E+02  0.38502629840E+02  0.00000000000E+00 0. -1.
</event>
<event>
 8    1  0.1212194E-006  0.9118800E+02  0.7816164E-02  0.1184000E+00
        -11   -1    0    0    0    0  0.00000000000E+00  0.00000000000E+00  0.45593999997E+02  0.45594000000E+02  0.51100000000E-03 0. -1.
         11   -1    0    0    0    0 -0.00000000000E+00 -0.00000000000E+00 -0.45593999997E+02  0.45594000000E+02  0.51100000000E-03 0.  1.
         23    2    1    2    0    0 -0.88817841970E-15  0.35527136788E-14  0.35527136788E-14  0.91188000000E+02  0.91188000000E+02 0.  0.
    9900012    2    3    3    0    0  0.42406825523E+01 -0.25805040597E+02 -0.25920967412E+02  0.54367081213E+02  0.39999993242E+02 0.  0.
         12    1    3    3    0    0 -0.42406825523E+01  0.25805040597E+02  0.25920967412E+02  0.36820918787E+02  0.00000000000E+00 0. -1.
         11    1    4    4    0    0  0.19616344266E+01 -0.14649728767E+02 -0.24082745331E+02  0.28256701603E+02  0.51100000000E-03 0. -1.
        -11    1    4    4    0    0 -0.46583137853E+01 -0.52784692940E+01 -0.11091956853E+02  0.13137489581E+02  0.51100000000E-03 0.  1.
         12    1    4    4    0    0  0.69373619110E+01 -0.58768425358E+01  0.92537347715E+01  0.12972890029E+02  0.00000000000E+00 0. -1.
</event>
<event>
 8    1  0.1212194E-006  0.9118800E+02  0.7816164E-02  0.1184000E+00
        -11   -1    0    0    0    0  0.00000000000E+00  0.00000000000E+00  0.45593999997E+02  0.45594000000E+02  0.51100000000E-03 0. -1.
         11   -1    0    0    0    0 -0.00000000000E+00 -0.00000000000E+00 -0.45593999997E+02  0.45594000000E+02  0.51100000000E-03 0.  1.
         23    2    1    2    0    0  0.00000000000E+00  0.00000000000E+00 -0.44408920985E-15  0.91188000000E+02  0.91188000000E+02 0.  0.
    9900012    2    3    3    0    0 -0.34238362593E+02 -0.13258108181E+02 -0.27815857469E+01  0.54367080336E+02  0.39999991243E+02 0.  0.
        -12    1    3    3    0    0  0.34238362593E+02  0.13258108181E+02  0.27815857469E+01  0.36820919664E+02  0.00000000000E+00 0.  1.
         11    1    4    4    0    0 -0.25260707476E+02 -0.91241779093E+01  0.11512746567E+02  0.29221521153E+02  0.51100000000E-03 0. -1.
        -11    1    4    4    0    0 -0.89293072618E+01  0.25936006609E+01  0.53738676599E-01  0.92985042168E+01  0.51100000000E-03 0.  1.
         12    1    4    4    0    0 -0.48347855361E-01 -0.67275309330E+01 -0.14348070991E+02  0.15847054967E+02  0.00000000000E+00 0. -1.
</event>
<event>
 8    1  0.1212194E-006  0.9118800E+02  0.7816164E-02  0.1184000E+00
        -11   -1    0    0    0    0  0.00000000000E+00  0.00000000000E+00  0.45593999997E+02  0.45594000000E+02  0.51100000000E-03 0. -1.
         11   -1    0    0    0    0 -0.00000000000E+00 -0.00000000000E+00 -0.45593999997E+02  0.45594000000E+02  0.51100000000E-03 0.  1.
         23    2    1    2    0    0 -0.17763568394E-14  0.00000000000E+00  0.00000000000E+00  0.91188000000E+02  0.91188000000E+02 0.  0.
    9900012    2    3    3    0    0 -0.25149943025E+01  0.22065276642E+02 -0.29369662269E+02  0.54367099801E+02  0.40000035617E+02 0.  0.
         12    1    3    3    0    0  0.25149943025E+01 -0.22065276642E+02  0.29369662269E+02  0.36820900199E+02  0.00000000000E+00 0. -1.
         11    1    4    4    0    0  0.14626866875E+02  0.18391694422E+02 -0.21581246055E+02  0.31905326199E+02  0.51100000000E-03 0. -1.
        -11    1    4    4    0    0 -0.15169236664E+02  0.73253939670E+01 -0.69747467955E+01  0.18232230551E+02  0.51100000000E-03 0.  1.
         12    1    4    4    0    0 -0.19726245129E+01 -0.36518117463E+01 -0.81366941841E+00  0.42295430512E+01  0.00000000000E+00 0. -1.
</event>
<event>
 8    1  0.1212194E-006  0.9118800E+02  0.7816164E-02  0.1184000E+00
        -11   -1    0    0    0    0  0.00000000000E+00  0.00000000000E+00  0.45593999997E+02  0.45594000000E+02  0.51100000000E-03 0. -1.
         11   -1    0    0    0    0 -0.00000000000E+00 -0.00000000000E+00 -0.45593999997E+02  0.45594000000E+02  0.51100000000E-03 0.  1.
         23    2    1    2    0    0  0.88817841970E-15  0.35527136788E-14  0.00000000000E+00  0.91188000000E+02  0.91188000000E+02 0.  0.
    9900012    2    3    3    0    0  0.74814769361E+01  0.21968690294E+02 -0.28586414480E+02  0.54367096383E+02  0.40000027824E+02 0.  0.
         12    1    3    3    0    0 -0.74814769361E+01 -0.21968690294E+02  0.28586414480E+02  0.36820903617E+02  0.00000000000E+00 0. -1.
         11    1    4    4    0    0 -0.20112132588E+01  0.94842849042E+01  0.28597064647E+01  0.10108143264E+02  0.51100000000E-03 0. -1.
        -11    1    4    4    0    0 -0.34064332559E+01  0.16885276638E+02 -0.14528401377E+02  0.22534214020E+02  0.51100000000E-03 0.  1.
        -12    1    4    4    0    0  0.12899123451E+02 -0.44008712481E+01 -0.16917719568E+02  0.21724739099E+02  0.00000000000E+00 0.  1.
</event>
<event>
 8    1  0.1212194E-006  0.9118800E+02  0.7816164E-02  0.1184000E+00
        -11   -1    0    0    0    0  0.00000000000E+00  0.00000000000E+00  0.45593999997E+02  0.45594000000E+02  0.51100000000E-03 0. -1.
         11   -1    0    0    0    0 -0.00000000000E+00 -0.00000000000E+00 -0.45593999997E+02  0.45594000000E+02  0.51100000000E-03 0.  1.
         23    2    1    2    0    0  0.17763568394E-14  0.00000000000E+00  0.00000000000E+00  0.91188000000E+02  0.91188000000E+02 0.  0.
    9900012    2    3    3    0    0 -0.14704168881E+02  0.13669666761E+02  0.30865960010E+02  0.54367083945E+02  0.39999999469E+02 0.  0.
        -12    1    3    3    0    0  0.14704168881E+02 -0.13669666761E+02 -0.30865960010E+02  0.36820916055E+02  0.00000000000E+00 0.  1.
         11    1    4    4    0    0 -0.62329045884E+01 -0.13508081084E+01 -0.12844481286E+01  0.65056582611E+01  0.51100000000E-03 0. -1.
        -11    1    4    4    0    0 -0.10594768481E+02  0.23750332985E+02  0.27078426063E+02  0.37544221851E+02  0.51100000000E-03 0.  1.
         12    1    4    4    0    0  0.21235041889E+01 -0.87298581155E+01  0.50719820754E+01  0.10317203833E+02  0.00000000000E+00 0. -1.
</event>
<event>
 8    1  0.1212194E-006  0.9118800E+02  0.7816164E-02  0.1184000E+00
        -11   -1    0    0    0    0  0.00000000000E+00  0.00000000000E+00  0.45593999997E+02  0.45594000000E+02  0.51100000000E-03 0.  1.
         11   -1    0    0    0    0 -0.00000000000E+00 -0.00000000000E+00 -0.45593999997E+02  0.45594000000E+02  0.51100000000E-03 0. -1.
         23    2    1    2    0    0  0.00000000000E+00  0.17763568394E-14  0.00000000000E+00  0.91188000000E+02  0.91188000000E+02 0.  0.
    9900012    2    3    3    0    0 -0.27276576285E+02 -0.80389214801E+01 -0.23391064627E+02  0.54367112222E+02  0.40000063933E+02 0.  0.
        -12    1    3    3    0    0  0.27276576285E+02  0.80389214801E+01  0.23391064627E+02  0.36820887778E+02  0.00000000000E+00 0.  1.
         11    1    4    4    0    0 -0.14133867343E+02 -0.47950001177E+01 -0.51848236045E+01  0.15800019882E+02  0.51100000000E-03 0. -1.
        -11    1    4    4    0    0 -0.14259974754E+02 -0.14731738608E+02 -0.17580304796E+02  0.27008112103E+02  0.51100000000E-03 0.  1.
        -12    1    4    4    0    0  0.11172658122E+01  0.11487817245E+02 -0.62593622557E+00  0.11558980237E+02  0.00000000000E+00 0.  1.
</event>
<event>
 8    1  0.1212194E-006  0.9118800E+02  0.7816164E-02  0.1184000E+00
        -11   -1    0    0    0    0  0.00000000000E+00  0.00000000000E+00  0.45593999997E+02  0.45594000000E+02  0.51100000000E-03 0.  1.
         11   -1    0    0    0    0 -0.00000000000E+00 -0.00000000000E+00 -0.45593999997E+02  0.45594000000E+02  0.51100000000E-03 0. -1.
         23    2    1    2    0    0  0.35527136788E-14 -0.44408920985E-15  0.35527136788E-14  0.91188000000E+02  0.91188000000E+02 0.  0.
    9900012    2    3    3    0    0 -0.25816312923E+02  0.30485263037E+01 -0.26076896373E+02  0.54367081353E+02  0.39999993561E+02 0.  0.
         12    1    3    3    0    0  0.25816312923E+02 -0.30485263037E+01  0.26076896373E+02  0.36820918647E+02  0.00000000000E+00 0. -1.
         11    1    4    4    0    0 -0.12594535430E+02  0.14014524091E+02 -0.10224032242E+02  0.21437351603E+02  0.51100000000E-03 0. -1.
        -11    1    4    4    0    0 -0.10360181884E+02 -0.17312993820E+02 -0.63547122565E+01  0.21153143781E+02  0.51100000000E-03 0.  1.
        -12    1    4    4    0    0 -0.28615956093E+01  0.63469960328E+01 -0.94981518744E+01  0.11776585970E+02  0.00000000000E+00 0.  1.
</event>
<event>
 8    1  0.1212194E-006  0.9118800E+02  0.7816164E-02  0.1184000E+00
        -11   -1    0    0    0    0  0.00000000000E+00  0.00000000000E+00  0.45593999997E+02  0.45594000000E+02  0.51100000000E-03 0. -1.
         11   -1    0    0    0    0 -0.00000000000E+00 -0.00000000000E+00 -0.45593999997E+02  0.45594000000E+02  0.51100000000E-03 0.  1.
         23    2    1    2    0    0  0.00000000000E+00 -0.88817841970E-15  0.10658141036E-13  0.91188000000E+02  0.91188000000E+02 0.  0.
    9900012    2    3    3    0    0  0.28555976722E+02  0.55673675035E+01  0.22568612846E+02  0.54367059311E+02  0.39999943311E+02 0.  0.
        -12    1    3    3    0    0 -0.28555976722E+02 -0.55673675035E+01 -0.22568612846E+02  0.36820940689E+02  0.00000000000E+00 0.  1.
         11    1    4    4    0    0  0.10437382691E+02 -0.30094003752E+01  0.79590019606E+00  0.10891689742E+02  0.51100000000E-03 0. -1.
        -11    1    4    4    0    0  0.13246614018E+02  0.69499637256E+01  0.30145274199E+02  0.33652820617E+02  0.51100000000E-03 0.  1.
         12    1    4    4    0    0  0.48719800136E+01  0.16268041532E+01 -0.83725615494E+01  0.98225489515E+01  0.00000000000E+00 0. -1.
</event>
<event>
 8    1  0.1212194E-006  0.9118800E+02  0.7816164E-02  0.1184000E+00
        -11   -1    0    0    0    0  0.00000000000E+00  0.00000000000E+00  0.45593999997E+02  0.45594000000E+02  0.51100000000E-03 0.  1.
         11   -1    0    0    0    0 -0.00000000000E+00 -0.00000000000E+00 -0.45593999997E+02  0.45594000000E+02  0.51100000000E-03 0. -1.
         23    2    1    2    0    0  0.00000000000E+00  0.00000000000E+00  0.00000000000E+00  0.91188000000E+02  0.91188000000E+02 0.  0.
    9900012    2    3    3    0    0 -0.93017752597E+01  0.34314747981E+02 -0.95790533724E+01  0.54367038368E+02  0.39999895568E+02 0.  0.
        -12    1    3    3    0    0  0.93017752597E+01 -0.34314747981E+02  0.95790533724E+01  0.36820961632E+02  0.00000000000E+00 0.  1.
         11    1    4    4    0    0 -0.15723560498E+02  0.10681806412E+02 -0.86334797855E+01  0.20877459530E+02  0.51100000000E-03 0. -1.
        -11    1    4    4    0    0 -0.18655491055E+01  0.23150663010E+02  0.43685602294E+01  0.23632980980E+02  0.51100000000E-03 0.  1.
         12    1    4    4    0    0  0.82873343435E+01  0.48227855890E+00 -0.53141338163E+01  0.98565978586E+01  0.00000000000E+00 0. -1.
</event>
<event>
 8    1  0.1212194E-006  0.9118800E+02  0.7816164E-02  0.1184000E+00
        -11   -1    0    0    0    0  0.00000000000E+00  0.00000000000E+00  0.45593999997E+02  0.45594000000E+02  0.51100000000E-03 0.  1.
         11   -1    0    0    0    0 -0.00000000000E+00 -0.00000000000E+00 -0.45593999997E+02  0.45594000000E+02  0.51100000000E-03 0. -1.
         23    2    1    2    0    0  0.00000000000E+00  0.00000000000E+00  0.00000000000E+00  0.91188000000E+02  0.91188000000E+02 0.  0.
    9900012    2    3    3    0    0 -0.24236606790E+02 -0.16814805250E+02 -0.22037083551E+02  0.54367029945E+02  0.39999876366E+02 0.  0.
        -12    1    3    3    0    0  0.24236606790E+02  0.16814805250E+02  0.22037083551E+02  0.36820970055E+02  0.00000000000E+00 0.  1.
         11    1    4    4    0    0 -0.11823129757E+02 -0.34782726308E+01 -0.17160378279E+02  0.21127313144E+02  0.51100000000E-03 0. -1.
        -11    1    4    4    0    0 -0.18667592592E+02 -0.21102183743E+01  0.15897744208E+01  0.18853631421E+02  0.51100000000E-03 0.  1.
         12    1    4    4    0    0  0.62541155592E+01 -0.11226314245E+02 -0.64664796937E+01  0.14386085381E+02  0.00000000000E+00 0. -1.
</event>
<event>
 8    1  0.1212194E-006  0.9118800E+02  0.7816164E-02  0.1184000E+00
        -11   -1    0    0    0    0  0.00000000000E+00  0.00000000000E+00  0.45593999997E+02  0.45594000000E+02  0.51100000000E-03 0.  1.
         11   -1    0    0    0    0 -0.00000000000E+00 -0.00000000000E+00 -0.45593999997E+02  0.45594000000E+02  0.51100000000E-03 0. -1.
         23    2    1    2    0    0  0.17763568394E-14  0.44408920985E-15 -0.71054273576E-14  0.91188000000E+02  0.91188000000E+02 0.  0.
    9900012    2    3    3    0    0 -0.14385200994E+02  0.23002742929E+01 -0.33816497382E+02  0.54367071649E+02  0.39999971437E+02 0.  0.
        -12    1    3    3    0    0  0.14385200994E+02 -0.23002742929E+01  0.33816497382E+02  0.36820928351E+02  0.00000000000E+00 0.  1.
         11    1    4    4    0    0  0.23231236853E+01 -0.44593697603E+00 -0.68299670824E+01  0.72280159139E+01  0.51100000000E-03 0. -1.
        -11    1    4    4    0    0  0.10394737255E+02  0.67048984387E+00 -0.12718261110E+02  0.16439412555E+02  0.51100000000E-03 0.  1.
        -12    1    4    4    0    0 -0.27103061935E+02  0.20757214250E+01 -0.14268269189E+02  0.30699643179E+02  0.00000000000E+00 0.  1.
</event>
<event>
 8    1  0.1212194E-006  0.9118800E+02  0.7816164E-02  0.1184000E+00
        -11   -1    0    0    0    0  0.00000000000E+00  0.00000000000E+00  0.45593999997E+02  0.45594000000E+02  0.51100000000E-03 0.  1.
         11   -1    0    0    0    0 -0.00000000000E+00 -0.00000000000E+00 -0.45593999997E+02  0.45594000000E+02  0.51100000000E-03 0. -1.
         23    2    1    2    0    0 -0.17763568394E-14  0.00000000000E+00  0.00000000000E+00  0.91188000000E+02  0.91188000000E+02 0.  0.
    9900012    2    3    3    0    0  0.12497462207E+02  0.17751564425E+02  0.29740131547E+02  0.54367081685E+02  0.39999994317E+02 0.  0.
         12    1    3    3    0    0 -0.12497462207E+02 -0.17751564425E+02 -0.29740131547E+02  0.36820918315E+02  0.00000000000E+00 0. -1.
         11    1    4    4    0    0  0.37800073440E+01  0.35737127183E+01  0.96632894726E+01  0.10974472279E+02  0.51100000000E-03 0. -1.
        -11    1    4    4    0    0  0.12915059844E+02 -0.20277567748E+01  0.22945234502E+02  0.26408225138E+02  0.51100000000E-03 0.  1.
         12    1    4    4    0    0 -0.41976049808E+01  0.16205608481E+02 -0.28683924279E+01  0.16984384268E+02  0.00000000000E+00 0. -1.
</event>
<event>
 8    1  0.1212194E-006  0.9118800E+02  0.7816164E-02  0.1184000E+00
        -11   -1    0    0    0    0  0.00000000000E+00  0.00000000000E+00  0.45593999997E+02  0.45594000000E+02  0.51100000000E-03 0.  1.
         11   -1    0    0    0    0 -0.00000000000E+00 -0.00000000000E+00 -0.45593999997E+02  0.45594000000E+02  0.51100000000E-03 0. -1.
         23    2    1    2    0    0  0.66613381478E-15  0.00000000000E+00  0.00000000000E+00  0.91188000000E+02  0.91188000000E+02 0.  0.
    9900012    2    3    3    0    0  0.75606458755E+00 -0.35055216310E+02 -0.11240168126E+02  0.54367065687E+02  0.39999957846E+02 0.  0.
        -12    1    3    3    0    0 -0.75606458755E+00  0.35055216310E+02  0.11240168126E+02  0.36820934313E+02  0.00000000000E+00 0.  1.
         11    1    4    4    0    0 -0.25274389949E+01 -0.21342486313E+02  0.17316319476E+01  0.21561266645E+02  0.51100000000E-03 0. -1.
        -11    1    4    4    0    0  0.66378064943E+01 -0.13729203207E+01  0.65778825419E+01  0.94453122902E+01  0.51100000000E-03 0.  1.
         12    1    4    4    0    0 -0.33543029119E+01 -0.12339809677E+02 -0.19549682616E+02  0.23360486751E+02  0.00000000000E+00 0. -1.
</event>
<event>
 8    1  0.1212194E-006  0.9118800E+02  0.7816164E-02  0.1184000E+00
        -11   -1    0    0    0    0  0.00000000000E+00  0.00000000000E+00  0.45593999997E+02  0.45594000000E+02  0.51100000000E-03 0. -1.
         11   -1    0    0    0    0 -0.00000000000E+00 -0.00000000000E+00 -0.45593999997E+02  0.45594000000E+02  0.51100000000E-03 0.  1.
         23    2    1    2    0    0  0.88817841970E-15  0.00000000000E+00  0.00000000000E+00  0.91188000000E+02  0.91188000000E+02 0.  0.
    9900012    2    3    3    0    0 -0.25497860988E+01 -0.29717628396E+02 -0.21590109267E+02  0.54367195218E+02  0.40000253137E+02 0.  0.
         12    1    3    3    0    0  0.25497860988E+01  0.29717628396E+02  0.21590109267E+02  0.36820804782E+02  0.00000000000E+00 0. -1.
         11    1    4    4    0    0  0.33563454982E+01 -0.21682824339E+02  0.35527377766E+01  0.22226827762E+02  0.51100000000E-03 0. -1.
        -11    1    4    4    0    0  0.21881425202E+01 -0.99127444281E+01 -0.74445827797E+01  0.12588577474E+02  0.51100000000E-03 0.  1.
         12    1    4    4    0    0 -0.80942741171E+01  0.18779403704E+01 -0.17698264264E+02  0.19551789982E+02  0.00000000000E+00 0. -1.
</event>
<event>
 8    1  0.1212194E-006  0.9118800E+02  0.7816164E-02  0.1184000E+00
        -11   -1    0    0    0    0  0.00000000000E+00  0.00000000000E+00  0.45593999997E+02  0.45594000000E+02  0.51100000000E-03 0.  1.
         11   -1    0    0    0    0 -0.00000000000E+00 -0.00000000000E+00 -0.45593999997E+02  0.45594000000E+02  0.51100000000E-03 0. -1.
         23    2    1    2    0    0  0.00000000000E+00  0.00000000000E+00  0.22204460493E-15  0.91188000000E+02  0.91188000000E+02 0.  0.
    9900012    2    3    3    0    0 -0.17152961753E+02 -0.32552026915E+02  0.13862696682E+01  0.54367078002E+02  0.39999985922E+02 0.  0.
         12    1    3    3    0    0  0.17152961753E+02  0.32552026915E+02 -0.13862696682E+01  0.36820921998E+02  0.00000000000E+00 0. -1.
         11    1    4    4    0    0 -0.14999215856E+02 -0.39655871742E+02 -0.66246549164E+01  0.42912127574E+02  0.51100000000E-03 0. -1.
        -11    1    4    4    0    0  0.56989945323E+00  0.34942560056E+01  0.25407464140E+01  0.43577520605E+01  0.51100000000E-03 0.  1.
         12    1    4    4    0    0 -0.27236453508E+01  0.36095888214E+01  0.54701781707E+01  0.70971983681E+01  0.00000000000E+00 0. -1.
</event>
<event>
 8    1  0.1212194E-006  0.9118800E+02  0.7816164E-02  0.1184000E+00
        -11   -1    0    0    0    0  0.00000000000E+00  0.00000000000E+00  0.45593999997E+02  0.45594000000E+02  0.51100000000E-03 0. -1.
         11   -1    0    0    0    0 -0.00000000000E+00 -0.00000000000E+00 -0.45593999997E+02  0.45594000000E+02  0.51100000000E-03 0.  1.
         23    2    1    2    0    0  0.35527136788E-14  0.00000000000E+00  0.88817841970E-15  0.91188000000E+02  0.91188000000E+02 0.  0.
    9900012    2    3    3    0    0 -0.24578322200E+02 -0.26877639013E+02  0.54110894199E+01  0.54367064518E+02  0.39999955181E+02 0.  0.
         12    1    3    3    0    0  0.24578322200E+02  0.26877639013E+02 -0.54110894199E+01  0.36820935482E+02  0.00000000000E+00 0. -1.
         11    1    4    4    0    0  0.31257466959E+01  0.46404310625E+01 -0.35482328223E+01  0.66252433371E+01  0.51100000000E-03 0. -1.
        -11    1    4    4    0    0 -0.21647671479E+02 -0.22223725545E+02  0.15689951406E+02  0.34766222587E+02  0.51100000000E-03 0.  1.
         12    1    4    4    0    0 -0.60563974169E+01 -0.92943445305E+01 -0.67306291639E+01  0.12975598594E+02  0.00000000000E+00 0. -1.
</event>
<event>
 8    1  0.1212194E-006  0.9118800E+02  0.7816164E-02  0.1184000E+00
        -11   -1    0    0    0    0  0.00000000000E+00  0.00000000000E+00  0.45593999997E+02  0.45594000000E+02  0.51100000000E-03 0.  1.
         11   -1    0    0    0    0 -0.00000000000E+00 -0.00000000000E+00 -0.45593999997E+02  0.45594000000E+02  0.51100000000E-03 0. -1.
         23    2    1    2    0    0  0.00000000000E+00  0.00000000000E+00  0.00000000000E+00  0.91188000000E+02  0.91188000000E+02 0.  0.
    9900012    2    3    3    0    0 -0.34185810930E+02 -0.14476510795E+01 -0.13602066056E+02  0.54367060800E+02  0.39999946705E+02 0.  0.
        -12    1    3    3    0    0  0.34185810930E+02  0.14476510795E+01  0.13602066056E+02  0.36820939200E+02  0.00000000000E+00 0.  1.
         11    1    4    4    0    0 -0.20713525058E+02  0.27685664008E+01  0.82150045383E+01  0.22454428964E+02  0.51100000000E-03 0. -1.
        -11    1    4    4    0    0 -0.14012621173E+00 -0.49353602806E+01  0.13984642852E+01  0.51315805628E+01  0.51100000000E-03 0.  1.
        -12    1    4    4    0    0 -0.13332159660E+02  0.71914280032E+00 -0.23215534879E+02  0.26781051273E+02  0.00000000000E+00 0.  1.
</event>
<event>
 8    1  0.1212194E-006  0.9118800E+02  0.7816164E-02  0.1184000E+00
        -11   -1    0    0    0    0  0.00000000000E+00  0.00000000000E+00  0.45593999997E+02  0.45594000000E+02  0.51100000000E-03 0.  1.
         11   -1    0    0    0    0 -0.00000000000E+00 -0.00000000000E+00 -0.45593999997E+02  0.45594000000E+02  0.51100000000E-03 0. -1.
         23    2    1    2    0    0  0.00000000000E+00 -0.35527136788E-14  0.00000000000E+00  0.91188000000E+02  0.91188000000E+02 0.  0.
    9900012    2    3    3    0    0  0.17183649360E+02  0.29655348395E+02  0.13455835583E+02  0.54367122702E+02  0.40000087824E+02 0.  0.
         12    1    3    3    0    0 -0.17183649360E+02 -0.29655348395E+02 -0.13455835583E+02  0.36820877298E+02  0.00000000000E+00 0. -1.
         11    1    4    4    0    0 -0.33521338032E+01  0.95372363193E+01 -0.24962339410E+01  0.10412821990E+02  0.51100000000E-03 0. -1.
        -11    1    4    4    0    0  0.85461493763E+01  0.48334852199E+01  0.21597569931E+02  0.23724550064E+02  0.51100000000E-03 0.  1.
         12    1    4    4    0    0  0.11989633787E+02  0.15284626856E+02 -0.56455004071E+01  0.20229750649E+02  0.00000000000E+00 0. -1.
</event>
<event>
 8    1  0.1212194E-006  0.9118800E+02  0.7816164E-02  0.1184000E+00
        -11   -1    0    0    0    0  0.00000000000E+00  0.00000000000E+00  0.45593999997E+02  0.45594000000E+02  0.51100000000E-03 0.  1.
         11   -1    0    0    0    0 -0.00000000000E+00 -0.00000000000E+00 -0.45593999997E+02  0.45594000000E+02  0.51100000000E-03 0. -1.
         23    2    1    2    0    0  0.88817841970E-15  0.17763568394E-14  0.71054273576E-14  0.91188000000E+02  0.91188000000E+02 0.  0.
    9900012    2    3    3    0    0  0.75980783943E+01  0.14676928177E+02  0.32903442174E+02  0.54367088511E+02  0.40000009878E+02 0.  0.
         12    1    3    3    0    0 -0.75980783943E+01 -0.14676928177E+02 -0.32903442174E+02  0.36820911489E+02  0.00000000000E+00 0. -1.
         11    1    4    4    0    0  0.15873880733E+01  0.19520680070E+02  0.80828972741E+01  0.21187495838E+02  0.51100000000E-03 0. -1.
        -11    1    4    4    0    0 -0.24407279161E+01  0.64721610055E+01  0.39086943631E+01  0.79450558668E+01  0.51100000000E-03 0.  1.
        -12    1    4    4    0    0  0.84514182372E+01 -0.11315912898E+02  0.20911850537E+02  0.25234536806E+02  0.00000000000E+00 0.  1.
</event>
<event>
 8    1  0.1212194E-006  0.9118800E+02  0.7816164E-02  0.1184000E+00
        -11   -1    0    0    0    0  0.00000000000E+00  0.00000000000E+00  0.45593999997E+02  0.45594000000E+02  0.51100000000E-03 0.  1.
         11   -1    0    0    0    0 -0.00000000000E+00 -0.00000000000E+00 -0.45593999997E+02  0.45594000000E+02  0.51100000000E-03 0. -1.
         23    2    1    2    0    0 -0.35527136788E-14  0.00000000000E+00  0.00000000000E+00  0.91188000000E+02  0.91188000000E+02 0.  0.
    9900012    2    3    3    0    0 -0.17517921649E+02 -0.28974808676E+02  0.14469517319E+02  0.54367027062E+02  0.39999869792E+02 0.  0.
         12    1    3    3    0    0  0.17517921649E+02  0.28974808676E+02 -0.14469517319E+02  0.36820972938E+02  0.00000000000E+00 0. -1.
         11    1    4    4    0    0 -0.29144486337E+02 -0.19693030345E+02  0.85398240845E+01  0.36195926893E+02  0.51100000000E-03 0. -1.
        -11    1    4    4    0    0  0.26442585319E+01 -0.75229642981E+01  0.34484636101E+01  0.86878649015E+01  0.51100000000E-03 0.  1.
         12    1    4    4    0    0  0.89823061562E+01 -0.17588140323E+01  0.24812296243E+01  0.94832352671E+01  0.00000000000E+00 0. -1.
</event>
<event>
 8    1  0.1212194E-006  0.9118800E+02  0.7816164E-02  0.1184000E+00
        -11   -1    0    0    0    0  0.00000000000E+00  0.00000000000E+00  0.45593999997E+02  0.45594000000E+02  0.51100000000E-03 0.  1.
         11   -1    0    0    0    0 -0.00000000000E+00 -0.00000000000E+00 -0.45593999997E+02  0.45594000000E+02  0.51100000000E-03 0. -1.
         23    2    1    2    0    0  0.00000000000E+00  0.35527136788E-14  0.17763568394E-14  0.91188000000E+02  0.91188000000E+02 0.  0.
    9900012    2    3    3    0    0  0.17305989453E+02 -0.30838510886E+02 -0.10260066151E+02  0.54367082277E+02  0.39999995666E+02 0.  0.
         12    1    3    3    0    0 -0.17305989453E+02  0.30838510886E+02  0.10260066151E+02  0.36820917723E+02  0.00000000000E+00 0. -1.
         11    1    4    4    0    0  0.85438320243E+01 -0.12927392788E+01  0.37509416258E+01  0.94200745137E+01  0.51100000000E-03 0.  1.
        -11    1    4    4    0    0  0.12694889417E+02 -0.15611616534E+02 -0.20813860738E+02  0.28949949693E+02  0.51100000000E-03 0. -1.
        -12    1    4    4    0    0 -0.39327319886E+01 -0.13934155073E+02  0.68028529614E+01  0.15997058070E+02  0.00000000000E+00 0.  1.
</event>
<event>
 8    1  0.1212194E-006  0.9118800E+02  0.7816164E-02  0.1184000E+00
        -11   -1    0    0    0    0  0.00000000000E+00  0.00000000000E+00  0.45593999997E+02  0.45594000000E+02  0.51100000000E-03 0.  1.
         11   -1    0    0    0    0 -0.00000000000E+00 -0.00000000000E+00 -0.45593999997E+02  0.45594000000E+02  0.51100000000E-03 0. -1.
         23    2    1    2    0    0  0.35527136788E-14  0.00000000000E+00  0.00000000000E+00  0.91188000000E+02  0.91188000000E+02 0.  0.
    9900012    2    3    3    0    0  0.16975117101E+02  0.31174805740E+02  0.97855754603E+01  0.54367073876E+02  0.39999976515E+02 0.  0.
         12    1    3    3    0    0 -0.16975117101E+02 -0.31174805740E+02 -0.97855754603E+01  0.36820926124E+02  0.00000000000E+00 0. -1.
         11    1    4    4    0    0  0.88700969628E+01  0.25462814100E+02  0.14692420510E+02  0.30706688892E+02  0.51100000000E-03 0.  1.
        -11    1    4    4    0    0  0.12156582092E+02  0.98994147945E+01  0.53666822544E+00  0.15686583901E+02  0.51100000000E-03 0. -1.
         12    1    4    4    0    0 -0.40515619531E+01 -0.41874231544E+01 -0.54435132752E+01  0.79738010830E+01  0.00000000000E+00 0. -1.
</event>
<event>
 8    1  0.1212194E-006  0.9118800E+02  0.7816164E-02  0.1184000E+00
        -11   -1    0    0    0    0  0.00000000000E+00  0.00000000000E+00  0.45593999997E+02  0.45594000000E+02  0.51100000000E-03 0.  1.
         11   -1    0    0    0    0 -0.00000000000E+00 -0.00000000000E+00 -0.45593999997E+02  0.45594000000E+02  0.51100000000E-03 0. -1.
         23    2    1    2    0    0  0.00000000000E+00  0.00000000000E+00  0.00000000000E+00  0.91188000000E+02  0.91188000000E+02 0.  0.
    9900012    2    3    3    0    0 -0.77542244435E+01  0.86512822408E+01 -0.34940066062E+02  0.54367069844E+02  0.39999967323E+02 0.  0.
        -12    1    3    3    0    0  0.77542244435E+01 -0.86512822408E+01  0.34940066062E+02  0.36820930156E+02  0.00000000000E+00 0.  1.
         11    1    4    4    0    0 -0.90441592727E+01  0.32138303571E+01 -0.23211179386E+01  0.98748727212E+01  0.51100000000E-03 0. -1.
        -11    1    4    4    0    0  0.83254860684E+01 -0.32551064140E+01  0.10630990417E+01  0.90022006129E+01  0.51100000000E-03 0.  1.
         12    1    4    4    0    0 -0.70355512392E+01  0.86925582977E+01 -0.33682047165E+02  0.35489996510E+02  0.00000000000E+00 0. -1.
</event>
<event>
 8    1  0.1212194E-006  0.9118800E+02  0.7816164E-02  0.1184000E+00
        -11   -1    0    0    0    0  0.00000000000E+00  0.00000000000E+00  0.45593999997E+02  0.45594000000E+02  0.51100000000E-03 0. -1.
         11   -1    0    0    0    0 -0.00000000000E+00 -0.00000000000E+00 -0.45593999997E+02  0.45594000000E+02  0.51100000000E-03 0.  1.
         23    2    1    2    0    0  0.17763568394E-14  0.44408920985E-15  0.00000000000E+00  0.91188000000E+02  0.91188000000E+02 0.  0.
    9900012    2    3    3    0    0  0.14196379414E+02  0.34019636624E+01  0.33803178903E+02  0.54367279621E+02  0.40000445551E+02 0.  0.
        -12    1    3    3    0    0 -0.14196379414E+02 -0.34019636624E+01 -0.33803178903E+02  0.36820720379E+02  0.00000000000E+00 0.  1.
         11    1    4    4    0    0  0.46728294331E+00  0.11129199892E+02  0.80012371903E+01  0.13714854736E+02  0.51100000000E-03 0. -1.
        -11    1    4    4    0    0 -0.83312743382E+01 -0.17926210888E+01  0.60283660186E+01  0.10438621536E+02  0.51100000000E-03 0.  1.
         12    1    4    4    0    0  0.22060370808E+02 -0.59346151409E+01  0.19773575695E+02  0.30213803349E+02  0.00000000000E+00 0. -1.
</event>
<event>
 8    1  0.1212194E-006  0.9118800E+02  0.7816164E-02  0.1184000E+00
        -11   -1    0    0    0    0  0.00000000000E+00  0.00000000000E+00  0.45593999997E+02  0.45594000000E+02  0.51100000000E-03 0.  1.
         11   -1    0    0    0    0 -0.00000000000E+00 -0.00000000000E+00 -0.45593999997E+02  0.45594000000E+02  0.51100000000E-03 0. -1.
         23    2    1    2    0    0 -0.35527136788E-14 -0.35527136788E-14 -0.35527136788E-14  0.91188000000E+02  0.91188000000E+02 0.  0.
    9900012    2    3    3    0    0 -0.29972162004E+02 -0.10739370788E+02 -0.18496275241E+02  0.54367125786E+02  0.40000094854E+02 0.  0.
        -12    1    3    3    0    0  0.29972162004E+02  0.10739370788E+02  0.18496275241E+02  0.36820874214E+02  0.00000000000E+00 0.  1.
         11    1    4    4    0    0  0.12930581809E+01 -0.13134880445E+01 -0.52612336002E+01  0.55747492822E+01  0.51100000000E-03 0.  1.
        -11    1    4    4    0    0 -0.20532990636E+02 -0.21894393269E+02 -0.11893177938E+02  0.32286465319E+02  0.51100000000E-03 0. -1.
         12    1    4    4    0    0 -0.10732229549E+02  0.12468510526E+02 -0.13418637032E+01  0.16505911184E+02  0.00000000000E+00 0. -1.
</event>
<event>
 8    1  0.1212194E-006  0.9118800E+02  0.7816164E-02  0.1184000E+00
        -11   -1    0    0    0    0  0.00000000000E+00  0.00000000000E+00  0.45593999997E+02  0.45594000000E+02  0.51100000000E-03 0.  1.
         11   -1    0    0    0    0 -0.00000000000E+00 -0.00000000000E+00 -0.45593999997E+02  0.45594000000E+02  0.51100000000E-03 0. -1.
         23    2    1    2    0    0 -0.71054273576E-14  0.00000000000E+00  0.35527136788E-14  0.91188000000E+02  0.91188000000E+02 0.  0.
    9900012    2    3    3    0    0  0.29977294834E+02  0.11316935305E+02 -0.18140240619E+02  0.54367088008E+02  0.40000008732E+02 0.  0.
         12    1    3    3    0    0 -0.29977294834E+02 -0.11316935305E+02  0.18140240619E+02  0.36820911992E+02  0.00000000000E+00 0. -1.
         11    1    4    4    0    0  0.20559757634E+02  0.16027476387E+02 -0.12469861690E+02  0.28897769536E+02  0.51100000000E-03 0. -1.
        -11    1    4    4    0    0 -0.26042512170E+01 -0.32871895951E+01 -0.11348106187E+02  0.12098233513E+02  0.51100000000E-03 0.  1.
        -12    1    4    4    0    0  0.12021788416E+02 -0.14233514873E+01  0.56777272580E+01  0.13371084960E+02  0.00000000000E+00 0.  1.
</event>
<event>
 8    1  0.1212194E-006  0.9118800E+02  0.7816164E-02  0.1184000E+00
        -11   -1    0    0    0    0  0.00000000000E+00  0.00000000000E+00  0.45593999997E+02  0.45594000000E+02  0.51100000000E-03 0. -1.
         11   -1    0    0    0    0 -0.00000000000E+00 -0.00000000000E+00 -0.45593999997E+02  0.45594000000E+02  0.51100000000E-03 0.  1.
         23    2    1    2    0    0  0.44408920985E-15  0.00000000000E+00  0.17763568394E-14  0.91188000000E+02  0.91188000000E+02 0.  0.
    9900012    2    3    3    0    0 -0.32334814609E+01 -0.35136908992E+02 -0.10522470398E+02  0.54367079871E+02  0.39999990183E+02 0.  0.
         12    1    3    3    0    0  0.32334814609E+01  0.35136908992E+02  0.10522470398E+02  0.36820920129E+02  0.00000000000E+00 0. -1.
         11    1    4    4    0    0 -0.45024373068E+01 -0.79338015452E+01  0.11378380938E+02  0.14583713577E+02  0.51100000000E-03 0. -1.
        -11    1    4    4    0    0  0.69799309979E+01 -0.21540961495E+02 -0.85630500653E+01  0.24208640720E+02  0.51100000000E-03 0.  1.
        -12    1    4    4    0    0 -0.57109751521E+01 -0.56621459519E+01 -0.13337801271E+02  0.15574725574E+02  0.00000000000E+00 0.  1.
</event>
<event>
 8    1  0.1212194E-006  0.9118800E+02  0.7816164E-02  0.1184000E+00
        -11   -1    0    0    0    0  0.00000000000E+00  0.00000000000E+00  0.45593999997E+02  0.45594000000E+02  0.51100000000E-03 0.  1.
         11   -1    0    0    0    0 -0.00000000000E+00 -0.00000000000E+00 -0.45593999997E+02  0.45594000000E+02  0.51100000000E-03 0. -1.
         23    2    1    2    0    0  0.00000000000E+00 -0.35527136788E-14  0.00000000000E+00  0.91188000000E+02  0.91188000000E+02 0.  0.
    9900012    2    3    3    0    0  0.53808775742E+01 -0.29749917829E+02  0.21018281462E+02  0.54367087329E+02  0.40000007183E+02 0.  0.
         12    1    3    3    0    0 -0.53808775742E+01  0.29749917829E+02 -0.21018281462E+02  0.36820912671E+02  0.00000000000E+00 0. -1.
         11    1    4    4    0    0  0.61198515249E+01  0.47229656600E+01  0.11028075095E+02  0.13467643739E+02  0.51100000000E-03 0. -1.
        -11    1    4    4    0    0  0.10096060576E+01 -0.35155843331E+02  0.12879027634E+02  0.37454265147E+02  0.51100000000E-03 0.  1.
        -12    1    4    4    0    0 -0.17485800083E+01  0.68295984157E+00 -0.28888212664E+01  0.34451784424E+01  0.00000000000E+00 0.  1.
</event>
<event>
 8    1  0.1212194E-006  0.9118800E+02  0.7816164E-02  0.1184000E+00
        -11   -1    0    0    0    0  0.00000000000E+00  0.00000000000E+00  0.45593999997E+02  0.45594000000E+02  0.51100000000E-03 0. -1.
         11   -1    0    0    0    0 -0.00000000000E+00 -0.00000000000E+00 -0.45593999997E+02  0.45594000000E+02  0.51100000000E-03 0.  1.
         23    2    1    2    0    0 -0.35527136788E-14  0.17763568394E-14 -0.17763568394E-14  0.91188000000E+02  0.91188000000E+02 0.  0.
    9900012    2    3    3    0    0  0.30247673246E+02 -0.15968958826E+02  0.13632703100E+02  0.54367082350E+02  0.39999995832E+02 0.  0.
        -12    1    3    3    0    0 -0.30247673246E+02  0.15968958826E+02 -0.13632703100E+02  0.36820917650E+02  0.00000000000E+00 0.  1.
         11    1    4    4    0    0 -0.13917692758E+01 -0.34954200691E+01  0.62041223765E+01  0.72557644601E+01  0.51100000000E-03 0. -1.
        -11    1    4    4    0    0  0.27211810974E+02 -0.21613904840E+02  0.10831561220E+02  0.36400085957E+02  0.51100000000E-03 0.  1.
        -12    1    4    4    0    0  0.44276315477E+01  0.91403660831E+01 -0.34029804966E+01  0.10711231933E+02  0.00000000000E+00 0.  1.
</event>
<event>
 8    1  0.1212194E-006  0.9118800E+02  0.7816164E-02  0.1184000E+00
        -11   -1    0    0    0    0  0.00000000000E+00  0.00000000000E+00  0.45593999997E+02  0.45594000000E+02  0.51100000000E-03 0.  1.
         11   -1    0    0    0    0 -0.00000000000E+00 -0.00000000000E+00 -0.45593999997E+02  0.45594000000E+02  0.51100000000E-03 0. -1.
         23    2    1    2    0    0  0.00000000000E+00  0.88817841970E-15 -0.17763568394E-14  0.91188000000E+02  0.91188000000E+02 0.  0.
    9900012    2    3    3    0    0  0.33251476776E+02 -0.71689417861E+01 -0.14097257675E+02  0.54366985510E+02  0.39999775067E+02 0.  0.
        -12    1    3    3    0    0 -0.33251476776E+02  0.71689417861E+01  0.14097257675E+02  0.36821014490E+02  0.00000000000E+00 0.  1.
         11    1    4    4    0    0  0.13666611896E+02  0.72121306956E+01 -0.22412481928E+02  0.27223343959E+02  0.51100000000E-03 0. -1.
        -11    1    4    4    0    0  0.16309365180E+02 -0.70785440853E+01  0.49012747014E+01  0.18442442162E+02  0.51100000000E-03 0.  1.
         12    1    4    4    0    0  0.32754997001E+01 -0.73025283963E+01  0.34139495514E+01  0.87011993888E+01  0.00000000000E+00 0. -1.
</event>
<event>
 8    1  0.1212194E-006  0.9118800E+02  0.7816164E-02  0.1184000E+00
        -11   -1    0    0    0    0  0.00000000000E+00  0.00000000000E+00  0.45593999997E+02  0.45594000000E+02  0.51100000000E-03 0.  1.
         11   -1    0    0    0    0 -0.00000000000E+00 -0.00000000000E+00 -0.45593999997E+02  0.45594000000E+02  0.51100000000E-03 0. -1.
         23    2    1    2    0    0 -0.35527136788E-14  0.00000000000E+00  0.88817841970E-15  0.91188000000E+02  0.91188000000E+02 0.  0.
    9900012    2    3    3    0    0 -0.24975697624E+02 -0.26571094911E+02  0.50962226760E+01  0.54367081459E+02  0.39999993803E+02 0.  0.
         12    1    3    3    0    0  0.24975697624E+02  0.26571094911E+02 -0.50962226760E+01  0.36820918541E+02  0.00000000000E+00 0. -1.
         11    1    4    4    0    0 -0.45033318812E+01  0.13854343456E+01  0.39633603055E+01  0.61569189966E+01  0.51100000000E-03 0. -1.
        -11    1    4    4    0    0 -0.21929816100E+02 -0.22193261979E+02 -0.12287049639E+02  0.33532511097E+02  0.51100000000E-03 0.  1.
        -12    1    4    4    0    0  0.14574503567E+01 -0.57632672785E+01  0.13419912009E+02  0.14677651365E+02  0.00000000000E+00 0.  1.
</event>
<event>
 8    1  0.1212194E-006  0.9118800E+02  0.7816164E-02  0.1184000E+00
        -11   -1    0    0    0    0  0.00000000000E+00  0.00000000000E+00  0.45593999997E+02  0.45594000000E+02  0.51100000000E-03 0. -1.
         11   -1    0    0    0    0 -0.00000000000E+00 -0.00000000000E+00 -0.45593999997E+02  0.45594000000E+02  0.51100000000E-03 0.  1.
         23    2    1    2    0    0  0.00000000000E+00  0.35527136788E-14  0.00000000000E+00  0.91188000000E+02  0.91188000000E+02 0.  0.
    9900012    2    3    3    0    0  0.18937981236E+02  0.28732101243E+02  0.13099595136E+02  0.54367079752E+02  0.39999989912E+02 0.  0.
         12    1    3    3    0    0 -0.18937981236E+02 -0.28732101243E+02 -0.13099595136E+02  0.36820920248E+02  0.00000000000E+00 0. -1.
         11    1    4    4    0    0  0.14193664294E+02 -0.64434663368E+01  0.21663259400E+01  0.15737577096E+02  0.51100000000E-03 0. -1.
        -11    1    4    4    0    0  0.81826831209E+01  0.23913830625E+02  0.74777445238E+01  0.26358001852E+02  0.51100000000E-03 0.  1.
         12    1    4    4    0    0 -0.34383661787E+01  0.11261736955E+02  0.34555246726E+01  0.12271500804E+02  0.00000000000E+00 0. -1.
</event>
<event>
 8    1  0.1212194E-006  0.9118800E+02  0.7816164E-02  0.1184000E+00
        -11   -1    0    0    0    0  0.00000000000E+00  0.00000000000E+00  0.45593999997E+02  0.45594000000E+02  0.51100000000E-03 0. -1.
         11   -1    0    0    0    0 -0.00000000000E+00 -0.00000000000E+00 -0.45593999997E+02  0.45594000000E+02  0.51100000000E-03 0.  1.
         23    2    1    2    0    0  0.35527136788E-14  0.00000000000E+00  0.00000000000E+00  0.91188000000E+02  0.91188000000E+02 0.  0.
    9900012    2    3    3    0    0 -0.26299476483E+02 -0.73055452065E+01  0.24713297666E+02  0.54367074759E+02  0.39999978529E+02 0.  0.
        -12    1    3    3    0    0  0.26299476483E+02  0.73055452065E+01 -0.24713297666E+02  0.36820925241E+02  0.00000000000E+00 0.  1.
         11    1    4    4    0    0 -0.26325254292E+02 -0.19926882258E+02  0.12315369736E+02  0.35238728440E+02  0.51100000000E-03 0. -1.
        -11    1    4    4    0    0  0.32005140733E+00  0.12438048104E+02  0.81667437544E+01  0.14882982811E+02  0.51100000000E-03 0.  1.
         12    1    4    4    0    0 -0.29427359804E+00  0.18328894807E+00  0.42311841756E+01  0.42453635082E+01  0.00000000000E+00 0. -1.
</event>
<event>
 8    1  0.1212194E-006  0.9118800E+02  0.7816164E-02  0.1184000E+00
        -11   -1    0    0    0    0  0.00000000000E+00  0.00000000000E+00  0.45593999997E+02  0.45594000000E+02  0.51100000000E-03 0.  1.
         11   -1    0    0    0    0 -0.00000000000E+00 -0.00000000000E+00 -0.45593999997E+02  0.45594000000E+02  0.51100000000E-03 0. -1.
         23    2    1    2    0    0 -0.35527136788E-14  0.17763568394E-14  0.00000000000E+00  0.91188000000E+02  0.91188000000E+02 0.  0.
    9900012    2    3    3    0    0  0.22980328292E+02 -0.12241775902E+02 -0.26035040648E+02  0.54367083293E+02  0.39999997982E+02 0.  0.
        -12    1    3    3    0    0 -0.22980328292E+02  0.12241775902E+02  0.26035040648E+02  0.36820916707E+02  0.00000000000E+00 0.  1.
         11    1    4    4    0    0  0.76588538177E+01  0.76877394891E+01 -0.88277577261E+01  0.13988877260E+02  0.51100000000E-03 0. -1.
        -11    1    4    4    0    0 -0.72299920586E+01 -0.14834448927E+01 -0.30496036308E+01  0.79858297304E+01  0.51100000000E-03 0.  1.
         12    1    4    4    0    0  0.22551466532E+02 -0.18446070499E+02 -0.14157679291E+02  0.32392376302E+02  0.00000000000E+00 0. -1.
</event>
<event>
 8    1  0.1212194E-006  0.9118800E+02  0.7816164E-02  0.1184000E+00
        -11   -1    0    0    0    0  0.00000000000E+00  0.00000000000E+00  0.45593999997E+02  0.45594000000E+02  0.51100000000E-03 0. -1.
         11   -1    0    0    0    0 -0.00000000000E+00 -0.00000000000E+00 -0.45593999997E+02  0.45594000000E+02  0.51100000000E-03 0.  1.
         23    2    1    2    0    0  0.00000000000E+00 -0.44408920985E-15  0.35527136788E-14  0.91188000000E+02  0.91188000000E+02 0.  0.
    9900012    2    3    3    0    0 -0.32744083255E+02 -0.35736200069E+01  0.16456853952E+02  0.54367166357E+02  0.40000187343E+02 0.  0.
        -12    1    3    3    0    0  0.32744083255E+02  0.35736200069E+01 -0.16456853952E+02  0.36820833643E+02  0.00000000000E+00 0.  1.
         11    1    4    4    0    0 -0.45088692867E+01  0.81149324804E+01  0.17567094698E+02  0.19869193436E+02  0.51100000000E-03 0. -1.
        -11    1    4    4    0    0  0.11883710288E+01 -0.29266488149E+01 -0.20802575606E+01  0.37821912653E+01  0.51100000000E-03 0.  1.
         12    1    4    4    0    0 -0.29423584997E+02 -0.87619036724E+01  0.97001681441E+00  0.30715781655E+02  0.00000000000E+00 0. -1.
</event>
<event>
 8    1  0.1212194E-006  0.9118800E+02  0.7816164E-02  0.1184000E+00
        -11   -1    0    0    0    0  0.00000000000E+00  0.00000000000E+00  0.45593999997E+02  0.45594000000E+02  0.51100000000E-03 0.  1.
         11   -1    0    0    0    0 -0.00000000000E+00 -0.00000000000E+00 -0.45593999997E+02  0.45594000000E+02  0.51100000000E-03 0. -1.
         23    2    1    2    0    0  0.35527136788E-14  0.00000000000E+00 -0.35527136788E-14  0.91188000000E+02  0.91188000000E+02 0.  0.
    9900012    2    3    3    0    0 -0.24458291357E+02  0.22124905676E+02  0.16372551699E+02  0.54367083167E+02  0.39999997696E+02 0.  0.
        -12    1    3    3    0    0  0.24458291357E+02 -0.22124905676E+02 -0.16372551699E+02  0.36820916833E+02  0.00000000000E+00 0.  1.
         11    1    4    4    0    0 -0.90253872710E+01  0.31278024918E+01  0.41391621168E+01  0.10410255862E+02  0.51100000000E-03 0. -1.
        -11    1    4    4    0    0 -0.23985452755E+02  0.21724402558E+02  0.57127197227E+01  0.32861630776E+02  0.51100000000E-03 0.  1.
         12    1    4    4    0    0  0.85525486689E+01 -0.27272993739E+01  0.65206698595E+01  0.11095196529E+02  0.00000000000E+00 0. -1.
</event>
<event>
 8    1  0.1212194E-006  0.9118800E+02  0.7816164E-02  0.1184000E+00
        -11   -1    0    0    0    0  0.00000000000E+00  0.00000000000E+00  0.45593999997E+02  0.45594000000E+02  0.51100000000E-03 0.  1.
         11   -1    0    0    0    0 -0.00000000000E+00 -0.00000000000E+00 -0.45593999997E+02  0.45594000000E+02  0.51100000000E-03 0. -1.
         23    2    1    2    0    0  0.00000000000E+00  0.00000000000E+00  0.00000000000E+00  0.91188000000E+02  0.91188000000E+02 0.  0.
    9900012    2    3    3    0    0  0.32353391192E+02  0.11088053271E+02  0.13641561034E+02  0.54367095144E+02  0.40000025001E+02 0.  0.
         12    1    3    3    0    0 -0.32353391192E+02 -0.11088053271E+02 -0.13641561034E+02  0.36820904856E+02  0.00000000000E+00 0. -1.
         11    1    4    4    0    0  0.51939818572E+01 -0.77872744538E+01 -0.26719616806E-01  0.93605451311E+01  0.51100000000E-03 0. -1.
        -11    1    4    4    0    0  0.13236490211E+02  0.22707010302E+02  0.15399820211E+02  0.30462558211E+02  0.51100000000E-03 0.  1.
        -12    1    4    4    0    0  0.13922919124E+02 -0.38316825773E+01 -0.17315395605E+01  0.14543991802E+02  0.00000000000E+00 0.  1.
</event>
<event>
 8    1  0.1212194E-006  0.9118800E+02  0.7816164E-02  0.1184000E+00
        -11   -1    0    0    0    0  0.00000000000E+00  0.00000000000E+00  0.45593999997E+02  0.45594000000E+02  0.51100000000E-03 0.  1.
         11   -1    0    0    0    0 -0.00000000000E+00 -0.00000000000E+00 -0.45593999997E+02  0.45594000000E+02  0.51100000000E-03 0. -1.
         23    2    1    2    0    0  0.17763568394E-14 -0.35527136788E-14  0.35527136788E-14  0.91188000000E+02  0.91188000000E+02 0.  0.
    9900012    2    3    3    0    0  0.98332999502E+01 -0.29727284977E+02  0.19374565832E+02  0.54367094780E+02  0.40000024171E+02 0.  0.
        -12    1    3    3    0    0 -0.98332999502E+01  0.29727284977E+02 -0.19374565832E+02  0.36820905220E+02  0.00000000000E+00 0.  1.
         11    1    4    4    0    0  0.17078312643E+02 -0.19338317604E+02 -0.26987346297E-01  0.25800000369E+02  0.51100000000E-03 0. -1.
        -11    1    4    4    0    0 -0.10210112559E+02 -0.48689039057E-01  0.93228166978E+01  0.13826195447E+02  0.51100000000E-03 0.  1.
        -12    1    4    4    0    0  0.29650998664E+01 -0.10340278334E+02  0.10078736480E+02  0.14740898965E+02  0.00000000000E+00 0.  1.
</event>
<event>
 8    1  0.1212194E-006  0.9118800E+02  0.7816164E-02  0.1184000E+00
        -11   -1    0    0    0    0  0.00000000000E+00  0.00000000000E+00  0.45593999997E+02  0.45594000000E+02  0.51100000000E-03 0. -1.
         11   -1    0    0    0    0 -0.00000000000E+00 -0.00000000000E+00 -0.45593999997E+02  0.45594000000E+02  0.51100000000E-03 0.  1.
         23    2    1    2    0    0  0.00000000000E+00  0.35527136788E-14  0.00000000000E+00  0.91188000000E+02  0.91188000000E+02 0.  0.
    9900012    2    3    3    0    0  0.69350547501E+01  0.31518156135E+02 -0.17728269301E+02  0.54367072758E+02  0.39999973966E+02 0.  0.
         12    1    3    3    0    0 -0.69350547501E+01 -0.31518156135E+02  0.17728269301E+02  0.36820927242E+02  0.00000000000E+00 0. -1.
         11    1    4    4    0    0 -0.84675660701E+01  0.91159661569E+00 -0.51374622431E+01  0.99460646540E+01  0.51100000000E-03 0. -1.
        -11    1    4    4    0    0  0.45639984906E+01  0.82979560047E-01 -0.11093115347E+02  0.11995589865E+02  0.51100000000E-03 0.  1.
        -12    1    4    4    0    0  0.10838622330E+02  0.30523579959E+02 -0.14976917108E+01  0.32425418239E+02  0.00000000000E+00 0.  1.
</event>
<event>
 8    1  0.1212194E-006  0.9118800E+02  0.7816164E-02  0.1184000E+00
        -11   -1    0    0    0    0  0.00000000000E+00  0.00000000000E+00  0.45593999997E+02  0.45594000000E+02  0.51100000000E-03 0. -1.
         11   -1    0    0    0    0 -0.00000000000E+00 -0.00000000000E+00 -0.45593999997E+02  0.45594000000E+02  0.51100000000E-03 0.  1.
         23    2    1    2    0    0  0.00000000000E+00  0.71054273576E-14 -0.11102230246E-14  0.91188000000E+02  0.91188000000E+02 0.  0.
    9900012    2    3    3    0    0 -0.89113506139E+01 -0.35705151524E+02  0.12287605417E+01  0.54367083831E+02  0.39999999209E+02 0.  0.
         12    1    3    3    0    0  0.89113506139E+01  0.35705151524E+02 -0.12287605417E+01  0.36820916169E+02  0.00000000000E+00 0. -1.
         11    1    4    4    0    0 -0.40822112402E+01 -0.27578145830E+02  0.53259611928E+01  0.28382819432E+02  0.51100000000E-03 0. -1.
        -11    1    4    4    0    0  0.17821913811E+01 -0.12252797264E+02 -0.10235032383E+02  0.16064343592E+02  0.51100000000E-03 0.  1.
         12    1    4    4    0    0 -0.66113307548E+01  0.41257915702E+01  0.61378317320E+01  0.99199208062E+01  0.00000000000E+00 0. -1.
</event>
<event>
 8    1  0.1212194E-006  0.9118800E+02  0.7816164E-02  0.1184000E+00
        -11   -1    0    0    0    0  0.00000000000E+00  0.00000000000E+00  0.45593999997E+02  0.45594000000E+02  0.51100000000E-03 0. -1.
         11   -1    0    0    0    0 -0.00000000000E+00 -0.00000000000E+00 -0.45593999997E+02  0.45594000000E+02  0.51100000000E-03 0.  1.
         23    2    1    2    0    0  0.35527136788E-14  0.17763568394E-14  0.00000000000E+00  0.91188000000E+02  0.91188000000E+02 0.  0.
    9900012    2    3    3    0    0 -0.23250863963E+02 -0.14159933548E+02 -0.24792612384E+02  0.54367081734E+02  0.39999994430E+02 0.  0.
         12    1    3    3    0    0  0.23250863963E+02  0.14159933548E+02  0.24792612384E+02  0.36820918266E+02  0.00000000000E+00 0. -1.
         11    1    4    4    0    0 -0.16357483941E+02 -0.44479381336E+01  0.62400023464E+01  0.18063473201E+02  0.51100000000E-03 0. -1.
        -11    1    4    4    0    0 -0.90855053634E+01 -0.12367779004E+02 -0.24272796488E+02  0.28717190231E+02  0.51100000000E-03 0.  1.
        -12    1    4    4    0    0  0.21921253415E+01  0.26557835892E+01 -0.67598182426E+01  0.75864183023E+01  0.00000000000E+00 0.  1.
</event>
<event>
 8    1  0.1212194E-006  0.9118800E+02  0.7816164E-02  0.1184000E+00
        -11   -1    0    0    0    0  0.00000000000E+00  0.00000000000E+00  0.45593999997E+02  0.45594000000E+02  0.51100000000E-03 0. -1.
         11   -1    0    0    0    0 -0.00000000000E+00 -0.00000000000E+00 -0.45593999997E+02  0.45594000000E+02  0.51100000000E-03 0.  1.
         23    2    1    2    0    0  0.88817841970E-15  0.00000000000E+00  0.00000000000E+00  0.91188000000E+02  0.91188000000E+02 0.  0.
    9900012    2    3    3    0    0 -0.43124637062E+01 -0.94276077557E+01  0.35331335874E+02  0.54367076250E+02  0.39999981926E+02 0.  0.
        -12    1    3    3    0    0  0.43124637062E+01  0.94276077557E+01 -0.35331335874E+02  0.36820923750E+02  0.00000000000E+00 0.  1.
         11    1    4    4    0    0  0.43931280214E+01  0.10679050226E+02  0.14031217050E+02  0.18171866710E+02  0.51100000000E-03 0. -1.
        -11    1    4    4    0    0 -0.34691327794E+01 -0.11697217607E+02 -0.54061460333E+00  0.12212782090E+02  0.51100000000E-03 0.  1.
         12    1    4    4    0    0 -0.52364589482E+01 -0.84094403756E+01  0.21840733427E+02  0.23982427450E+02  0.00000000000E+00 0. -1.
</event>
<event>
 8    1  0.1212194E-006  0.9118800E+02  0.7816164E-02  0.1184000E+00
        -11   -1    0    0    0    0  0.00000000000E+00  0.00000000000E+00  0.45593999997E+02  0.45594000000E+02  0.51100000000E-03 0.  1.
         11   -1    0    0    0    0 -0.00000000000E+00 -0.00000000000E+00 -0.45593999997E+02  0.45594000000E+02  0.51100000000E-03 0. -1.
         23    2    1    2    0    0  0.00000000000E+00  0.00000000000E+00  0.00000000000E+00  0.91188000000E+02  0.91188000000E+02 0.  0.
    9900012    2    3    3    0    0  0.22959625838E+02  0.14647030898E+02  0.24781042338E+02  0.54367082140E+02  0.39999995354E+02 0.  0.
         12    1    3    3    0    0 -0.22959625838E+02 -0.14647030898E+02 -0.24781042338E+02  0.36820917860E+02  0.00000000000E+00 0. -1.
         11    1    4    4    0    0  0.15358344839E+01  0.79046478446E+01 -0.10648076170E+01  0.81225649047E+01  0.51100000000E-03 0. -1.
        -11    1    4    4    0    0  0.19612843310E+02 -0.55820120044E+01  0.35408663129E+01  0.20696864865E+02  0.51100000000E-03 0.  1.
        -12    1    4    4    0    0  0.18109480435E+01  0.12324395058E+02  0.22304983642E+02  0.25547652370E+02  0.00000000000E+00 0.  1.
</event>
<event>
 8    1  0.1212194E-006  0.9118800E+02  0.7816164E-02  0.1184000E+00
        -11   -1    0    0    0    0  0.00000000000E+00  0.00000000000E+00  0.45593999997E+02  0.45594000000E+02  0.51100000000E-03 0. -1.
         11   -1    0    0    0    0 -0.00000000000E+00 -0.00000000000E+00 -0.45593999997E+02  0.45594000000E+02  0.51100000000E-03 0.  1.
         23    2    1    2    0    0  0.44408920985E-15  0.00000000000E+00  0.00000000000E+00  0.91188000000E+02  0.91188000000E+02 0.  0.
    9900012    2    3    3    0    0 -0.25205762209E+01  0.47031613972E+01 -0.36432215242E+02  0.54367091007E+02  0.40000015570E+02 0.  0.
         12    1    3    3    0    0  0.25205762209E+01 -0.47031613972E+01  0.36432215242E+02  0.36820908993E+02  0.00000000000E+00 0. -1.
         11    1    4    4    0    0  0.46811974988E+01  0.19304210559E+00 -0.66849191558E+01  0.81632726071E+01  0.51100000000E-03 0. -1.
        -11    1    4    4    0    0 -0.55888595338E+01 -0.14465227479E+02 -0.85493863319E+01  0.17707912463E+02  0.51100000000E-03 0.  1.
         12    1    4    4    0    0 -0.16129141859E+01  0.18975346770E+02 -0.21197909754E+02  0.28495905937E+02  0.00000000000E+00 0. -1.
</event>
<event>
 8    1  0.1212194E-006  0.9118800E+02  0.7816164E-02  0.1184000E+00
        -11   -1    0    0    0    0  0.00000000000E+00  0.00000000000E+00  0.45593999997E+02  0.45594000000E+02  0.51100000000E-03 0.  1.
         11   -1    0    0    0    0 -0.00000000000E+00 -0.00000000000E+00 -0.45593999997E+02  0.45594000000E+02  0.51100000000E-03 0. -1.
         23    2    1    2    0    0  0.00000000000E+00  0.00000000000E+00  0.44408920985E-15  0.91188000000E+02  0.91188000000E+02 0.  0.
    9900012    2    3    3    0    0  0.24919578094E+02  0.26940181918E+02 -0.30033147713E+01  0.54367100041E+02  0.40000036164E+02 0.  0.
        -12    1    3    3    0    0 -0.24919578094E+02 -0.26940181918E+02  0.30033147713E+01  0.36820899959E+02  0.00000000000E+00 0.  1.
         11    1    4    4    0    0  0.17091854139E+02 -0.14319634979E+01 -0.98772402395E+01  0.19792470093E+02  0.51100000000E-03 0. -1.
        -11    1    4    4    0    0 -0.21139359316E+01  0.21772812299E+02  0.33326053051E+01  0.22127592253E+02  0.51100000000E-03 0.  1.
        -12    1    4    4    0    0  0.99416598863E+01  0.65993331170E+01  0.35413201630E+01  0.12447037695E+02  0.00000000000E+00 0.  1.
</event>
<event>
 8    1  0.1212194E-006  0.9118800E+02  0.7816164E-02  0.1184000E+00
        -11   -1    0    0    0    0  0.00000000000E+00  0.00000000000E+00  0.45593999997E+02  0.45594000000E+02  0.51100000000E-03 0.  1.
         11   -1    0    0    0    0 -0.00000000000E+00 -0.00000000000E+00 -0.45593999997E+02  0.45594000000E+02  0.51100000000E-03 0. -1.
         23    2    1    2    0    0  0.00000000000E+00 -0.35527136788E-14  0.00000000000E+00  0.91188000000E+02  0.91188000000E+02 0.  0.
    9900012    2    3    3    0    0  0.24021381274E+02 -0.12527724122E+02 -0.24936071936E+02  0.54367104932E+02  0.40000047313E+02 0.  0.
        -12    1    3    3    0    0 -0.24021381274E+02  0.12527724122E+02  0.24936071936E+02  0.36820895068E+02  0.00000000000E+00 0.  1.
         11    1    4    4    0    0  0.14811447088E+02 -0.16091476971E+02 -0.10558150292E+02  0.24285574603E+02  0.51100000000E-03 0. -1.
        -11    1    4    4    0    0  0.99015451466E+01  0.12435599875E+02 -0.39628828909E+01  0.16382587757E+02  0.51100000000E-03 0.  1.
        -12    1    4    4    0    0 -0.69161096008E+00 -0.88718470259E+01 -0.10415038753E+02  0.13698942572E+02  0.00000000000E+00 0.  1.
</event>
<event>
 8    1  0.1212194E-006  0.9118800E+02  0.7816164E-02  0.1184000E+00
        -11   -1    0    0    0    0  0.00000000000E+00  0.00000000000E+00  0.45593999997E+02  0.45594000000E+02  0.51100000000E-03 0.  1.
         11   -1    0    0    0    0 -0.00000000000E+00 -0.00000000000E+00 -0.45593999997E+02  0.45594000000E+02  0.51100000000E-03 0. -1.
         23    2    1    2    0    0  0.88817841970E-15  0.35527136788E-14  0.00000000000E+00  0.91188000000E+02  0.91188000000E+02 0.  0.
    9900012    2    3    3    0    0 -0.64222464969E+01  0.25097360446E+02 -0.26165955643E+02  0.54367082220E+02  0.39999995537E+02 0.  0.
        -12    1    3    3    0    0  0.64222464969E+01 -0.25097360446E+02  0.26165955643E+02  0.36820917780E+02  0.00000000000E+00 0.  1.
         11    1    4    4    0    0  0.11931188254E+02  0.10741111954E+01 -0.18351067131E+02  0.21915032127E+02  0.51100000000E-03 0.  1.
        -11    1    4    4    0    0 -0.15544095425E+02  0.23067292673E+02 -0.48096137945E+01  0.28228554319E+02  0.51100000000E-03 0. -1.
         12    1    4    4    0    0 -0.28093393259E+01  0.95595657790E+00 -0.30052747178E+01  0.42234957744E+01  0.00000000000E+00 0. -1.
</event>
<event>
 8    1  0.1212194E-006  0.9118800E+02  0.7816164E-02  0.1184000E+00
        -11   -1    0    0    0    0  0.00000000000E+00  0.00000000000E+00  0.45593999997E+02  0.45594000000E+02  0.51100000000E-03 0. -1.
         11   -1    0    0    0    0 -0.00000000000E+00 -0.00000000000E+00 -0.45593999997E+02  0.45594000000E+02  0.51100000000E-03 0.  1.
         23    2    1    2    0    0  0.00000000000E+00 -0.12212453271E-14  0.83266726847E-16  0.91188000000E+02  0.91188000000E+02 0.  0.
    9900012    2    3    3    0    0 -0.36816020526E+02  0.55787448913E+00 -0.21993756409E+00  0.54367096102E+02  0.40000027184E+02 0.  0.
         12    1    3    3    0    0  0.36816020526E+02 -0.55787448913E+00  0.21993756409E+00  0.36820903898E+02  0.00000000000E+00 0. -1.
         11    1    4    4    0    0 -0.14620182052E+01  0.81592375577E+00  0.60577607856E+01  0.62848782649E+01  0.51100000000E-03 0. -1.
        -11    1    4    4    0    0  0.12787570747E+01 -0.63937594237E+01  0.61021510239E+01  0.89303766216E+01  0.51100000000E-03 0.  1.
        -12    1    4    4    0    0 -0.36632759396E+02  0.61357101571E+01 -0.12379849374E+02  0.39151841216E+02  0.00000000000E+00 0.  1.
</event>
<event>
 8    1  0.1212194E-006  0.9118800E+02  0.7816164E-02  0.1184000E+00
        -11   -1    0    0    0    0  0.00000000000E+00  0.00000000000E+00  0.45593999997E+02  0.45594000000E+02  0.51100000000E-03 0.  1.
         11   -1    0    0    0    0 -0.00000000000E+00 -0.00000000000E+00 -0.45593999997E+02  0.45594000000E+02  0.51100000000E-03 0. -1.
         23    2    1    2    0    0  0.00000000000E+00  0.00000000000E+00  0.00000000000E+00  0.91188000000E+02  0.91188000000E+02 0.  0.
    9900012    2    3    3    0    0 -0.16232490954E+02  0.21805740145E+02  0.24835385635E+02  0.54367075983E+02  0.39999981318E+02 0.  0.
         12    1    3    3    0    0  0.16232490954E+02 -0.21805740145E+02 -0.24835385635E+02  0.36820924017E+02  0.00000000000E+00 0. -1.
         11    1    4    4    0    0 -0.11710034396E+01  0.19760023411E+02  0.10712872918E+02  0.22507674706E+02  0.51100000000E-03 0. -1.
        -11    1    4    4    0    0 -0.12973907281E+01 -0.31407470045E+01 -0.60230849056E+01  0.69155669680E+01  0.51100000000E-03 0.  1.
        -12    1    4    4    0    0 -0.13764096787E+02  0.51864637385E+01  0.20145597623E+02  0.24943834309E+02  0.00000000000E+00 0.  1.
</event>
<event>
 8    1  0.1212194E-006  0.9118800E+02  0.7816164E-02  0.1184000E+00
        -11   -1    0    0    0    0  0.00000000000E+00  0.00000000000E+00  0.45593999997E+02  0.45594000000E+02  0.51100000000E-03 0.  1.
         11   -1    0    0    0    0 -0.00000000000E+00 -0.00000000000E+00 -0.45593999997E+02  0.45594000000E+02  0.51100000000E-03 0. -1.
         23    2    1    2    0    0 -0.88817841970E-15  0.00000000000E+00  0.00000000000E+00  0.91188000000E+02  0.91188000000E+02 0.  0.
    9900012    2    3    3    0    0  0.54684352378E+01  0.69024443104E+01  0.35752375196E+02  0.54367084021E+02  0.39999999642E+02 0.  0.
         12    1    3    3    0    0 -0.54684352378E+01 -0.69024443104E+01 -0.35752375196E+02  0.36820915979E+02  0.00000000000E+00 0. -1.
         11    1    4    4    0    0 -0.50068285770E+01  0.13134357232E+02  0.10174525594E+02  0.17352251831E+02  0.51100000000E-03 0. -1.
        -11    1    4    4    0    0  0.70295290601E+01 -0.55141700915E+01  0.30034945908E+02  0.31335576053E+02  0.51100000000E-03 0.  1.
        -12    1    4    4    0    0  0.34457347547E+01 -0.71774282984E+00 -0.44570963069E+01  0.56792561361E+01  0.00000000000E+00 0.  1.
</event>
<event>
 8    1  0.1212194E-006  0.9118800E+02  0.7816164E-02  0.1184000E+00
        -11   -1    0    0    0    0  0.00000000000E+00  0.00000000000E+00  0.45593999997E+02  0.45594000000E+02  0.51100000000E-03 0. -1.
         11   -1    0    0    0    0 -0.00000000000E+00 -0.00000000000E+00 -0.45593999997E+02  0.45594000000E+02  0.51100000000E-03 0.  1.
         23    2    1    2    0    0  0.44408920985E-15  0.00000000000E+00  0.17763568394E-14  0.91188000000E+02  0.91188000000E+02 0.  0.
    9900012    2    3    3    0    0  0.10367411707E+01  0.33477248992E+02  0.15296301116E+02  0.54367111089E+02  0.40000061351E+02 0.  0.
        -12    1    3    3    0    0 -0.10367411707E+01 -0.33477248992E+02 -0.15296301116E+02  0.36820888911E+02  0.00000000000E+00 0.  1.
         11    1    4    4    0    0  0.47282126007E+00  0.18813701191E+01  0.12966368886E+01  0.23333197275E+01  0.51100000000E-03 0. -1.
        -11    1    4    4    0    0 -0.24016755047E+01  0.20683373362E+02  0.27454786894E+02  0.34457732115E+02  0.51100000000E-03 0.  1.
        -12    1    4    4    0    0  0.29655954153E+01  0.10912505511E+02 -0.13455122666E+02  0.17576059247E+02  0.00000000000E+00 0.  1.
</event>
<event>
 8    1  0.1212194E-006  0.9118800E+02  0.7816164E-02  0.1184000E+00
        -11   -1    0    0    0    0  0.00000000000E+00  0.00000000000E+00  0.45593999997E+02  0.45594000000E+02  0.51100000000E-03 0.  1.
         11   -1    0    0    0    0 -0.00000000000E+00 -0.00000000000E+00 -0.45593999997E+02  0.45594000000E+02  0.51100000000E-03 0. -1.
         23    2    1    2    0    0 -0.88817841970E-15  0.00000000000E+00  0.00000000000E+00  0.91188000000E+02  0.91188000000E+02 0.  0.
    9900012    2    3    3    0    0  0.57679113919E+01 -0.61390948644E+01 -0.35844347112E+02  0.54367156616E+02  0.40000165138E+02 0.  0.
        -12    1    3    3    0    0 -0.57679113919E+01  0.61390948644E+01  0.35844347112E+02  0.36820843384E+02  0.00000000000E+00 0.  1.
         11    1    4    4    0    0  0.10566223942E+01  0.85785562897E+01 -0.20654227001E+02  0.22389845292E+02  0.51100000000E-03 0. -1.
        -11    1    4    4    0    0 -0.53150570021E+01 -0.11395706447E+02  0.10353551241E+01  0.12616810883E+02  0.51100000000E-03 0.  1.
        -12    1    4    4    0    0  0.10026346000E+02 -0.33219447067E+01 -0.16225475235E+02  0.19360500441E+02  0.00000000000E+00 0.  1.
</event>
<event>
 8    1  0.1212194E-006  0.9118800E+02  0.7816164E-02  0.1184000E+00
        -11   -1    0    0    0    0  0.00000000000E+00  0.00000000000E+00  0.45593999997E+02  0.45594000000E+02  0.51100000000E-03 0. -1.
         11   -1    0    0    0    0 -0.00000000000E+00 -0.00000000000E+00 -0.45593999997E+02  0.45594000000E+02  0.51100000000E-03 0.  1.
         23    2    1    2    0    0  0.17763568394E-14 -0.17763568394E-14  0.00000000000E+00  0.91188000000E+02  0.91188000000E+02 0.  0.
    9900012    2    3    3    0    0 -0.10972721024E+02 -0.12682812857E+02  0.32779969848E+02  0.54367071551E+02  0.39999971215E+02 0.  0.
        -12    1    3    3    0    0  0.10972721024E+02  0.12682812857E+02 -0.32779969848E+02  0.36820928449E+02  0.00000000000E+00 0.  1.
         11    1    4    4    0    0 -0.10383472058E+02 -0.15864352600E+02  0.11061504811E+02  0.21951106221E+02  0.51100000000E-03 0. -1.
        -11    1    4    4    0    0 -0.24960571476E+01 -0.45693464383E+01 -0.32937466486E+01  0.61610060383E+01  0.51100000000E-03 0.  1.
        -12    1    4    4    0    0  0.19068081813E+01  0.77508861806E+01  0.25012211685E+02  0.26254959292E+02  0.00000000000E+00 0.  1.
</event>
<event>
 8    1  0.1212194E-006  0.9118800E+02  0.7816164E-02  0.1184000E+00
        -11   -1    0    0    0    0  0.00000000000E+00  0.00000000000E+00  0.45593999997E+02  0.45594000000E+02  0.51100000000E-03 0. -1.
         11   -1    0    0    0    0 -0.00000000000E+00 -0.00000000000E+00 -0.45593999997E+02  0.45594000000E+02  0.51100000000E-03 0.  1.
         23    2    1    2    0    0  0.17763568394E-14 -0.88817841970E-15  0.00000000000E+00  0.91188000000E+02  0.91188000000E+02 0.  0.
    9900012    2    3    3    0    0 -0.11188454234E+02 -0.32562382897E+01  0.34928431085E+02  0.54367083471E+02  0.39999998389E+02 0.  0.
        -12    1    3    3    0    0  0.11188454234E+02  0.32562382897E+01 -0.34928431085E+02  0.36820916529E+02  0.00000000000E+00 0.  1.
         11    1    4    4    0    0 -0.12808837864E+02 -0.90339504695E+01  0.26727074152E+02  0.30984110145E+02  0.51100000000E-03 0. -1.
        -11    1    4    4    0    0  0.99875707628E+00 -0.80030790483E+01  0.23689769360E+01  0.84058813895E+01  0.51100000000E-03 0.  1.
        -12    1    4    4    0    0  0.62162655301E+00  0.13780791228E+02  0.58323799975E+01  0.14977091937E+02  0.00000000000E+00 0.  1.
</event>
<event>
 8    1  0.1212194E-006  0.9118800E+02  0.7816164E-02  0.1184000E+00
        -11   -1    0    0    0    0  0.00000000000E+00  0.00000000000E+00  0.45593999997E+02  0.45594000000E+02  0.51100000000E-03 0.  1.
         11   -1    0    0    0    0 -0.00000000000E+00 -0.00000000000E+00 -0.45593999997E+02  0.45594000000E+02  0.51100000000E-03 0. -1.
         23    2    1    2    0    0  0.00000000000E+00 -0.88817841970E-15  0.35527136788E-14  0.91188000000E+02  0.91188000000E+02 0.  0.
    9900012    2    3    3    0    0 -0.28048092518E+02  0.63589234159E+01 -0.22992372690E+02  0.54367073846E+02  0.39999976448E+02 0.  0.
         12    1    3    3    0    0  0.28048092518E+02 -0.63589234159E+01  0.22992372690E+02  0.36820926154E+02  0.00000000000E+00 0. -1.
         11    1    4    4    0    0  0.29551746612E+00 -0.19374758308E+01  0.19448959044E+00  0.19695099974E+01  0.51100000000E-03 0. -1.
        -11    1    4    4    0    0 -0.27705364587E+02  0.11944205873E+02 -0.12986667812E+01  0.30198308173E+02  0.51100000000E-03 0.  1.
        -12    1    4    4    0    0 -0.63824539665E+00 -0.36478066262E+01 -0.21888195499E+02  0.22199255676E+02  0.00000000000E+00 0.  1.
</event>
<event>
 8    1  0.1212194E-006  0.9118800E+02  0.7816164E-02  0.1184000E+00
        -11   -1    0    0    0    0  0.00000000000E+00  0.00000000000E+00  0.45593999997E+02  0.45594000000E+02  0.51100000000E-03 0.  1.
         11   -1    0    0    0    0 -0.00000000000E+00 -0.00000000000E+00 -0.45593999997E+02  0.45594000000E+02  0.51100000000E-03 0. -1.
         23    2    1    2    0    0  0.00000000000E+00  0.99920072216E-15 -0.71054273576E-14  0.91188000000E+02  0.91188000000E+02 0.  0.
    9900012    2    3    3    0    0 -0.21608914052E+02  0.91260544789E+00  0.29799363048E+02  0.54367081309E+02  0.39999993460E+02 0.  0.
         12    1    3    3    0    0  0.21608914052E+02 -0.91260544789E+00 -0.29799363048E+02  0.36820918691E+02  0.00000000000E+00 0. -1.
         11    1    4    4    0    0 -0.13267653124E+02  0.16687450637E+02  0.14797538537E+02  0.25951276947E+02  0.51100000000E-03 0. -1.
        -11    1    4    4    0    0 -0.19289479521E+01 -0.99582348448E+01  0.16751692547E+02  0.19583321599E+02  0.51100000000E-03 0.  1.
         12    1    4    4    0    0 -0.64123129762E+01 -0.58166103443E+01 -0.17498680361E+01  0.88324827623E+01  0.00000000000E+00 0. -1.
</event>
<event>
 8    1  0.1212194E-006  0.9118800E+02  0.7816164E-02  0.1184000E+00
        -11   -1    0    0    0    0  0.00000000000E+00  0.00000000000E+00  0.45593999997E+02  0.45594000000E+02  0.51100000000E-03 0.  1.
         11   -1    0    0    0    0 -0.00000000000E+00 -0.00000000000E+00 -0.45593999997E+02  0.45594000000E+02  0.51100000000E-03 0. -1.
         23    2    1    2    0    0  0.00000000000E+00  0.35527136788E-14 -0.35527136788E-14  0.91188000000E+02  0.91188000000E+02 0.  0.
    9900012    2    3    3    0    0 -0.18188967399E+02  0.26129058867E+02  0.18499022928E+02  0.54367080653E+02  0.39999991964E+02 0.  0.
         12    1    3    3    0    0  0.18188967399E+02 -0.26129058867E+02 -0.18499022928E+02  0.36820919347E+02  0.00000000000E+00 0. -1.
         11    1    4    4    0    0  0.53553615205E+01 -0.38060963490E+01  0.67924304170E+01  0.94500464371E+01  0.51100000000E-03 0. -1.
        -11    1    4    4    0    0 -0.11199136078E+02  0.17747227474E+02  0.16750482888E+02  0.26850761798E+02  0.51100000000E-03 0.  1.
         12    1    4    4    0    0 -0.12345192842E+02  0.12187927742E+02 -0.50438903766E+01  0.18066272418E+02  0.00000000000E+00 0. -1.
</event>
<event>
 8    1  0.1212194E-006  0.9118800E+02  0.7816164E-02  0.1184000E+00
        -11   -1    0    0    0    0  0.00000000000E+00  0.00000000000E+00  0.45593999997E+02  0.45594000000E+02  0.51100000000E-03 0.  1.
         11   -1    0    0    0    0 -0.00000000000E+00 -0.00000000000E+00 -0.45593999997E+02  0.45594000000E+02  0.51100000000E-03 0. -1.
         23    2    1    2    0    0 -0.44408920985E-15  0.35527136788E-14  0.00000000000E+00  0.91188000000E+02  0.91188000000E+02 0.  0.
    9900012    2    3    3    0    0 -0.62240202563E+00  0.17198694627E+02 -0.32551477048E+02  0.54367066563E+02  0.39999959844E+02 0.  0.
        -12    1    3    3    0    0  0.62240202563E+00 -0.17198694627E+02  0.32551477048E+02  0.36820933437E+02  0.00000000000E+00 0.  1.
         11    1    4    4    0    0 -0.80712002322E+01  0.13649903669E+02 -0.31496842753E+02  0.35263511553E+02  0.51100000000E-03 0. -1.
        -11    1    4    4    0    0  0.85805375323E+01  0.26305771571E+00 -0.77465830226E+01  0.11563060689E+02  0.51100000000E-03 0.  1.
         12    1    4    4    0    0 -0.11317393257E+01  0.32857332419E+01  0.66919487278E+01  0.75404943216E+01  0.00000000000E+00 0. -1.
</event>
<event>
 8    1  0.1212194E-006  0.9118800E+02  0.7816164E-02  0.1184000E+00
        -11   -1    0    0    0    0  0.00000000000E+00  0.00000000000E+00  0.45593999997E+02  0.45594000000E+02  0.51100000000E-03 0.  1.
         11   -1    0    0    0    0 -0.00000000000E+00 -0.00000000000E+00 -0.45593999997E+02  0.45594000000E+02  0.51100000000E-03 0. -1.
         23    2    1    2    0    0 -0.26645352591E-14  0.00000000000E+00  0.00000000000E+00  0.91188000000E+02  0.91188000000E+02 0.  0.
    9900012    2    3    3    0    0  0.75689790989E+01  0.35650564286E+02 -0.52466412890E+01  0.54367089863E+02  0.40000012961E+02 0.  0.
         12    1    3    3    0    0 -0.75689790989E+01 -0.35650564286E+02  0.52466412890E+01  0.36820910137E+02  0.00000000000E+00 0. -1.
         11    1    4    4    0    0  0.52035932230E+01  0.38358459314E+00  0.43457785476E+01  0.67904573496E+01  0.51100000000E-03 0. -1.
        -11    1    4    4    0    0  0.16052641348E+02  0.21477090064E+02 -0.26490503623E+01  0.26943833431E+02  0.51100000000E-03 0.  1.
         12    1    4    4    0    0 -0.13687255472E+02  0.13789889628E+02 -0.69433694743E+01  0.20632799083E+02  0.00000000000E+00 0. -1.
</event>
<event>
 8    1  0.1212194E-006  0.9118800E+02  0.7816164E-02  0.1184000E+00
        -11   -1    0    0    0    0  0.00000000000E+00  0.00000000000E+00  0.45593999997E+02  0.45594000000E+02  0.51100000000E-03 0.  1.
         11   -1    0    0    0    0 -0.00000000000E+00 -0.00000000000E+00 -0.45593999997E+02  0.45594000000E+02  0.51100000000E-03 0. -1.
         23    2    1    2    0    0  0.17763568394E-14 -0.35527136788E-14  0.00000000000E+00  0.91188000000E+02  0.91188000000E+02 0.  0.
    9900012    2    3    3    0    0  0.13643019962E+02  0.31071364807E+02 -0.14290465264E+02  0.54367094225E+02  0.40000022904E+02 0.  0.
        -12    1    3    3    0    0 -0.13643019962E+02 -0.31071364807E+02  0.14290465264E+02  0.36820905775E+02  0.00000000000E+00 0.  1.
         11    1    4    4    0    0  0.88541225748E+01  0.28959069075E+02 -0.18659798762E+02  0.35569808242E+02  0.51100000000E-03 0. -1.
        -11    1    4    4    0    0  0.73969789636E+01  0.55472126107E+01 -0.34490229921E+01  0.98682635452E+01  0.51100000000E-03 0.  1.
        -12    1    4    4    0    0 -0.26080815767E+01 -0.34349168791E+01  0.78183564904E+01  0.89290224374E+01  0.00000000000E+00 0.  1.
</event>
<event>
 8    1  0.1212194E-006  0.9118800E+02  0.7816164E-02  0.1184000E+00
        -11   -1    0    0    0    0  0.00000000000E+00  0.00000000000E+00  0.45593999997E+02  0.45594000000E+02  0.51100000000E-03 0. -1.
         11   -1    0    0    0    0 -0.00000000000E+00 -0.00000000000E+00 -0.45593999997E+02  0.45594000000E+02  0.51100000000E-03 0.  1.
         23    2    1    2    0    0  0.00000000000E+00  0.00000000000E+00  0.00000000000E+00  0.91188000000E+02  0.91188000000E+02 0.  0.
    9900012    2    3    3    0    0 -0.23675080693E+02 -0.21642200192E+02 -0.18079968119E+02  0.54367088521E+02  0.40000009900E+02 0.  0.
         12    1    3    3    0    0  0.23675080693E+02  0.21642200192E+02  0.18079968119E+02  0.36820911479E+02  0.00000000000E+00 0. -1.
         11    1    4    4    0    0 -0.64803337863E+01 -0.22883387639E+02  0.11819082697E+01  0.23812624031E+02  0.51100000000E-03 0. -1.
        -11    1    4    4    0    0 -0.17838501092E+02 -0.15882218881E+01 -0.93024539639E+01  0.20180937044E+02  0.51100000000E-03 0.  1.
         12    1    4    4    0    0  0.64375418511E+00  0.28294093346E+01 -0.99594224244E+01  0.10373527445E+02  0.00000000000E+00 0. -1.
</event>
<event>
 8    1  0.1212194E-006  0.9118800E+02  0.7816164E-02  0.1184000E+00
        -11   -1    0    0    0    0  0.00000000000E+00  0.00000000000E+00  0.45593999997E+02  0.45594000000E+02  0.51100000000E-03 0.  1.
         11   -1    0    0    0    0 -0.00000000000E+00 -0.00000000000E+00 -0.45593999997E+02  0.45594000000E+02  0.51100000000E-03 0. -1.
         23    2    1    2    0    0  0.00000000000E+00 -0.17763568394E-14  0.00000000000E+00  0.91188000000E+02  0.91188000000E+02 0.  0.
    9900012    2    3    3    0    0 -0.16874913547E+02  0.75556999992E+00  0.32717671922E+02  0.54367086795E+02  0.40000005967E+02 0.  0.
         12    1    3    3    0    0  0.16874913547E+02 -0.75556999992E+00 -0.32717671922E+02  0.36820913205E+02  0.00000000000E+00 0. -1.
         11    1    4    4    0    0 -0.12076529349E+02 -0.10307705004E+02  0.13380354290E+02  0.20763555205E+02  0.51100000000E-03 0.  1.
        -11    1    4    4    0    0 -0.28585638718E+01 -0.74699935460E+01  0.22205355562E+01  0.83007812527E+01  0.51100000000E-03 0. -1.
        -12    1    4    4    0    0 -0.19398203261E+01  0.18533268550E+02  0.17116782076E+02  0.25302750338E+02  0.00000000000E+00 0.  1.
</event>
<event>
 8    1  0.1212194E-006  0.9118800E+02  0.7816164E-02  0.1184000E+00
        -11   -1    0    0    0    0  0.00000000000E+00  0.00000000000E+00  0.45593999997E+02  0.45594000000E+02  0.51100000000E-03 0.  1.
         11   -1    0    0    0    0 -0.00000000000E+00 -0.00000000000E+00 -0.45593999997E+02  0.45594000000E+02  0.51100000000E-03 0. -1.
         23    2    1    2    0    0 -0.17763568394E-14  0.00000000000E+00  0.22204460493E-15  0.91188000000E+02  0.91188000000E+02 0.  0.
    9900012    2    3    3    0    0 -0.14179816919E+02  0.33971451148E+02  0.80816169253E+00  0.54367084391E+02  0.40000000487E+02 0.  0.
        -12    1    3    3    0    0  0.14179816919E+02 -0.33971451148E+02 -0.80816169253E+00  0.36820915609E+02  0.00000000000E+00 0.  1.
         11    1    4    4    0    0 -0.77509497128E+01  0.36309876650E+01  0.26385159766E+01  0.89567326461E+01  0.51100000000E-03 0. -1.
        -11    1    4    4    0    0 -0.72199950986E+01 -0.64975024646E+00 -0.10918015738E+02  0.13105478722E+02  0.51100000000E-03 0.  1.
         12    1    4    4    0    0  0.79112789246E+00  0.30990213729E+02  0.90876614544E+01  0.32304873023E+02  0.00000000000E+00 0. -1.
</event>
<event>
 8    1  0.1212194E-006  0.9118800E+02  0.7816164E-02  0.1184000E+00
        -11   -1    0    0    0    0  0.00000000000E+00  0.00000000000E+00  0.45593999997E+02  0.45594000000E+02  0.51100000000E-03 0. -1.
         11   -1    0    0    0    0 -0.00000000000E+00 -0.00000000000E+00 -0.45593999997E+02  0.45594000000E+02  0.51100000000E-03 0.  1.
         23    2    1    2    0    0  0.88817841970E-15  0.26645352591E-14  0.00000000000E+00  0.91188000000E+02  0.91188000000E+02 0.  0.
    9900012    2    3    3    0    0  0.26775226891E+01  0.25581886928E+01  0.36634229691E+02  0.54367078744E+02  0.39999987612E+02 0.  0.
        -12    1    3    3    0    0 -0.26775226891E+01 -0.25581886928E+01 -0.36634229691E+02  0.36820921256E+02  0.00000000000E+00 0.  1.
         11    1    4    4    0    0 -0.65273983979E+00 -0.14381415060E+02  0.24351934193E+02  0.28289006127E+02  0.51100000000E-03 0. -1.
        -11    1    4    4    0    0 -0.23143534261E+01 -0.14357406370E+01 -0.78498099245E+00  0.28343920648E+01  0.51100000000E-03 0.  1.
         12    1    4    4    0    0  0.56446159550E+01  0.18375344390E+02  0.13067276490E+02  0.23243680552E+02  0.00000000000E+00 0. -1.
</event>
<event>
 8    1  0.1212194E-006  0.9118800E+02  0.7816164E-02  0.1184000E+00
        -11   -1    0    0    0    0  0.00000000000E+00  0.00000000000E+00  0.45593999997E+02  0.45594000000E+02  0.51100000000E-03 0.  1.
         11   -1    0    0    0    0 -0.00000000000E+00 -0.00000000000E+00 -0.45593999997E+02  0.45594000000E+02  0.51100000000E-03 0. -1.
         23    2    1    2    0    0 -0.35527136788E-14 -0.17763568394E-14 -0.35527136788E-14  0.91188000000E+02  0.91188000000E+02 0.  0.
    9900012    2    3    3    0    0  0.15590326055E+02 -0.14257271583E+02 -0.30157132708E+02  0.54367072354E+02  0.39999973046E+02 0.  0.
        -12    1    3    3    0    0 -0.15590326055E+02  0.14257271583E+02  0.30157132708E+02  0.36820927646E+02  0.00000000000E+00 0.  1.
         11    1    4    4    0    0 -0.38596270308E+01  0.54184302303E+01 -0.13333839929E+02  0.14901254796E+02  0.51100000000E-03 0. -1.
        -11    1    4    4    0    0  0.28445979882E+01 -0.94470992804E+01  0.42589601340E+01  0.10746076689E+02  0.51100000000E-03 0.  1.
         12    1    4    4    0    0  0.16605355098E+02 -0.10228602533E+02 -0.21082252913E+02  0.28719740869E+02  0.00000000000E+00 0. -1.
</event>
<event>
 8    1  0.1212194E-006  0.9118800E+02  0.7816164E-02  0.1184000E+00
        -11   -1    0    0    0    0  0.00000000000E+00  0.00000000000E+00  0.45593999997E+02  0.45594000000E+02  0.51100000000E-03 0. -1.
         11   -1    0    0    0    0 -0.00000000000E+00 -0.00000000000E+00 -0.45593999997E+02  0.45594000000E+02  0.51100000000E-03 0.  1.
         23    2    1    2    0    0  0.00000000000E+00 -0.35527136788E-14  0.00000000000E+00  0.91188000000E+02  0.91188000000E+02 0.  0.
    9900012    2    3    3    0    0  0.16209606662E+02 -0.30172259033E+02  0.13515952501E+02  0.54366843917E+02  0.39999452274E+02 0.  0.
        -12    1    3    3    0    0 -0.16209606662E+02  0.30172259033E+02 -0.13515952501E+02  0.36821156083E+02  0.00000000000E+00 0.  1.
         11    1    4    4    0    0  0.20598169547E+02 -0.34401455572E+02  0.14142258344E+02  0.42517622293E+02  0.51100000000E-03 0. -1.
        -11    1    4    4    0    0  0.22051908074E+01  0.46519709552E+01  0.39567830394E+00  0.51633576136E+01  0.51100000000E-03 0.  1.
         12    1    4    4    0    0 -0.65937536928E+01 -0.42277441626E+00 -0.10219841465E+01  0.66858640103E+01  0.00000000000E+00 0. -1.
</event>
<event>
 8    1  0.1212194E-006  0.9118800E+02  0.7816164E-02  0.1184000E+00
        -11   -1    0    0    0    0  0.00000000000E+00  0.00000000000E+00  0.45593999997E+02  0.45594000000E+02  0.51100000000E-03 0.  1.
         11   -1    0    0    0    0 -0.00000000000E+00 -0.00000000000E+00 -0.45593999997E+02  0.45594000000E+02  0.51100000000E-03 0. -1.
         23    2    1    2    0    0  0.00000000000E+00  0.00000000000E+00 -0.17763568394E-14  0.91188000000E+02  0.91188000000E+02 0.  0.
    9900012    2    3    3    0    0 -0.31119534074E+02  0.17351976817E+02 -0.92879028494E+01  0.54367059765E+02  0.39999944346E+02 0.  0.
         12    1    3    3    0    0  0.31119534074E+02 -0.17351976817E+02  0.92879028494E+01  0.36820940235E+02  0.00000000000E+00 0. -1.
         11    1    4    4    0    0  0.39475882089E+01 -0.59086233217E+01 -0.64562375002E+01  0.96009523040E+01  0.51100000000E-03 0. -1.
        -11    1    4    4    0    0 -0.13225634070E+02  0.93916458353E+01  0.61953240134E+01  0.17363825844E+02  0.51100000000E-03 0.  1.
        -12    1    4    4    0    0 -0.21841488214E+02  0.13868954304E+02 -0.90269893626E+01  0.27402281617E+02  0.00000000000E+00 0.  1.
</event>
<event>
 8    1  0.1212194E-006  0.9118800E+02  0.7816164E-02  0.1184000E+00
        -11   -1    0    0    0    0  0.00000000000E+00  0.00000000000E+00  0.45593999997E+02  0.45594000000E+02  0.51100000000E-03 0. -1.
         11   -1    0    0    0    0 -0.00000000000E+00 -0.00000000000E+00 -0.45593999997E+02  0.45594000000E+02  0.51100000000E-03 0.  1.
         23    2    1    2    0    0  0.88817841970E-15  0.00000000000E+00  0.00000000000E+00  0.91188000000E+02  0.91188000000E+02 0.  0.
    9900012    2    3    3    0    0 -0.41648960768E+01 -0.16214959555E+02 -0.32794888482E+02  0.54367136576E+02  0.40000119453E+02 0.  0.
         12    1    3    3    0    0  0.41648960768E+01  0.16214959555E+02  0.32794888482E+02  0.36820863424E+02  0.00000000000E+00 0. -1.
         11    1    4    4    0    0 -0.12773922950E+02 -0.15006028008E+02 -0.17159752980E+02  0.26130654540E+02  0.51100000000E-03 0. -1.
        -11    1    4    4    0    0  0.14023327641E+02  0.51379096386E+01 -0.80755840365E+01  0.16978424290E+02  0.51100000000E-03 0.  1.
        -12    1    4    4    0    0 -0.54143007684E+01 -0.63468411863E+01 -0.75595514662E+01  0.11258057747E+02  0.00000000000E+00 0.  1.
</event>
<event>
 8    1  0.1212194E-006  0.9118800E+02  0.7816164E-02  0.1184000E+00
        -11   -1    0    0    0    0  0.00000000000E+00  0.00000000000E+00  0.45593999997E+02  0.45594000000E+02  0.51100000000E-03 0. -1.
         11   -1    0    0    0    0 -0.00000000000E+00 -0.00000000000E+00 -0.45593999997E+02  0.45594000000E+02  0.51100000000E-03 0.  1.
         23    2    1    2    0    0 -0.35527136788E-14 -0.44408920985E-15  0.00000000000E+00  0.91188000000E+02  0.91188000000E+02 0.  0.
    9900012    2    3    3    0    0  0.20089198254E+02  0.38095931068E+01 -0.30621760246E+02  0.54367067276E+02  0.39999961469E+02 0.  0.
         12    1    3    3    0    0 -0.20089198254E+02 -0.38095931068E+01  0.30621760246E+02  0.36820932724E+02  0.00000000000E+00 0. -1.
         11    1    4    4    0    0  0.71281753647E+00 -0.66679781976E+01 -0.95422941646E+01  0.11662993624E+02  0.51100000000E-03 0. -1.
        -11    1    4    4    0    0  0.24443267127E+02 -0.10804681981E+01 -0.14965875257E+02  0.28681320434E+02  0.51100000000E-03 0.  1.
        -12    1    4    4    0    0 -0.50668864102E+01  0.11558039502E+02 -0.61135908247E+01  0.14022753218E+02  0.00000000000E+00 0.  1.
</event>
<event>
 8    1  0.1212194E-006  0.9118800E+02  0.7816164E-02  0.1184000E+00
        -11   -1    0    0    0    0  0.00000000000E+00  0.00000000000E+00  0.45593999997E+02  0.45594000000E+02  0.51100000000E-03 0.  1.
         11   -1    0    0    0    0 -0.00000000000E+00 -0.00000000000E+00 -0.45593999997E+02  0.45594000000E+02  0.51100000000E-03 0. -1.
         23    2    1    2    0    0 -0.17763568394E-14 -0.17763568394E-14  0.00000000000E+00  0.91188000000E+02  0.91188000000E+02 0.  0.
    9900012    2    3    3    0    0  0.35351557758E+01  0.14442243146E+02  0.33685370806E+02  0.54367083121E+02  0.39999997592E+02 0.  0.
         12    1    3    3    0    0 -0.35351557758E+01 -0.14442243146E+02 -0.33685370806E+02  0.36820916879E+02  0.00000000000E+00 0. -1.
         11    1    4    4    0    0  0.10509444311E+02  0.87151414482E+01 -0.34508765289E+01  0.14082281749E+02  0.51100000000E-03 0. -1.
        -11    1    4    4    0    0 -0.22119468585E+01 -0.35013056441E+01  0.18427191617E+02  0.18886853663E+02  0.51100000000E-03 0.  1.
        -12    1    4    4    0    0 -0.47623416770E+01  0.92284073420E+01  0.18709055718E+02  0.21397947709E+02  0.00000000000E+00 0.  1.
</event>
<event>
 8    1  0.1212194E-006  0.9118800E+02  0.7816164E-02  0.1184000E+00
        -11   -1    0    0    0    0  0.00000000000E+00  0.00000000000E+00  0.45593999997E+02  0.45594000000E+02  0.51100000000E-03 0.  1.
         11   -1    0    0    0    0 -0.00000000000E+00 -0.00000000000E+00 -0.45593999997E+02  0.45594000000E+02  0.51100000000E-03 0. -1.
         23    2    1    2    0    0 -0.17763568394E-14  0.00000000000E+00  0.35527136788E-14  0.91188000000E+02  0.91188000000E+02 0.  0.
    9900012    2    3    3    0    0  0.96866602268E+01 -0.24178190226E+02 -0.26026213174E+02  0.54367081474E+02  0.39999993835E+02 0.  0.
        -12    1    3    3    0    0 -0.96866602268E+01  0.24178190226E+02  0.26026213174E+02  0.36820918526E+02  0.00000000000E+00 0.  1.
         11    1    4    4    0    0 -0.92501992156E+00 -0.83111311020E+01 -0.18039309969E+02  0.19883341432E+02  0.51100000000E-03 0. -1.
        -11    1    4    4    0    0 -0.78486065606E+01  0.12972281361E+01  0.26753951704E+00  0.79595856321E+01  0.51100000000E-03 0.  1.
         12    1    4    4    0    0  0.18460286709E+02 -0.17164287260E+02 -0.82544427220E+01  0.26524154410E+02  0.00000000000E+00 0. -1.
</event>
<event>
 8    1  0.1212194E-006  0.9118800E+02  0.7816164E-02  0.1184000E+00
        -11   -1    0    0    0    0  0.00000000000E+00  0.00000000000E+00  0.45593999997E+02  0.45594000000E+02  0.51100000000E-03 0.  1.
         11   -1    0    0    0    0 -0.00000000000E+00 -0.00000000000E+00 -0.45593999997E+02  0.45594000000E+02  0.51100000000E-03 0. -1.
         23    2    1    2    0    0  0.00000000000E+00  0.35527136788E-14  0.00000000000E+00  0.91188000000E+02  0.91188000000E+02 0.  0.
    9900012    2    3    3    0    0 -0.14637672515E+02  0.25950311858E+02 -0.21635619430E+02  0.54367079719E+02  0.39999989835E+02 0.  0.
        -12    1    3    3    0    0  0.14637672515E+02 -0.25950311858E+02  0.21635619430E+02  0.36820920281E+02  0.00000000000E+00 0.  1.
         11    1    4    4    0    0 -0.71651698477E+01  0.16512312658E+02 -0.16555786909E+02  0.24455882906E+02  0.51100000000E-03 0. -1.
        -11    1    4    4    0    0  0.18122147741E+01 -0.75943157859E+01  0.36741540650E+01  0.86288564131E+01  0.51100000000E-03 0.  1.
        -12    1    4    4    0    0 -0.92847174417E+01  0.17032314986E+02 -0.87539865866E+01  0.21282340400E+02  0.00000000000E+00 0.  1.
</event>
<event>
 8    1  0.1212194E-006  0.9118800E+02  0.7816164E-02  0.1184000E+00
        -11   -1    0    0    0    0  0.00000000000E+00  0.00000000000E+00  0.45593999997E+02  0.45594000000E+02  0.51100000000E-03 0. -1.
         11   -1    0    0    0    0 -0.00000000000E+00 -0.00000000000E+00 -0.45593999997E+02  0.45594000000E+02  0.51100000000E-03 0.  1.
         23    2    1    2    0    0  0.00000000000E+00  0.00000000000E+00  0.00000000000E+00  0.91188000000E+02  0.91188000000E+02 0.  0.
    9900012    2    3    3    0    0  0.31346187080E+02  0.96342265215E+01 -0.16744407397E+02  0.54367123528E+02  0.40000089706E+02 0.  0.
         12    1    3    3    0    0 -0.31346187080E+02 -0.96342265215E+01  0.16744407397E+02  0.36820876472E+02  0.00000000000E+00 0. -1.
         11    1    4    4    0    0 -0.77556261808E+01  0.30666675611E+00 -0.97005531314E+01  0.12423546727E+02  0.51100000000E-03 0. -1.
        -11    1    4    4    0    0  0.23901763168E+02  0.85536373007E+01 -0.82060000818E+01  0.26679532065E+02  0.51100000000E-03 0.  1.
         12    1    4    4    0    0  0.15200050093E+02  0.77392246465E+00  0.11621458160E+01  0.15264044736E+02  0.00000000000E+00 0. -1.
</event>
<event>
 8    1  0.1212194E-006  0.9118800E+02  0.7816164E-02  0.1184000E+00
        -11   -1    0    0    0    0  0.00000000000E+00  0.00000000000E+00  0.45593999997E+02  0.45594000000E+02  0.51100000000E-03 0. -1.
         11   -1    0    0    0    0 -0.00000000000E+00 -0.00000000000E+00 -0.45593999997E+02  0.45594000000E+02  0.51100000000E-03 0.  1.
         23    2    1    2    0    0  0.00000000000E+00  0.00000000000E+00 -0.35527136788E-14  0.91188000000E+02  0.91188000000E+02 0.  0.
    9900012    2    3    3    0    0 -0.20311154754E+02  0.26793328766E+01  0.30594993458E+02  0.54367143726E+02  0.40000135752E+02 0.  0.
        -12    1    3    3    0    0  0.20311154754E+02 -0.26793328766E+01 -0.30594993458E+02  0.36820856274E+02  0.00000000000E+00 0.  1.
         11    1    4    4    0    0 -0.22965779804E+02 -0.94938124694E+00  0.17259660837E+01  0.23050104684E+02  0.51100000000E-03 0. -1.
        -11    1    4    4    0    0 -0.43606661485E+00  0.46172089918E+00 -0.96575478017E+00  0.11558645413E+01  0.51100000000E-03 0.  1.
         12    1    4    4    0    0  0.30906916655E+01  0.31669932243E+01  0.29834782154E+02  0.30161174500E+02  0.00000000000E+00 0. -1.
</event>
<event>
 8    1  0.1212194E-006  0.9118800E+02  0.7816164E-02  0.1184000E+00
        -11   -1    0    0    0    0  0.00000000000E+00  0.00000000000E+00  0.45593999997E+02  0.45594000000E+02  0.51100000000E-03 0.  1.
         11   -1    0    0    0    0 -0.00000000000E+00 -0.00000000000E+00 -0.45593999997E+02  0.45594000000E+02  0.51100000000E-03 0. -1.
         23    2    1    2    0    0  0.71054273576E-14  0.88817841970E-15 -0.13322676296E-14  0.91188000000E+02  0.91188000000E+02 0.  0.
    9900012    2    3    3    0    0 -0.36528675836E+02  0.46144779314E+01 -0.37799000220E+00  0.54367076039E+02  0.39999981446E+02 0.  0.
        -12    1    3    3    0    0  0.36528675836E+02 -0.46144779314E+01  0.37799000220E+00  0.36820923961E+02  0.00000000000E+00 0.  1.
         11    1    4    4    0    0 -0.26118540267E+02  0.16912294261E+02 -0.10434038880E+02  0.32818790508E+02  0.51100000000E-03 0. -1.
        -11    1    4    4    0    0 -0.69463822625E+01 -0.64335252795E+01  0.11174500138E+02  0.14646225714E+02  0.51100000000E-03 0.  1.
         12    1    4    4    0    0 -0.34637533070E+01 -0.58642910499E+01 -0.11184512607E+01  0.69020598166E+01  0.00000000000E+00 0. -1.
</event>
<event>
 8    1  0.1212194E-006  0.9118800E+02  0.7816164E-02  0.1184000E+00
        -11   -1    0    0    0    0  0.00000000000E+00  0.00000000000E+00  0.45593999997E+02  0.45594000000E+02  0.51100000000E-03 0. -1.
         11   -1    0    0    0    0 -0.00000000000E+00 -0.00000000000E+00 -0.45593999997E+02  0.45594000000E+02  0.51100000000E-03 0.  1.
         23    2    1    2    0    0 -0.17763568394E-14  0.00000000000E+00  0.17763568394E-14  0.91188000000E+02  0.91188000000E+02 0.  0.
    9900012    2    3    3    0    0 -0.17978425413E+01  0.34517384257E+02 -0.12692324702E+02  0.54367120596E+02  0.40000083022E+02 0.  0.
         12    1    3    3    0    0  0.17978425413E+01 -0.34517384257E+02  0.12692324702E+02  0.36820879404E+02  0.00000000000E+00 0. -1.
         11    1    4    4    0    0 -0.62011090920E+01  0.12477715980E+02  0.79683097282E+00  0.13956435430E+02  0.51100000000E-03 0. -1.
        -11    1    4    4    0    0  0.10293540144E+02  0.26372471778E+02 -0.42489429880E+01  0.28627220493E+02  0.51100000000E-03 0.  1.
        -12    1    4    4    0    0 -0.58902735930E+01 -0.43328035013E+01 -0.92402126871E+01  0.11783464672E+02  0.00000000000E+00 0.  1.
</event>
<event>
 8    1  0.1212194E-006  0.9118800E+02  0.7816164E-02  0.1184000E+00
        -11   -1    0    0    0    0  0.00000000000E+00  0.00000000000E+00  0.45593999997E+02  0.45594000000E+02  0.51100000000E-03 0. -1.
         11   -1    0    0    0    0 -0.00000000000E+00 -0.00000000000E+00 -0.45593999997E+02  0.45594000000E+02  0.51100000000E-03 0.  1.
         23    2    1    2    0    0 -0.17763568394E-14  0.88817841970E-15  0.00000000000E+00  0.91188000000E+02  0.91188000000E+02 0.  0.
    9900012    2    3    3    0    0 -0.71567568761E+01 -0.70784138105E+01  0.35418310433E+02  0.54367084409E+02  0.40000000527E+02 0.  0.
        -12    1    3    3    0    0  0.71567568761E+01  0.70784138105E+01 -0.35418310433E+02  0.36820915591E+02  0.00000000000E+00 0.  1.
         11    1    4    4    0    0  0.12752079841E+02 -0.10833864356E+02  0.21276648373E+02  0.27068134834E+02  0.51100000000E-03 0. -1.
        -11    1    4    4    0    0 -0.64208550242E+01  0.45337822723E+01  0.16796434614E+00  0.78619827790E+01  0.51100000000E-03 0.  1.
         12    1    4    4    0    0 -0.13487981693E+02 -0.77833172724E+00  0.13973697714E+02  0.19436966796E+02  0.00000000000E+00 0. -1.
</event>
<event>
 8    1  0.1212194E-006  0.9118800E+02  0.7816164E-02  0.1184000E+00
        -11   -1    0    0    0    0  0.00000000000E+00  0.00000000000E+00  0.45593999997E+02  0.45594000000E+02  0.51100000000E-03 0.  1.
         11   -1    0    0    0    0 -0.00000000000E+00 -0.00000000000E+00 -0.45593999997E+02  0.45594000000E+02  0.51100000000E-03 0. -1.
         23    2    1    2    0    0  0.00000000000E+00  0.00000000000E+00  0.00000000000E+00  0.91188000000E+02  0.91188000000E+02 0.  0.
    9900012    2    3    3    0    0  0.11599130255E+02 -0.19003763862E+02 -0.29327407398E+02  0.54367086265E+02  0.40000004758E+02 0.  0.
        -12    1    3    3    0    0 -0.11599130255E+02  0.19003763862E+02  0.29327407398E+02  0.36820913735E+02  0.00000000000E+00 0.  1.
         11    1    4    4    0    0 -0.67182020384E+01 -0.44141663618E+01 -0.51742657851E+01  0.95599231155E+01  0.51100000000E-03 0. -1.
        -11    1    4    4    0    0 -0.66680792512E+01  0.14859858858E+01 -0.53404000054E+00  0.68524910753E+01  0.51100000000E-03 0.  1.
         12    1    4    4    0    0  0.24985411545E+02 -0.16075583386E+02 -0.23619101613E+02  0.37954672074E+02  0.00000000000E+00 0. -1.
</event>
<event>
 8    1  0.1212194E-006  0.9118800E+02  0.7816164E-02  0.1184000E+00
        -11   -1    0    0    0    0  0.00000000000E+00  0.00000000000E+00  0.45593999997E+02  0.45594000000E+02  0.51100000000E-03 0. -1.
         11   -1    0    0    0    0 -0.00000000000E+00 -0.00000000000E+00 -0.45593999997E+02  0.45594000000E+02  0.51100000000E-03 0.  1.
         23    2    1    2    0    0  0.35527136788E-14  0.35527136788E-14 -0.17763568394E-14  0.91188000000E+02  0.91188000000E+02 0.  0.
    9900012    2    3    3    0    0  0.26395942940E+02  0.25276550803E+02  0.44865621835E+01  0.54367094736E+02  0.40000024070E+02 0.  0.
         12    1    3    3    0    0 -0.26395942940E+02 -0.25276550803E+02 -0.44865621835E+01  0.36820905264E+02  0.00000000000E+00 0. -1.
         11    1    4    4    0    0 -0.62256132821E+01 -0.42865800378E+01  0.11820606979E+01  0.76505095852E+01  0.51100000000E-03 0. -1.
        -11    1    4    4    0    0  0.16694394374E+02  0.64285881836E+01 -0.24194313034E+01  0.18052235253E+02  0.51100000000E-03 0.  1.
        -12    1    4    4    0    0  0.15927161849E+02  0.23134542657E+02  0.57239327890E+01  0.28664349898E+02  0.00000000000E+00 0.  1.
</event>
<event>
 8    1  0.1212194E-006  0.9118800E+02  0.7816164E-02  0.1184000E+00
        -11   -1    0    0    0    0  0.00000000000E+00  0.00000000000E+00  0.45593999997E+02  0.45594000000E+02  0.51100000000E-03 0. -1.
         11   -1    0    0    0    0 -0.00000000000E+00 -0.00000000000E+00 -0.45593999997E+02  0.45594000000E+02  0.51100000000E-03 0.  1.
         23    2    1    2    0    0  0.17763568394E-14  0.35527136788E-14  0.00000000000E+00  0.91188000000E+02  0.91188000000E+02 0.  0.
    9900012    2    3    3    0    0 -0.98985062845E+01 -0.17531720115E+02 -0.30829178740E+02  0.54367083409E+02  0.39999998247E+02 0.  0.
         12    1    3    3    0    0  0.98985062845E+01  0.17531720115E+02  0.30829178740E+02  0.36820916591E+02  0.00000000000E+00 0. -1.
         11    1    4    4    0    0 -0.24861133217E+01 -0.55256652911E+00 -0.93000782119E+00  0.27112735063E+01  0.51100000000E-03 0. -1.
        -11    1    4    4    0    0  0.58747427768E+01  0.59894918324E+01 -0.22641907400E+02  0.24146274787E+02  0.51100000000E-03 0.  1.
        -12    1    4    4    0    0 -0.13287135740E+02 -0.22968645418E+02 -0.72572635188E+01  0.27509535116E+02  0.00000000000E+00 0.  1.
</event>
<event>
 8    1  0.1212194E-006  0.9118800E+02  0.7816164E-02  0.1184000E+00
        -11   -1    0    0    0    0  0.00000000000E+00  0.00000000000E+00  0.45593999997E+02  0.45594000000E+02  0.51100000000E-03 0. -1.
         11   -1    0    0    0    0 -0.00000000000E+00 -0.00000000000E+00 -0.45593999997E+02  0.45594000000E+02  0.51100000000E-03 0.  1.
         23    2    1    2    0    0  0.35527136788E-14  0.44408920985E-15  0.00000000000E+00  0.91188000000E+02  0.91188000000E+02 0.  0.
    9900012    2    3    3    0    0  0.28004112011E+02 -0.33021797892E+01 -0.23678071381E+02  0.54367004016E+02  0.39999817256E+02 0.  0.
         12    1    3    3    0    0 -0.28004112011E+02  0.33021797892E+01  0.23678071381E+02  0.36820995984E+02  0.00000000000E+00 0. -1.
         11    1    4    4    0    0  0.20835134649E+02 -0.13368266102E+02 -0.52640951600E+01  0.25308577055E+02  0.51100000000E-03 0. -1.
        -11    1    4    4    0    0  0.95794671277E+01 -0.58545423224E+00 -0.27874215265E+01  0.99939314654E+01  0.51100000000E-03 0.  1.
        -12    1    4    4    0    0 -0.24104897655E+01  0.10651540545E+02 -0.15626554695E+02  0.19064495496E+02  0.00000000000E+00 0.  1.
</event>
<event>
 8    1  0.1212194E-006  0.9118800E+02  0.7816164E-02  0.1184000E+00
        -11   -1    0    0    0    0  0.00000000000E+00  0.00000000000E+00  0.45593999997E+02  0.45594000000E+02  0.51100000000E-03 0.  1.
         11   -1    0    0    0    0 -0.00000000000E+00 -0.00000000000E+00 -0.45593999997E+02  0.45594000000E+02  0.51100000000E-03 0. -1.
         23    2    1    2    0    0 -0.16653345369E-14  0.88817841970E-15  0.00000000000E+00  0.91188000000E+02  0.91188000000E+02 0.  0.
    9900012    2    3    3    0    0  0.83076852681E+00 -0.65621480390E+01 -0.36221902113E+02  0.54367107073E+02  0.40000052195E+02 0.  0.
        -12    1    3    3    0    0 -0.83076852681E+00  0.65621480390E+01  0.36221902113E+02  0.36820892927E+02  0.00000000000E+00 0.  1.
         11    1    4    4    0    0 -0.17432953059E+01 -0.13737208723E+02 -0.26107450190E+02  0.29552477691E+02  0.51100000000E-03 0. -1.
        -11    1    4    4    0    0 -0.78282800214E+01 -0.18724333721E+01 -0.70311475393E+01  0.10687610154E+02  0.51100000000E-03 0.  1.
        -12    1    4    4    0    0  0.10402343854E+02  0.90474940556E+01 -0.30833043843E+01  0.14127019228E+02  0.00000000000E+00 0.  1.
</event>
<event>
 8    1  0.1212194E-006  0.9118800E+02  0.7816164E-02  0.1184000E+00
        -11   -1    0    0    0    0  0.00000000000E+00  0.00000000000E+00  0.45593999997E+02  0.45594000000E+02  0.51100000000E-03 0.  1.
         11   -1    0    0    0    0 -0.00000000000E+00 -0.00000000000E+00 -0.45593999997E+02  0.45594000000E+02  0.51100000000E-03 0. -1.
         23    2    1    2    0    0  0.44408920985E-15  0.00000000000E+00 -0.35527136788E-14  0.91188000000E+02  0.91188000000E+02 0.  0.
    9900012    2    3    3    0    0 -0.18861532712E+01 -0.18257960763E+02 -0.31919757511E+02  0.54367059967E+02  0.39999944806E+02 0.  0.
        -12    1    3    3    0    0  0.18861532712E+01  0.18257960763E+02  0.31919757511E+02  0.36820940033E+02  0.00000000000E+00 0.  1.
         11    1    4    4    0    0 -0.70455090657E+01 -0.69076604717E+01 -0.10383798009E+02  0.14324043861E+02  0.51100000000E-03 0. -1.
        -11    1    4    4    0    0  0.92560869024E+00  0.10614810016E+02 -0.11007410813E+02  0.15319727028E+02  0.51100000000E-03 0.  1.
         12    1    4    4    0    0  0.42337471042E+01 -0.21965110307E+02 -0.10528548689E+02  0.24723289078E+02  0.00000000000E+00 0. -1.
</event>
<event>
 8    1  0.1212194E-006  0.9118800E+02  0.7816164E-02  0.1184000E+00
        -11   -1    0    0    0    0  0.00000000000E+00  0.00000000000E+00  0.45593999997E+02  0.45594000000E+02  0.51100000000E-03 0.  1.
         11   -1    0    0    0    0 -0.00000000000E+00 -0.00000000000E+00 -0.45593999997E+02  0.45594000000E+02  0.51100000000E-03 0. -1.
         23    2    1    2    0    0 -0.13322676296E-14 -0.88817841970E-15  0.71054273576E-14  0.91188000000E+02  0.91188000000E+02 0.  0.
    9900012    2    3    3    0    0 -0.30260337421E+01  0.39538168487E+01  0.36482744013E+02  0.54367079879E+02  0.39999990200E+02 0.  0.
         12    1    3    3    0    0  0.30260337421E+01 -0.39538168487E+01 -0.36482744013E+02  0.36820920121E+02  0.00000000000E+00 0. -1.
         11    1    4    4    0    0 -0.70213238446E+01 -0.86288035434E+01  0.80609254009E+01  0.13738040534E+02  0.51100000000E-03 0. -1.
        -11    1    4    4    0    0 -0.40844087940E+01 -0.61278677883E+01  0.13471670362E+02  0.15353145001E+02  0.51100000000E-03 0.  1.
         12    1    4    4    0    0  0.80796988965E+01  0.18710488180E+02  0.14950148249E+02  0.25275894344E+02  0.00000000000E+00 0. -1.
</event>
<event>
 8    1  0.1212194E-006  0.9118800E+02  0.7816164E-02  0.1184000E+00
        -11   -1    0    0    0    0  0.00000000000E+00  0.00000000000E+00  0.45593999997E+02  0.45594000000E+02  0.51100000000E-03 0.  1.
         11   -1    0    0    0    0 -0.00000000000E+00 -0.00000000000E+00 -0.45593999997E+02  0.45594000000E+02  0.51100000000E-03 0. -1.
         23    2    1    2    0    0 -0.35527136788E-14  0.00000000000E+00 -0.88817841970E-15  0.91188000000E+02  0.91188000000E+02 0.  0.
    9900012    2    3    3    0    0  0.16600154608E+02  0.32126088877E+02  0.69381111231E+01  0.54366971966E+02  0.39999744190E+02 0.  0.
        -12    1    3    3    0    0 -0.16600154608E+02 -0.32126088877E+02 -0.69381111231E+01  0.36821028034E+02  0.00000000000E+00 0.  1.
         11    1    4    4    0    0 -0.62014566733E+00  0.35695546563E+01  0.12230125540E+02  0.12755480080E+02  0.51100000000E-03 0.  1.
        -11    1    4    4    0    0  0.10890889747E+02  0.32062892339E+00  0.33723136343E+01  0.11405559254E+02  0.51100000000E-03 0. -1.
         12    1    4    4    0    0  0.63294105285E+01  0.28235905297E+02 -0.86643280514E+01  0.30205932632E+02  0.00000000000E+00 0. -1.
</event>
<event>
 8    1  0.1212194E-006  0.9118800E+02  0.7816164E-02  0.1184000E+00
        -11   -1    0    0    0    0  0.00000000000E+00  0.00000000000E+00  0.45593999997E+02  0.45594000000E+02  0.51100000000E-03 0.  1.
         11   -1    0    0    0    0 -0.00000000000E+00 -0.00000000000E+00 -0.45593999997E+02  0.45594000000E+02  0.51100000000E-03 0. -1.
         23    2    1    2    0    0  0.35527136788E-14  0.00000000000E+00  0.00000000000E+00  0.91188000000E+02  0.91188000000E+02 0.  0.
    9900012    2    3    3    0    0 -0.20913512687E+02 -0.84116703569E+01 -0.29114398247E+02  0.54367090228E+02  0.40000013793E+02 0.  0.
        -12    1    3    3    0    0  0.20913512687E+02  0.84116703569E+01  0.29114398247E+02  0.36820909772E+02  0.00000000000E+00 0.  1.
         11    1    4    4    0    0  0.35160079778E+01 -0.11247403515E+02 -0.19687366004E+02  0.22944689546E+02  0.51100000000E-03 0. -1.
        -11    1    4    4    0    0 -0.26008893871E+02  0.64375537470E+00 -0.11054937460E+02  0.28268155651E+02  0.51100000000E-03 0.  1.
        -12    1    4    4    0    0  0.15793732061E+01  0.21919777831E+01  0.16279052167E+01  0.31542450318E+01  0.00000000000E+00 0.  1.
</event>
<event>
 8    1  0.1212194E-006  0.9118800E+02  0.7816164E-02  0.1184000E+00
        -11   -1    0    0    0    0  0.00000000000E+00  0.00000000000E+00  0.45593999997E+02  0.45594000000E+02  0.51100000000E-03 0. -1.
         11   -1    0    0    0    0 -0.00000000000E+00 -0.00000000000E+00 -0.45593999997E+02  0.45594000000E+02  0.51100000000E-03 0.  1.
         23    2    1    2    0    0  0.00000000000E+00 -0.35527136788E-14  0.00000000000E+00  0.91188000000E+02  0.91188000000E+02 0.  0.
    9900012    2    3    3    0    0  0.17481291748E+02 -0.23752778584E+02 -0.22045162296E+02  0.54367092457E+02  0.40000018875E+02 0.  0.
         12    1    3    3    0    0 -0.17481291748E+02  0.23752778584E+02  0.22045162296E+02  0.36820907543E+02  0.00000000000E+00 0. -1.
         11    1    4    4    0    0  0.13406254076E+02 -0.27913403502E+02 -0.16312742190E+02  0.34999875735E+02  0.51100000000E-03 0. -1.
        -11    1    4    4    0    0 -0.67480403985E+01  0.61572356739E+00 -0.39397593993E+01  0.78381674591E+01  0.51100000000E-03 0.  1.
         12    1    4    4    0    0  0.10823078070E+02  0.35449013514E+01 -0.17926607066E+01  0.11529049263E+02  0.00000000000E+00 0. -1.
</event>
<event>
 8    1  0.1212194E-006  0.9118800E+02  0.7816164E-02  0.1184000E+00
        -11   -1    0    0    0    0  0.00000000000E+00  0.00000000000E+00  0.45593999997E+02  0.45594000000E+02  0.51100000000E-03 0.  1.
         11   -1    0    0    0    0 -0.00000000000E+00 -0.00000000000E+00 -0.45593999997E+02  0.45594000000E+02  0.51100000000E-03 0. -1.
         23    2    1    2    0    0  0.17763568394E-14  0.35527136788E-14  0.71054273576E-14  0.91188000000E+02  0.91188000000E+02 0.  0.
    9900012    2    3    3    0    0 -0.55767604078E+01 -0.17981377400E+02 -0.31644085714E+02  0.54367104430E+02  0.40000046169E+02 0.  0.
        -12    1    3    3    0    0  0.55767604078E+01  0.17981377400E+02  0.31644085714E+02  0.36820895570E+02  0.00000000000E+00 0.  1.
         11    1    4    4    0    0 -0.72685415129E+01 -0.26066946618E+02 -0.12726783799E+02  0.29904655622E+02  0.51100000000E-03 0. -1.
        -11    1    4    4    0    0  0.32349013996E+01  0.11766206887E+00 -0.15190774304E+02  0.15531840060E+02  0.51100000000E-03 0.  1.
        -12    1    4    4    0    0 -0.15431202944E+01  0.79679071490E+01 -0.37265276116E+01  0.89306087485E+01  0.00000000000E+00 0.  1.
</event>
<event>
 8    1  0.1212194E-006  0.9118800E+02  0.7816164E-02  0.1184000E+00
        -11   -1    0    0    0    0  0.00000000000E+00  0.00000000000E+00  0.45593999997E+02  0.45594000000E+02  0.51100000000E-03 0.  1.
         11   -1    0    0    0    0 -0.00000000000E+00 -0.00000000000E+00 -0.45593999997E+02  0.45594000000E+02  0.51100000000E-03 0. -1.
         23    2    1    2    0    0  0.17763568394E-14 -0.35527136788E-14  0.00000000000E+00  0.91188000000E+02  0.91188000000E+02 0.  0.
    9900012    2    3    3    0    0  0.15742859247E+02 -0.24598532800E+02  0.22424421013E+02  0.54367080797E+02  0.39999992293E+02 0.  0.
         12    1    3    3    0    0 -0.15742859247E+02  0.24598532800E+02 -0.22424421013E+02  0.36820919203E+02  0.00000000000E+00 0. -1.
         11    1    4    4    0    0  0.68786319689E+01 -0.85815604131E+01 -0.78042673389E+01  0.13485746025E+02  0.51100000000E-03 0. -1.
        -11    1    4    4    0    0  0.11168500629E+01 -0.11562991589E+02  0.26834036778E+01  0.11922700370E+02  0.51100000000E-03 0.  1.
        -12    1    4    4    0    0  0.77473772152E+01 -0.44539807979E+01  0.27545284674E+02  0.28958634402E+02  0.00000000000E+00 0.  1.
</event>
<event>
 8    1  0.1212194E-006  0.9118800E+02  0.7816164E-02  0.1184000E+00
        -11   -1    0    0    0    0  0.00000000000E+00  0.00000000000E+00  0.45593999997E+02  0.45594000000E+02  0.51100000000E-03 0. -1.
         11   -1    0    0    0    0 -0.00000000000E+00 -0.00000000000E+00 -0.45593999997E+02  0.45594000000E+02  0.51100000000E-03 0.  1.
         23    2    1    2    0    0  0.00000000000E+00  0.00000000000E+00  0.00000000000E+00  0.91188000000E+02  0.91188000000E+02 0.  0.
    9900012    2    3    3    0    0  0.82375965554E+01  0.23256501210E+02  0.27332339991E+02  0.54367086718E+02  0.40000005790E+02 0.  0.
        -12    1    3    3    0    0 -0.82375965554E+01 -0.23256501210E+02 -0.27332339991E+02  0.36820913282E+02  0.00000000000E+00 0.  1.
         11    1    4    4    0    0  0.31325743109E+01  0.26319058754E+02  0.33880000469E+02  0.43015814622E+02  0.51100000000E-03 0. -1.
        -11    1    4    4    0    0  0.40112986438E+01 -0.33342074986E+01 -0.54583328806E+00  0.52445581980E+01  0.51100000000E-03 0.  1.
         12    1    4    4    0    0  0.10937236008E+01  0.27164995435E+00 -0.60018271898E+01  0.61067138978E+01  0.00000000000E+00 0. -1.
</event>
<event>
 8    1  0.1212194E-006  0.9118800E+02  0.7816164E-02  0.1184000E+00
        -11   -1    0    0    0    0  0.00000000000E+00  0.00000000000E+00  0.45593999997E+02  0.45594000000E+02  0.51100000000E-03 0.  1.
         11   -1    0    0    0    0 -0.00000000000E+00 -0.00000000000E+00 -0.45593999997E+02  0.45594000000E+02  0.51100000000E-03 0. -1.
         23    2    1    2    0    0 -0.88817841970E-15 -0.35527136788E-14  0.00000000000E+00  0.91188000000E+02  0.91188000000E+02 0.  0.
    9900012    2    3    3    0    0  0.74652687491E+01  0.27895577043E+02  0.22844869412E+02  0.54367061466E+02  0.39999948224E+02 0.  0.
         12    1    3    3    0    0 -0.74652687491E+01 -0.27895577043E+02 -0.22844869412E+02  0.36820938534E+02  0.00000000000E+00 0. -1.
         11    1    4    4    0    0  0.26348734579E+01 -0.57818256933E+01 -0.14857405098E+01  0.65252962852E+01  0.51100000000E-03 0. -1.
        -11    1    4    4    0    0  0.95587195246E+01  0.23608731939E+02  0.56335835451E+01  0.26085984868E+02  0.51100000000E-03 0.  1.
        -12    1    4    4    0    0 -0.47283242333E+01  0.10068670798E+02  0.18697026377E+02  0.21755780313E+02  0.00000000000E+00 0.  1.
</event>
<event>
 8    1  0.1212194E-006  0.9118800E+02  0.7816164E-02  0.1184000E+00
        -11   -1    0    0    0    0  0.00000000000E+00  0.00000000000E+00  0.45593999997E+02  0.45594000000E+02  0.51100000000E-03 0. -1.
         11   -1    0    0    0    0 -0.00000000000E+00 -0.00000000000E+00 -0.45593999997E+02  0.45594000000E+02  0.51100000000E-03 0.  1.
         23    2    1    2    0    0 -0.71054273576E-14 -0.88817841970E-15  0.00000000000E+00  0.91188000000E+02  0.91188000000E+02 0.  0.
    9900012    2    3    3    0    0  0.30422882615E+02 -0.28537713501E+01 -0.20544565837E+02  0.54367150160E+02  0.40000150419E+02 0.  0.
         12    1    3    3    0    0 -0.30422882615E+02  0.28537713501E+01  0.20544565837E+02  0.36820849840E+02  0.00000000000E+00 0. -1.
         11    1    4    4    0    0  0.77893739868E+01 -0.28818697301E+01  0.79743115801E+00  0.83435853780E+01  0.51100000000E-03 0. -1.
        -11    1    4    4    0    0  0.10398438164E+02 -0.49238348590E+01 -0.28694185403E+02  0.30914849865E+02  0.51100000000E-03 0.  1.
        -12    1    4    4    0    0  0.12235070464E+02  0.49519332389E+01  0.73521884079E+01  0.15108714917E+02  0.00000000000E+00 0.  1.
</event>
<event>
 8    1  0.1212194E-006  0.9118800E+02  0.7816164E-02  0.1184000E+00
        -11   -1    0    0    0    0  0.00000000000E+00  0.00000000000E+00  0.45593999997E+02  0.45594000000E+02  0.51100000000E-03 0.  1.
         11   -1    0    0    0    0 -0.00000000000E+00 -0.00000000000E+00 -0.45593999997E+02  0.45594000000E+02  0.51100000000E-03 0. -1.
         23    2    1    2    0    0 -0.17763568394E-14  0.00000000000E+00 -0.17763568394E-14  0.91188000000E+02  0.91188000000E+02 0.  0.
    9900012    2    3    3    0    0  0.84767886570E+01  0.35032786832E+02  0.75252127896E+01  0.54367069449E+02  0.39999966422E+02 0.  0.
        -12    1    3    3    0    0 -0.84767886570E+01 -0.35032786832E+02 -0.75252127896E+01  0.36820930551E+02  0.00000000000E+00 0.  1.
         11    1    4    4    0    0 -0.72242526169E+01  0.14072411265E+02 -0.10379786785E+01  0.15852444123E+02  0.51100000000E-03 0. -1.
        -11    1    4    4    0    0  0.78356623891E+01 -0.33324166053E+01  0.97599970311E+01  0.12952225593E+02  0.51100000000E-03 0.  1.
         12    1    4    4    0    0  0.78653788848E+01  0.24292792172E+02 -0.11968055630E+01  0.25562399733E+02  0.00000000000E+00 0. -1.
</event>
<event>
 8    1  0.1212194E-006  0.9118800E+02  0.7816164E-02  0.1184000E+00
        -11   -1    0    0    0    0  0.00000000000E+00  0.00000000000E+00  0.45593999997E+02  0.45594000000E+02  0.51100000000E-03 0.  1.
         11   -1    0    0    0    0 -0.00000000000E+00 -0.00000000000E+00 -0.45593999997E+02  0.45594000000E+02  0.51100000000E-03 0. -1.
         23    2    1    2    0    0  0.17763568394E-14  0.00000000000E+00  0.17763568394E-14  0.91188000000E+02  0.91188000000E+02 0.  0.
    9900012    2    3    3    0    0 -0.11718828758E+02  0.34536840692E+02 -0.50652561101E+01  0.54367066662E+02  0.39999960070E+02 0.  0.
         12    1    3    3    0    0  0.11718828758E+02 -0.34536840692E+02  0.50652561101E+01  0.36820933338E+02  0.00000000000E+00 0. -1.
         11    1    4    4    0    0 -0.45733414101E+01  0.12574997501E+02 -0.10970679863E+02  0.17303231800E+02  0.51100000000E-03 0. -1.
        -11    1    4    4    0    0  0.11058017698E+02  0.80514345878E+01  0.20335241261E+01  0.13828975918E+02  0.51100000000E-03 0.  1.
         12    1    4    4    0    0 -0.18203505045E+02  0.13910408603E+02  0.38718996268E+01  0.23234858944E+02  0.00000000000E+00 0. -1.
</event>
<event>
 8    1  0.1212194E-006  0.9118800E+02  0.7816164E-02  0.1184000E+00
        -11   -1    0    0    0    0  0.00000000000E+00  0.00000000000E+00  0.45593999997E+02  0.45594000000E+02  0.51100000000E-03 0. -1.
         11   -1    0    0    0    0 -0.00000000000E+00 -0.00000000000E+00 -0.45593999997E+02  0.45594000000E+02  0.51100000000E-03 0.  1.
         23    2    1    2    0    0  0.00000000000E+00  0.35527136788E-14 -0.17763568394E-14  0.91188000000E+02  0.91188000000E+02 0.  0.
    9900012    2    3    3    0    0 -0.21102431872E+02  0.28635489318E+02 -0.95118535110E+01  0.54367092398E+02  0.40000018739E+02 0.  0.
         12    1    3    3    0    0  0.21102431872E+02 -0.28635489318E+02  0.95118535110E+01  0.36820907602E+02  0.00000000000E+00 0. -1.
         11    1    4    4    0    0 -0.40950064412E+01 -0.50614873159E+01  0.26706777547E+01  0.70370627064E+01  0.51100000000E-03 0. -1.
        -11    1    4    4    0    0 -0.11792083115E+02  0.44248871870E+01 -0.12288763896E+02  0.17596777238E+02  0.51100000000E-03 0.  1.
        -12    1    4    4    0    0 -0.52153423161E+01  0.29272089447E+02  0.10623263022E+00  0.29733252453E+02  0.00000000000E+00 0.  1.
</event>
<event>
 8    1  0.1212194E-006  0.9118800E+02  0.7816164E-02  0.1184000E+00
        -11   -1    0    0    0    0  0.00000000000E+00  0.00000000000E+00  0.45593999997E+02  0.45594000000E+02  0.51100000000E-03 0. -1.
         11   -1    0    0    0    0 -0.00000000000E+00 -0.00000000000E+00 -0.45593999997E+02  0.45594000000E+02  0.51100000000E-03 0.  1.
         23    2    1    2    0    0 -0.35527136788E-14  0.00000000000E+00  0.00000000000E+00  0.91188000000E+02  0.91188000000E+02 0.  0.
    9900012    2    3    3    0    0 -0.21821598341E+02 -0.18646411730E+02 -0.23063145176E+02  0.54367088958E+02  0.40000010897E+02 0.  0.
         12    1    3    3    0    0  0.21821598341E+02  0.18646411730E+02  0.23063145176E+02  0.36820911042E+02  0.00000000000E+00 0. -1.
         11    1    4    4    0    0 -0.10983032478E+02 -0.12256876161E+02 -0.37936386977E+01  0.16889337182E+02  0.51100000000E-03 0. -1.
        -11    1    4    4    0    0  0.28981437395E+01 -0.13464545921E+02 -0.13842813696E+01  0.13842307219E+02  0.51100000000E-03 0.  1.
         12    1    4    4    0    0 -0.13736709603E+02  0.70750103515E+01 -0.17885225109E+02  0.23635444556E+02  0.00000000000E+00 0. -1.
</event>
<event>
 8    1  0.1212194E-006  0.9118800E+02  0.7816164E-02  0.1184000E+00
        -11   -1    0    0    0    0  0.00000000000E+00  0.00000000000E+00  0.45593999997E+02  0.45594000000E+02  0.51100000000E-03 0.  1.
         11   -1    0    0    0    0 -0.00000000000E+00 -0.00000000000E+00 -0.45593999997E+02  0.45594000000E+02  0.51100000000E-03 0. -1.
         23    2    1    2    0    0 -0.17763568394E-14  0.44408920985E-15  0.00000000000E+00  0.91188000000E+02  0.91188000000E+02 0.  0.
    9900012    2    3    3    0    0  0.68915520823E+01  0.36433389167E+01  0.35986276948E+02  0.54367088317E+02  0.40000009437E+02 0.  0.
         12    1    3    3    0    0 -0.68915520823E+01 -0.36433389167E+01 -0.35986276948E+02  0.36820911683E+02  0.00000000000E+00 0. -1.
         11    1    4    4    0    0 -0.92052441830E+01  0.48342458786E+01  0.11144388742E+01  0.10456979867E+02  0.51100000000E-03 0. -1.
        -11    1    4    4    0    0  0.19146930369E+02  0.49021617820E+01  0.27573185142E+02  0.33925162812E+02  0.51100000000E-03 0.  1.
        -12    1    4    4    0    0 -0.30501341033E+01 -0.60930687438E+01  0.72986529320E+01  0.99849456377E+01  0.00000000000E+00 0.  1.
</event>
<event>
 8    1  0.1212194E-006  0.9118800E+02  0.7816164E-02  0.1184000E+00
        -11   -1    0    0    0    0  0.00000000000E+00  0.00000000000E+00  0.45593999997E+02  0.45594000000E+02  0.51100000000E-03 0.  1.
         11   -1    0    0    0    0 -0.00000000000E+00 -0.00000000000E+00 -0.45593999997E+02  0.45594000000E+02  0.51100000000E-03 0. -1.
         23    2    1    2    0    0  0.00000000000E+00 -0.35527136788E-14  0.00000000000E+00  0.91188000000E+02  0.91188000000E+02 0.  0.
    9900012    2    3    3    0    0 -0.15966700410E+02 -0.14387830400E+02 -0.29897072913E+02  0.54367079936E+02  0.39999990330E+02 0.  0.
        -12    1    3    3    0    0  0.15966700410E+02  0.14387830400E+02  0.29897072913E+02  0.36820920064E+02  0.00000000000E+00 0.  1.
         11    1    4    4    0    0 -0.12801770350E+02  0.36811262448E+01 -0.80200132487E+01  0.15548524924E+02  0.51100000000E-03 0. -1.
        -11    1    4    4    0    0  0.93208969149E+01  0.73318564839E+00 -0.47594642412E+01  0.10491386020E+02  0.51100000000E-03 0.  1.
        -12    1    4    4    0    0 -0.12485826975E+02 -0.18802142293E+02 -0.17117595423E+02  0.28327168992E+02  0.00000000000E+00 0.  1.
</event>
<event>
 8    1  0.1212194E-006  0.9118800E+02  0.7816164E-02  0.1184000E+00
        -11   -1    0    0    0    0  0.00000000000E+00  0.00000000000E+00  0.45593999997E+02  0.45594000000E+02  0.51100000000E-03 0.  1.
         11   -1    0    0    0    0 -0.00000000000E+00 -0.00000000000E+00 -0.45593999997E+02  0.45594000000E+02  0.51100000000E-03 0. -1.
         23    2    1    2    0    0  0.17763568394E-14  0.71054273576E-14  0.35527136788E-14  0.91188000000E+02  0.91188000000E+02 0.  0.
    9900012    2    3    3    0    0  0.15202801413E+02  0.28476941124E+02  0.17712112887E+02  0.54367078100E+02  0.39999986145E+02 0.  0.
         12    1    3    3    0    0 -0.15202801413E+02 -0.28476941124E+02 -0.17712112887E+02  0.36820921900E+02  0.00000000000E+00 0. -1.
         11    1    4    4    0    0  0.15800976831E+01 -0.67690326190E+00  0.18307820056E+02  0.18388343650E+02  0.51100000000E-03 0. -1.
        -11    1    4    4    0    0  0.12658596876E+01  0.33493389257E+01  0.56550740929E+01  0.66933052557E+01  0.51100000000E-03 0.  1.
         12    1    4    4    0    0  0.12356844042E+02  0.25804505461E+02 -0.62507812614E+01  0.29285429195E+02  0.00000000000E+00 0. -1.
</event>
<event>
 8    1  0.1212194E-006  0.9118800E+02  0.7816164E-02  0.1184000E+00
        -11   -1    0    0    0    0  0.00000000000E+00  0.00000000000E+00  0.45593999997E+02  0.45594000000E+02  0.51100000000E-03 0.  1.
         11   -1    0    0    0    0 -0.00000000000E+00 -0.00000000000E+00 -0.45593999997E+02  0.45594000000E+02  0.51100000000E-03 0. -1.
         23    2    1    2    0    0  0.71054273576E-14  0.35527136788E-14 -0.88817841970E-15  0.91188000000E+02  0.91188000000E+02 0.  0.
    9900012    2    3    3    0    0 -0.32094169309E+02 -0.16760661267E+02  0.66950984952E+01  0.54367084563E+02  0.40000000879E+02 0.  0.
        -12    1    3    3    0    0  0.32094169309E+02  0.16760661267E+02 -0.66950984952E+01  0.36820915437E+02  0.00000000000E+00 0.  1.
         11    1    4    4    0    0 -0.31099361233E+02 -0.20996839153E+02  0.12883180654E+02  0.39673843619E+02  0.51100000000E-03 0.  1.
        -11    1    4    4    0    0 -0.61447338415E+01  0.52119006010E+01 -0.42090613538E+01  0.90905368158E+01  0.51100000000E-03 0. -1.
        -12    1    4    4    0    0  0.51499257655E+01 -0.97572271524E+00 -0.19790208047E+01  0.56027041286E+01  0.00000000000E+00 0.  1.
</event>
<event>
 8    1  0.1212194E-006  0.9118800E+02  0.7816164E-02  0.1184000E+00
        -11   -1    0    0    0    0  0.00000000000E+00  0.00000000000E+00  0.45593999997E+02  0.45594000000E+02  0.51100000000E-03 0.  1.
         11   -1    0    0    0    0 -0.00000000000E+00 -0.00000000000E+00 -0.45593999997E+02  0.45594000000E+02  0.51100000000E-03 0. -1.
         23    2    1    2    0    0  0.00000000000E+00  0.00000000000E+00  0.22204460493E-15  0.91188000000E+02  0.91188000000E+02 0.  0.
    9900012    2    3    3    0    0 -0.36104982006E+02  0.69961354114E+01  0.18067651052E+01  0.54367081536E+02  0.39999993978E+02 0.  0.
        -12    1    3    3    0    0  0.36104982006E+02 -0.69961354114E+01 -0.18067651052E+01  0.36820918464E+02  0.00000000000E+00 0.  1.
         11    1    4    4    0    0 -0.34784227675E+02  0.13400463176E+02  0.68543070757E+00  0.37282498894E+02  0.51100000000E-03 0. -1.
        -11    1    4    4    0    0 -0.71078108248E+01 -0.19219230264E+01  0.49023403172E+01  0.88457732103E+01  0.51100000000E-03 0.  1.
        -12    1    4    4    0    0  0.57870564931E+01 -0.44824047385E+01 -0.37810059196E+01  0.82388094320E+01  0.00000000000E+00 0.  1.
</event>
<event>
 8    1  0.1212194E-006  0.9118800E+02  0.7816164E-02  0.1184000E+00
        -11   -1    0    0    0    0  0.00000000000E+00  0.00000000000E+00  0.45593999997E+02  0.45594000000E+02  0.51100000000E-03 0.  1.
         11   -1    0    0    0    0 -0.00000000000E+00 -0.00000000000E+00 -0.45593999997E+02  0.45594000000E+02  0.51100000000E-03 0. -1.
         23    2    1    2    0    0  0.35527136788E-14  0.00000000000E+00  0.35527136788E-14  0.91188000000E+02  0.91188000000E+02 0.  0.
    9900012    2    3    3    0    0  0.16691544816E+02  0.12246973700E+02  0.30449662289E+02  0.54367109643E+02  0.40000058054E+02 0.  0.
         12    1    3    3    0    0 -0.16691544816E+02 -0.12246973700E+02 -0.30449662289E+02  0.36820890357E+02  0.00000000000E+00 0. -1.
         11    1    4    4    0    0  0.16247010323E+01  0.96728233541E+01  0.48754327885E+01  0.10953219172E+02  0.51100000000E-03 0. -1.
        -11    1    4    4    0    0  0.30942835141E+01 -0.11330714204E+01  0.29955952153E+02  0.30136647308E+02  0.51100000000E-03 0.  1.
         12    1    4    4    0    0  0.11972560270E+02  0.37072217664E+01 -0.43817226525E+01  0.13277243164E+02  0.00000000000E+00 0. -1.
</event>
<event>
 8    1  0.1212194E-006  0.9118800E+02  0.7816164E-02  0.1184000E+00
        -11   -1    0    0    0    0  0.00000000000E+00  0.00000000000E+00  0.45593999997E+02  0.45594000000E+02  0.51100000000E-03 0. -1.
         11   -1    0    0    0    0 -0.00000000000E+00 -0.00000000000E+00 -0.45593999997E+02  0.45594000000E+02  0.51100000000E-03 0.  1.
         23    2    1    2    0    0 -0.35527136788E-14  0.00000000000E+00 -0.35527136788E-14  0.91188000000E+02  0.91188000000E+02 0.  0.
    9900012    2    3    3    0    0  0.20317700048E+02  0.23750228873E+02 -0.19465241190E+02  0.54367110259E+02  0.40000059456E+02 0.  0.
         12    1    3    3    0    0 -0.20317700048E+02 -0.23750228873E+02  0.19465241190E+02  0.36820889741E+02  0.00000000000E+00 0. -1.
         11    1    4    4    0    0 -0.86545017752E+01 -0.35884129488E+01 -0.16372151176E+01  0.95109190970E+01  0.51100000000E-03 0. -1.
        -11    1    4    4    0    0  0.11200175558E+02  0.10256548291E+02 -0.14392034138E+01  0.15254901576E+02  0.51100000000E-03 0.  1.
         12    1    4    4    0    0  0.17772026266E+02  0.17082093531E+02 -0.16388822658E+02  0.29601289586E+02  0.00000000000E+00 0. -1.
</event>
<event>
 8    1  0.1212194E-006  0.9118800E+02  0.7816164E-02  0.1184000E+00
        -11   -1    0    0    0    0  0.00000000000E+00  0.00000000000E+00  0.45593999997E+02  0.45594000000E+02  0.51100000000E-03 0.  1.
         11   -1    0    0    0    0 -0.00000000000E+00 -0.00000000000E+00 -0.45593999997E+02  0.45594000000E+02  0.51100000000E-03 0. -1.
         23    2    1    2    0    0  0.00000000000E+00  0.17763568394E-14  0.35527136788E-14  0.91188000000E+02  0.91188000000E+02 0.  0.
    9900012    2    3    3    0    0 -0.27059384051E+02 -0.62653661385E+01 -0.24172594639E+02  0.54367090049E+02  0.40000013385E+02 0.  0.
        -12    1    3    3    0    0  0.27059384051E+02  0.62653661385E+01  0.24172594639E+02  0.36820909951E+02  0.00000000000E+00 0.  1.
         11    1    4    4    0    0 -0.24592010998E+02 -0.20572520577E+02 -0.19549350364E+02  0.37552266346E+02  0.51100000000E-03 0. -1.
        -11    1    4    4    0    0  0.30426380674E-01  0.15791483422E+01 -0.34460119430E+01  0.37907299856E+01  0.51100000000E-03 0.  1.
         12    1    4    4    0    0 -0.24977994333E+01  0.12728006096E+02 -0.11772323319E+01  0.13024093717E+02  0.00000000000E+00 0. -1.
</event>
<event>
 8    1  0.1212194E-006  0.9118800E+02  0.7816164E-02  0.1184000E+00
        -11   -1    0    0    0    0  0.00000000000E+00  0.00000000000E+00  0.45593999997E+02  0.45594000000E+02  0.51100000000E-03 0.  1.
         11   -1    0    0    0    0 -0.00000000000E+00 -0.00000000000E+00 -0.45593999997E+02  0.45594000000E+02  0.51100000000E-03 0. -1.
         23    2    1    2    0    0  0.00000000000E+00  0.17763568394E-14  0.35527136788E-14  0.91188000000E+02  0.91188000000E+02 0.  0.
    9900012    2    3    3    0    0 -0.26997726377E+02 -0.10633704567E+02 -0.22667748712E+02  0.54367085644E+02  0.40000003343E+02 0.  0.
        -12    1    3    3    0    0  0.26997726377E+02  0.10633704567E+02  0.22667748712E+02  0.36820914356E+02  0.00000000000E+00 0.  1.
         11    1    4    4    0    0 -0.20793727640E+00  0.49075553317E+01 -0.10475160654E+02  0.11569629564E+02  0.51100000000E-03 0. -1.
        -11    1    4    4    0    0 -0.10518417330E+02  0.58619782138E+01  0.22923074734E+01  0.12257836902E+02  0.51100000000E-03 0.  1.
        -12    1    4    4    0    0 -0.16271371770E+02 -0.21403238113E+02 -0.14484895531E+02  0.30539619178E+02  0.00000000000E+00 0.  1.
</event>
<event>
 8    1  0.1212194E-006  0.9118800E+02  0.7816164E-02  0.1184000E+00
        -11   -1    0    0    0    0  0.00000000000E+00  0.00000000000E+00  0.45593999997E+02  0.45594000000E+02  0.51100000000E-03 0. -1.
         11   -1    0    0    0    0 -0.00000000000E+00 -0.00000000000E+00 -0.45593999997E+02  0.45594000000E+02  0.51100000000E-03 0.  1.
         23    2    1    2    0    0  0.00000000000E+00  0.35527136788E-14  0.00000000000E+00  0.91188000000E+02  0.91188000000E+02 0.  0.
    9900012    2    3    3    0    0 -0.27497486699E+02  0.21905385384E+02 -0.10946352789E+02  0.54367077647E+02  0.39999985112E+02 0.  0.
         12    1    3    3    0    0  0.27497486699E+02 -0.21905385384E+02  0.10946352789E+02  0.36820922353E+02  0.00000000000E+00 0. -1.
         11    1    4    4    0    0 -0.79603802815E+01  0.88344112222E+01 -0.23323834794E+01  0.12118353388E+02  0.51100000000E-03 0. -1.
        -11    1    4    4    0    0 -0.25818768735E+01  0.17151440076E+02 -0.15728338168E+02  0.23414068563E+02  0.51100000000E-03 0.  1.
         12    1    4    4    0    0 -0.16955229544E+02 -0.40804659145E+01  0.71143688588E+01  0.18834655697E+02  0.00000000000E+00 0. -1.
</event>
<event>
 8    1  0.1212194E-006  0.9118800E+02  0.7816164E-02  0.1184000E+00
        -11   -1    0    0    0    0  0.00000000000E+00  0.00000000000E+00  0.45593999997E+02  0.45594000000E+02  0.51100000000E-03 0. -1.
         11   -1    0    0    0    0 -0.00000000000E+00 -0.00000000000E+00 -0.45593999997E+02  0.45594000000E+02  0.51100000000E-03 0.  1.
         23    2    1    2    0    0  0.00000000000E+00  0.00000000000E+00  0.00000000000E+00  0.91188000000E+02  0.91188000000E+02 0.  0.
    9900012    2    3    3    0    0  0.16102928690E+02 -0.18629096519E+02 -0.27375743396E+02  0.54367097295E+02  0.40000029904E+02 0.  0.
         12    1    3    3    0    0 -0.16102928690E+02  0.18629096519E+02  0.27375743396E+02  0.36820902705E+02  0.00000000000E+00 0. -1.
         11    1    4    4    0    0  0.10960241202E+02 -0.96257462677E+01 -0.31062512172E+01  0.14914109940E+02  0.51100000000E-03 0. -1.
        -11    1    4    4    0    0  0.42025015090E+01 -0.16696680154E+02 -0.26305795077E+02  0.31439386158E+02  0.51100000000E-03 0.  1.
         12    1    4    4    0    0  0.94018597918E+00  0.76933299030E+01  0.20363028973E+01  0.80136011980E+01  0.00000000000E+00 0. -1.
</event>
<event>
 8    1  0.1212194E-006  0.9118800E+02  0.7816164E-02  0.1184000E+00
        -11   -1    0    0    0    0  0.00000000000E+00  0.00000000000E+00  0.45593999997E+02  0.45594000000E+02  0.51100000000E-03 0.  1.
         11   -1    0    0    0    0 -0.00000000000E+00 -0.00000000000E+00 -0.45593999997E+02  0.45594000000E+02  0.51100000000E-03 0. -1.
         23    2    1    2    0    0  0.00000000000E+00  0.00000000000E+00 -0.35527136788E-14  0.91188000000E+02  0.91188000000E+02 0.  0.
    9900012    2    3    3    0    0  0.22228456583E+02  0.33781721103E+01 -0.29159282321E+02  0.54367081022E+02  0.39999992806E+02 0.  0.
        -12    1    3    3    0    0 -0.22228456583E+02 -0.33781721103E+01  0.29159282321E+02  0.36820918978E+02  0.00000000000E+00 0.  1.
         11    1    4    4    0    0  0.34943354058E+01 -0.34903233858E+01 -0.18512844151E+01  0.52744659931E+01  0.51100000000E-03 0. -1.
        -11    1    4    4    0    0  0.26676699040E+02  0.51265472169E+01 -0.82779035809E+01  0.28398088774E+02  0.51100000000E-03 0.  1.
        -12    1    4    4    0    0 -0.79425778627E+01  0.17419482791E+01 -0.19030094325E+02  0.20694526255E+02  0.00000000000E+00 0.  1.
</event>
<event>
 8    1  0.1212194E-006  0.9118800E+02  0.7816164E-02  0.1184000E+00
        -11   -1    0    0    0    0  0.00000000000E+00  0.00000000000E+00  0.45593999997E+02  0.45594000000E+02  0.51100000000E-03 0. -1.
         11   -1    0    0    0    0 -0.00000000000E+00 -0.00000000000E+00 -0.45593999997E+02  0.45594000000E+02  0.51100000000E-03 0.  1.
         23    2    1    2    0    0  0.00000000000E+00 -0.35527136788E-14 -0.88817841970E-15  0.91188000000E+02  0.91188000000E+02 0.  0.
    9900012    2    3    3    0    0  0.31015792882E+02 -0.18639134244E+02  0.68106050068E+01  0.54367067447E+02  0.39999961859E+02 0.  0.
        -12    1    3    3    0    0 -0.31015792882E+02  0.18639134244E+02 -0.68106050068E+01  0.36820932553E+02  0.00000000000E+00 0.  1.
         11    1    4    4    0    0  0.14430069139E+02 -0.23741678151E+02  0.16298207096E+02  0.32210646246E+02  0.51100000000E-03 0. -1.
        -11    1    4    4    0    0  0.96013179972E+01 -0.73428189590E+00 -0.94882251562E+00  0.96759878883E+01  0.51100000000E-03 0.  1.
        -12    1    4    4    0    0  0.69844057463E+01  0.58368258026E+01 -0.85387795733E+01  0.12480433313E+02  0.00000000000E+00 0.  1.
</event>
<event>
 8    1  0.1212194E-006  0.9118800E+02  0.7816164E-02  0.1184000E+00
        -11   -1    0    0    0    0  0.00000000000E+00  0.00000000000E+00  0.45593999997E+02  0.45594000000E+02  0.51100000000E-03 0. -1.
         11   -1    0    0    0    0 -0.00000000000E+00 -0.00000000000E+00 -0.45593999997E+02  0.45594000000E+02  0.51100000000E-03 0.  1.
         23    2    1    2    0    0  0.00000000000E+00  0.00000000000E+00 -0.38857805862E-15  0.91188000000E+02  0.91188000000E+02 0.  0.
    9900012    2    3    3    0    0  0.35514538213E+02 -0.97195778116E+01 -0.16658940597E+00  0.54367077017E+02  0.39999983675E+02 0.  0.
        -12    1    3    3    0    0 -0.35514538213E+02  0.97195778116E+01  0.16658940597E+00  0.36820922983E+02  0.00000000000E+00 0.  1.
         11    1    4    4    0    0  0.13498239912E+02  0.74063436518E+01  0.15546420792E+02  0.21880301797E+02  0.51100000000E-03 0. -1.
        -11    1    4    4    0    0  0.12444903297E+02 -0.80833427546E+01 -0.11111036566E+02  0.18538370533E+02  0.51100000000E-03 0.  1.
         12    1    4    4    0    0  0.95713950034E+01 -0.90425787088E+01 -0.46019736318E+01  0.13948404687E+02  0.00000000000E+00 0. -1.
</event>
<event>
 8    1  0.1212194E-006  0.9118800E+02  0.7816164E-02  0.1184000E+00
        -11   -1    0    0    0    0  0.00000000000E+00  0.00000000000E+00  0.45593999997E+02  0.45594000000E+02  0.51100000000E-03 0.  1.
         11   -1    0    0    0    0 -0.00000000000E+00 -0.00000000000E+00 -0.45593999997E+02  0.45594000000E+02  0.51100000000E-03 0. -1.
         23    2    1    2    0    0  0.66613381478E-15 -0.71054273576E-14  0.88817841970E-15  0.91188000000E+02  0.91188000000E+02 0.  0.
    9900012    2    3    3    0    0 -0.13212815573E+01 -0.36309943821E+02  0.59684319809E+01  0.54367082229E+02  0.39999995557E+02 0.  0.
        -12    1    3    3    0    0  0.13212815573E+01  0.36309943821E+02 -0.59684319809E+01  0.36820917771E+02  0.00000000000E+00 0.  1.
         11    1    4    4    0    0  0.11984858190E+02 -0.47652936418E+01  0.33824089722E+01  0.13333624415E+02  0.51100000000E-03 0. -1.
        -11    1    4    4    0    0 -0.74495599206E+01  0.47519935605E-02  0.48110227608E+01  0.88680271683E+01  0.51100000000E-03 0.  1.
        -12    1    4    4    0    0 -0.58565798268E+01 -0.31549402172E+02 -0.22249997522E+01  0.32165430645E+02  0.00000000000E+00 0.  1.
</event>
<event>
 8    1  0.1212194E-006  0.9118800E+02  0.7816164E-02  0.1184000E+00
        -11   -1    0    0    0    0  0.00000000000E+00  0.00000000000E+00  0.45593999997E+02  0.45594000000E+02  0.51100000000E-03 0.  1.
         11   -1    0    0    0    0 -0.00000000000E+00 -0.00000000000E+00 -0.45593999997E+02  0.45594000000E+02  0.51100000000E-03 0. -1.
         23    2    1    2    0    0  0.00000000000E+00  0.17763568394E-14  0.00000000000E+00  0.91188000000E+02  0.91188000000E+02 0.  0.
    9900012    2    3    3    0    0 -0.49737612158E+01 -0.13708901556E+02 -0.33809866337E+02  0.54367090937E+02  0.40000015409E+02 0.  0.
        -12    1    3    3    0    0  0.49737612158E+01  0.13708901556E+02  0.33809866337E+02  0.36820909063E+02  0.00000000000E+00 0.  1.
         11    1    4    4    0    0 -0.87799680344E+01 -0.12869283142E+01 -0.18087644995E+02  0.20147131927E+02  0.51100000000E-03 0. -1.
        -11    1    4    4    0    0  0.56868275129E+01  0.42979775033E+01 -0.15866229677E+02  0.17393960510E+02  0.51100000000E-03 0.  1.
         12    1    4    4    0    0 -0.18806206943E+01 -0.16719950745E+02  0.14400833520E+00  0.16825998500E+02  0.00000000000E+00 0. -1.
</event>
<event>
 8    1  0.1212194E-006  0.9118800E+02  0.7816164E-02  0.1184000E+00
        -11   -1    0    0    0    0  0.00000000000E+00  0.00000000000E+00  0.45593999997E+02  0.45594000000E+02  0.51100000000E-03 0.  1.
         11   -1    0    0    0    0 -0.00000000000E+00 -0.00000000000E+00 -0.45593999997E+02  0.45594000000E+02  0.51100000000E-03 0. -1.
         23    2    1    2    0    0 -0.71054273576E-14 -0.24424906542E-14  0.00000000000E+00  0.91188000000E+02  0.91188000000E+02 0.  0.
    9900012    2    3    3    0    0  0.31187988691E+02  0.11981705970E+01  0.19535960539E+02  0.54367081957E+02  0.39999994938E+02 0.  0.
         12    1    3    3    0    0 -0.31187988691E+02 -0.11981705970E+01 -0.19535960539E+02  0.36820918043E+02  0.00000000000E+00 0. -1.
         11    1    4    4    0    0  0.14017308102E+01 -0.10798476345E+02  0.59601500758E+00  0.10905373666E+02  0.51100000000E-03 0. -1.
        -11    1    4    4    0    0  0.30583268800E+02  0.76146382142E+01  0.93286201459E+01  0.32868559441E+02  0.51100000000E-03 0.  1.
         12    1    4    4    0    0 -0.79701091998E+00  0.43820087281E+01  0.96113253851E+01  0.10593148850E+02  0.00000000000E+00 0. -1.
</event>
<event>
 8    1  0.1212194E-006  0.9118800E+02  0.7816164E-02  0.1184000E+00
        -11   -1    0    0    0    0  0.00000000000E+00  0.00000000000E+00  0.45593999997E+02  0.45594000000E+02  0.51100000000E-03 0. -1.
         11   -1    0    0    0    0 -0.00000000000E+00 -0.00000000000E+00 -0.45593999997E+02  0.45594000000E+02  0.51100000000E-03 0.  1.
         23    2    1    2    0    0  0.00000000000E+00  0.00000000000E+00 -0.13322676296E-14  0.91188000000E+02  0.91188000000E+02 0.  0.
    9900012    2    3    3    0    0  0.34405738855E+02  0.12491927297E+02  0.39965741085E+01  0.54367140174E+02  0.40000127654E+02 0.  0.
        -12    1    3    3    0    0 -0.34405738855E+02 -0.12491927297E+02 -0.39965741085E+01  0.36820859826E+02  0.00000000000E+00 0.  1.
         11    1    4    4    0    0  0.17759985808E+02  0.38412898417E+01  0.16956841572E+02  0.24853713604E+02  0.51100000000E-03 0. -1.
        -11    1    4    4    0    0  0.14954241682E+02  0.14061293893E+02 -0.11960130678E+02  0.23756979108E+02  0.51100000000E-03 0.  1.
         12    1    4    4    0    0  0.16915113651E+01 -0.54106564382E+01 -0.10001367861E+01  0.57564474618E+01  0.00000000000E+00 0. -1.
</event>
<event>
 8    1  0.1212194E-006  0.9118800E+02  0.7816164E-02  0.1184000E+00
        -11   -1    0    0    0    0  0.00000000000E+00  0.00000000000E+00  0.45593999997E+02  0.45594000000E+02  0.51100000000E-03 0. -1.
         11   -1    0    0    0    0 -0.00000000000E+00 -0.00000000000E+00 -0.45593999997E+02  0.45594000000E+02  0.51100000000E-03 0.  1.
         23    2    1    2    0    0 -0.17763568394E-14 -0.35527136788E-14 -0.71054273576E-14  0.91188000000E+02  0.91188000000E+02 0.  0.
    9900012    2    3    3    0    0 -0.14579391257E+02 -0.14911658523E+02 -0.30345872158E+02  0.54366971139E+02  0.39999742305E+02 0.  0.
         12    1    3    3    0    0  0.14579391257E+02  0.14911658523E+02  0.30345872158E+02  0.36821028861E+02  0.00000000000E+00 0. -1.
         11    1    4    4    0    0 -0.92463164141E+00  0.77758891499E+01 -0.53962426557E+01  0.95099332702E+01  0.51100000000E-03 0. -1.
        -11    1    4    4    0    0 -0.92685739012E+01 -0.12726698086E+02  0.19258189287E+01  0.15861402370E+02  0.51100000000E-03 0.  1.
        -12    1    4    4    0    0 -0.43861857147E+01 -0.99608495877E+01 -0.26875448431E+02  0.28995635499E+02  0.00000000000E+00 0.  1.
</event>
<event>
 8    1  0.1212194E-006  0.9118800E+02  0.7816164E-02  0.1184000E+00
        -11   -1    0    0    0    0  0.00000000000E+00  0.00000000000E+00  0.45593999997E+02  0.45594000000E+02  0.51100000000E-03 0.  1.
         11   -1    0    0    0    0 -0.00000000000E+00 -0.00000000000E+00 -0.45593999997E+02  0.45594000000E+02  0.51100000000E-03 0. -1.
         23    2    1    2    0    0  0.88817841970E-15  0.00000000000E+00 -0.88817841970E-15  0.91188000000E+02  0.91188000000E+02 0.  0.
    9900012    2    3    3    0    0  0.51992939518E+01 -0.36182156565E+02  0.44264057966E+01  0.54367161070E+02  0.40000175290E+02 0.  0.
         12    1    3    3    0    0 -0.51992939518E+01  0.36182156565E+02 -0.44264057966E+01  0.36820838930E+02  0.00000000000E+00 0. -1.
         11    1    4    4    0    0  0.31970232361E+01  0.13674867460E+01  0.11055030266E+02  0.11588989258E+02  0.51100000000E-03 0. -1.
        -11    1    4    4    0    0 -0.86287018357E+01 -0.17667942119E+02 -0.20144099880E+01  0.19765336373E+02  0.51100000000E-03 0.  1.
        -12    1    4    4    0    0  0.10630972551E+02 -0.19881701192E+02 -0.46142144811E+01  0.23012835439E+02  0.00000000000E+00 0.  1.
</event>
<event>
 8    1  0.1212194E-006  0.9118800E+02  0.7816164E-02  0.1184000E+00
        -11   -1    0    0    0    0  0.00000000000E+00  0.00000000000E+00  0.45593999997E+02  0.45594000000E+02  0.51100000000E-03 0.  1.
         11   -1    0    0    0    0 -0.00000000000E+00 -0.00000000000E+00 -0.45593999997E+02  0.45594000000E+02  0.51100000000E-03 0. -1.
         23    2    1    2    0    0  0.00000000000E+00  0.00000000000E+00 -0.35527136788E-14  0.91188000000E+02  0.91188000000E+02 0.  0.
    9900012    2    3    3    0    0 -0.21651275916E+02 -0.78934207903E+01  0.28717558329E+02  0.54367054915E+02  0.39999933289E+02 0.  0.
         12    1    3    3    0    0  0.21651275916E+02  0.78934207903E+01 -0.28717558329E+02  0.36820945085E+02  0.00000000000E+00 0. -1.
         11    1    4    4    0    0 -0.77459475504E+01  0.19998832611E+01  0.27960182796E+02  0.29082143297E+02  0.51100000000E-03 0. -1.
        -11    1    4    4    0    0 -0.16019499146E+02 -0.57572693734E+01  0.62117867299E+01  0.18120618041E+02  0.51100000000E-03 0.  1.
        -12    1    4    4    0    0  0.21141707803E+01 -0.41360346780E+01 -0.54544111970E+01  0.71642935766E+01  0.00000000000E+00 0.  1.
</event>
<event>
 8    1  0.1212194E-006  0.9118800E+02  0.7816164E-02  0.1184000E+00
        -11   -1    0    0    0    0  0.00000000000E+00  0.00000000000E+00  0.45593999997E+02  0.45594000000E+02  0.51100000000E-03 0. -1.
         11   -1    0    0    0    0 -0.00000000000E+00 -0.00000000000E+00 -0.45593999997E+02  0.45594000000E+02  0.51100000000E-03 0.  1.
         23    2    1    2    0    0  0.12212453271E-14  0.00000000000E+00  0.00000000000E+00  0.91188000000E+02  0.91188000000E+02 0.  0.
    9900012    2    3    3    0    0  0.77863821046E+00 -0.29966634123E+02 -0.21381730885E+02  0.54367029701E+02  0.39999875809E+02 0.  0.
        -12    1    3    3    0    0 -0.77863821046E+00  0.29966634123E+02  0.21381730885E+02  0.36820970299E+02  0.00000000000E+00 0.  1.
         11    1    4    4    0    0 -0.62009026625E+01 -0.12751520824E+02 -0.86171108500E+00  0.14205457522E+02  0.51100000000E-03 0. -1.
        -11    1    4    4    0    0  0.89705379362E+01 -0.23848198572E+02 -0.21276631980E+02  0.33194912181E+02  0.51100000000E-03 0.  1.
         12    1    4    4    0    0 -0.19909970633E+01  0.66330852731E+01  0.75661218009E+00  0.69666599987E+01  0.00000000000E+00 0. -1.
</event>
<event>
 8    1  0.1212194E-006  0.9118800E+02  0.7816164E-02  0.1184000E+00
        -11   -1    0    0    0    0  0.00000000000E+00  0.00000000000E+00  0.45593999997E+02  0.45594000000E+02  0.51100000000E-03 0. -1.
         11   -1    0    0    0    0 -0.00000000000E+00 -0.00000000000E+00 -0.45593999997E+02  0.45594000000E+02  0.51100000000E-03 0.  1.
         23    2    1    2    0    0  0.00000000000E+00  0.35527136788E-14  0.35527136788E-14  0.91188000000E+02  0.91188000000E+02 0.  0.
    9900012    2    3    3    0    0 -0.11971972243E+02 -0.30584614865E+02 -0.16644351260E+02  0.54367065537E+02  0.39999957505E+02 0.  0.
         12    1    3    3    0    0  0.11971972243E+02  0.30584614865E+02  0.16644351260E+02  0.36820934463E+02  0.00000000000E+00 0. -1.
         11    1    4    4    0    0 -0.13806823357E+02 -0.26426591724E+01  0.86803712745E+01  0.16521527304E+02  0.51100000000E-03 0. -1.
        -11    1    4    4    0    0  0.40854415097E+00 -0.91223221944E+01 -0.99233776614E+01  0.13485440112E+02  0.51100000000E-03 0.  1.
         12    1    4    4    0    0  0.14263069637E+01 -0.18819633499E+02 -0.15401344873E+02  0.24360098121E+02  0.00000000000E+00 0. -1.
</event>
<event>
 8    1  0.1212194E-006  0.9118800E+02  0.7816164E-02  0.1184000E+00
        -11   -1    0    0    0    0  0.00000000000E+00  0.00000000000E+00  0.45593999997E+02  0.45594000000E+02  0.51100000000E-03 0.  1.
         11   -1    0    0    0    0 -0.00000000000E+00 -0.00000000000E+00 -0.45593999997E+02  0.45594000000E+02  0.51100000000E-03 0. -1.
         23    2    1    2    0    0 -0.23592239273E-15  0.00000000000E+00 -0.44408920985E-15  0.91188000000E+02  0.91188000000E+02 0.  0.
    9900012    2    3    3    0    0  0.77805631323E-01  0.36713258984E+02  0.28125347008E+01  0.54367084879E+02  0.40000001598E+02 0.  0.
         12    1    3    3    0    0 -0.77805631323E-01 -0.36713258984E+02 -0.28125347008E+01  0.36820915121E+02  0.00000000000E+00 0. -1.
         11    1    4    4    0    0  0.69020855085E+01  0.15223377412E+02 -0.13282551385E+02  0.21349851890E+02  0.51100000000E-03 0. -1.
        -11    1    4    4    0    0 -0.70432154634E+01  0.20317262433E+02  0.19735032953E+02  0.29186804600E+02  0.51100000000E-03 0.  1.
        -12    1    4    4    0    0  0.21893558617E+00  0.11726191394E+01 -0.36399468679E+01  0.38304283884E+01  0.00000000000E+00 0.  1.
</event>
<event>
 8    1  0.1212194E-006  0.9118800E+02  0.7816164E-02  0.1184000E+00
        -11   -1    0    0    0    0  0.00000000000E+00  0.00000000000E+00  0.45593999997E+02  0.45594000000E+02  0.51100000000E-03 0. -1.
         11   -1    0    0    0    0 -0.00000000000E+00 -0.00000000000E+00 -0.45593999997E+02  0.45594000000E+02  0.51100000000E-03 0.  1.
         23    2    1    2    0    0  0.00000000000E+00  0.00000000000E+00  0.35527136788E-14  0.91188000000E+02  0.91188000000E+02 0.  0.
    9900012    2    3    3    0    0  0.24649755761E+02  0.45527114242E+01 -0.26971154461E+02  0.54367070988E+02  0.39999969930E+02 0.  0.
         12    1    3    3    0    0 -0.24649755761E+02 -0.45527114242E+01  0.26971154461E+02  0.36820929012E+02  0.00000000000E+00 0. -1.
         11    1    4    4    0    0  0.63298353588E+01 -0.28023521962E+01  0.29735836285E+01  0.75340688448E+01  0.51100000000E-03 0. -1.
        -11    1    4    4    0    0  0.14671728726E+01 -0.84849030826E+01 -0.19773300061E+02  0.21566862825E+02  0.51100000000E-03 0.  1.
        -12    1    4    4    0    0  0.16852747530E+02  0.15839966703E+02 -0.10171438029E+02  0.25266139318E+02  0.00000000000E+00 0.  1.
</event>
<event>
 8    1  0.1212194E-006  0.9118800E+02  0.7816164E-02  0.1184000E+00
        -11   -1    0    0    0    0  0.00000000000E+00  0.00000000000E+00  0.45593999997E+02  0.45594000000E+02  0.51100000000E-03 0.  1.
         11   -1    0    0    0    0 -0.00000000000E+00 -0.00000000000E+00 -0.45593999997E+02  0.45594000000E+02  0.51100000000E-03 0. -1.
         23    2    1    2    0    0  0.00000000000E+00  0.35527136788E-14  0.00000000000E+00  0.91188000000E+02  0.91188000000E+02 0.  0.
    9900012    2    3    3    0    0  0.26013077212E+02  0.20455669903E+02 -0.16145152572E+02  0.54367074308E+02  0.39999977500E+02 0.  0.
        -12    1    3    3    0    0 -0.26013077212E+02 -0.20455669903E+02  0.16145152572E+02  0.36820925692E+02  0.00000000000E+00 0.  1.
         11    1    4    4    0    0  0.98287347137E+01 -0.35687930210E+01 -0.35253753740E+01  0.11034880221E+02  0.51100000000E-03 0. -1.
        -11    1    4    4    0    0 -0.66126807931E+01 -0.10643831375E+01 -0.55619736053E+01  0.87060903615E+01  0.51100000000E-03 0.  1.
        -12    1    4    4    0    0  0.22797023291E+02  0.25088846062E+02 -0.70578035932E+01  0.34626103726E+02  0.00000000000E+00 0.  1.
</event>
<event>
 8    1  0.1212194E-006  0.9118800E+02  0.7816164E-02  0.1184000E+00
        -11   -1    0    0    0    0  0.00000000000E+00  0.00000000000E+00  0.45593999997E+02  0.45594000000E+02  0.51100000000E-03 0.  1.
         11   -1    0    0    0    0 -0.00000000000E+00 -0.00000000000E+00 -0.45593999997E+02  0.45594000000E+02  0.51100000000E-03 0. -1.
         23    2    1    2    0    0  0.00000000000E+00  0.00000000000E+00 -0.35527136788E-14  0.91188000000E+02  0.91188000000E+02 0.  0.
    9900012    2    3    3    0    0  0.16952258623E+02 -0.24705035932E+02  0.21402357482E+02  0.54367098618E+02  0.40000032919E+02 0.  0.
        -12    1    3    3    0    0 -0.16952258623E+02  0.24705035932E+02 -0.21402357482E+02  0.36820901382E+02  0.00000000000E+00 0.  1.
         11    1    4    4    0    0  0.31194717529E+01 -0.46647990021E+01  0.65650934815E+01  0.86366606063E+01  0.51100000000E-03 0. -1.
        -11    1    4    4    0    0  0.22329655730E+02 -0.14702229741E+02 -0.12564938476E+01  0.26764675627E+02  0.51100000000E-03 0.  1.
        -12    1    4    4    0    0 -0.84968688592E+01 -0.53380071889E+01  0.16093757848E+02  0.18965762384E+02  0.00000000000E+00 0.  1.
</event>
<event>
 8    1  0.1212194E-006  0.9118800E+02  0.7816164E-02  0.1184000E+00
        -11   -1    0    0    0    0  0.00000000000E+00  0.00000000000E+00  0.45593999997E+02  0.45594000000E+02  0.51100000000E-03 0. -1.
         11   -1    0    0    0    0 -0.00000000000E+00 -0.00000000000E+00 -0.45593999997E+02  0.45594000000E+02  0.51100000000E-03 0.  1.
         23    2    1    2    0    0  0.00000000000E+00  0.00000000000E+00  0.00000000000E+00  0.91188000000E+02  0.91188000000E+02 0.  0.
    9900012    2    3    3    0    0  0.30338617800E+02 -0.86040792811E+01 -0.19008362286E+02  0.54367085467E+02  0.40000002939E+02 0.  0.
        -12    1    3    3    0    0 -0.30338617800E+02  0.86040792811E+01  0.19008362286E+02  0.36820914533E+02  0.00000000000E+00 0.  1.
         11    1    4    4    0    0  0.22263668837E+02 -0.20567371383E+02 -0.26962861898E+01  0.30429552661E+02  0.51100000000E-03 0. -1.
        -11    1    4    4    0    0  0.79579271962E+01  0.96265157075E+01 -0.69621262714E+01  0.14299287129E+02  0.51100000000E-03 0.  1.
         12    1    4    4    0    0  0.11702176675E+00  0.23367763940E+01 -0.93499498244E+01  0.96382456769E+01  0.00000000000E+00 0. -1.
</event>
<event>
 8    1  0.1212194E-006  0.9118800E+02  0.7816164E-02  0.1184000E+00
        -11   -1    0    0    0    0  0.00000000000E+00  0.00000000000E+00  0.45593999997E+02  0.45594000000E+02  0.51100000000E-03 0.  1.
         11   -1    0    0    0    0 -0.00000000000E+00 -0.00000000000E+00 -0.45593999997E+02  0.45594000000E+02  0.51100000000E-03 0. -1.
         23    2    1    2    0    0  0.35527136788E-14  0.00000000000E+00  0.17763568394E-14  0.91188000000E+02  0.91188000000E+02 0.  0.
    9900012    2    3    3    0    0 -0.26805727122E+02 -0.20379435723E+02  0.14896683788E+02  0.54367087535E+02  0.40000007653E+02 0.  0.
         12    1    3    3    0    0  0.26805727122E+02  0.20379435723E+02 -0.14896683788E+02  0.36820912465E+02  0.00000000000E+00 0. -1.
         11    1    4    4    0    0 -0.21011827321E+02 -0.99803292223E+01 -0.47069587839E+01  0.23733084924E+02  0.51100000000E-03 0. -1.
        -11    1    4    4    0    0  0.53006227880E+01 -0.52987131056E+01 -0.51110022849E-01  0.74950366918E+01  0.51100000000E-03 0.  1.
         12    1    4    4    0    0 -0.11094522588E+02 -0.51003933946E+01  0.19654752595E+02  0.23138965919E+02  0.00000000000E+00 0. -1.
</event>
<event>
 8    1  0.1212194E-006  0.9118800E+02  0.7816164E-02  0.1184000E+00
        -11   -1    0    0    0    0  0.00000000000E+00  0.00000000000E+00  0.45593999997E+02  0.45594000000E+02  0.51100000000E-03 0. -1.
         11   -1    0    0    0    0 -0.00000000000E+00 -0.00000000000E+00 -0.45593999997E+02  0.45594000000E+02  0.51100000000E-03 0.  1.
         23    2    1    2    0    0 -0.35527136788E-14  0.35527136788E-14  0.00000000000E+00  0.91188000000E+02  0.91188000000E+02 0.  0.
    9900012    2    3    3    0    0  0.23777405996E+02 -0.19084440369E+02 -0.20644605438E+02  0.54367073426E+02  0.39999975490E+02 0.  0.
         12    1    3    3    0    0 -0.23777405996E+02  0.19084440369E+02  0.20644605438E+02  0.36820926574E+02  0.00000000000E+00 0. -1.
         11    1    4    4    0    0 -0.75196159920E+00  0.80661159060E+01 -0.12313565191E+01  0.81941388318E+01  0.51100000000E-03 0. -1.
        -11    1    4    4    0    0  0.99269429112E+01  0.29367181065E+00 -0.89584858965E+01  0.13374786298E+02  0.51100000000E-03 0.  1.
        -12    1    4    4    0    0  0.14602424684E+02 -0.27444228085E+02 -0.10454763022E+02  0.32798148297E+02  0.00000000000E+00 0.  1.
</event>
<event>
 8    1  0.1212194E-006  0.9118800E+02  0.7816164E-02  0.1184000E+00
        -11   -1    0    0    0    0  0.00000000000E+00  0.00000000000E+00  0.45593999997E+02  0.45594000000E+02  0.51100000000E-03 0.  1.
         11   -1    0    0    0    0 -0.00000000000E+00 -0.00000000000E+00 -0.45593999997E+02  0.45594000000E+02  0.51100000000E-03 0. -1.
         23    2    1    2    0    0  0.00000000000E+00  0.44408920985E-15  0.00000000000E+00  0.91188000000E+02  0.91188000000E+02 0.  0.
    9900012    2    3    3    0    0  0.16886720540E+02 -0.19962005562E+01  0.32659341278E+02  0.54367099414E+02  0.40000034734E+02 0.  0.
         12    1    3    3    0    0 -0.16886720540E+02  0.19962005562E+01 -0.32659341278E+02  0.36820900586E+02  0.00000000000E+00 0. -1.
         11    1    4    4    0    0 -0.45136672298E+01  0.33345281057E+01 -0.28771820168E+01  0.63063813846E+01  0.51100000000E-03 0. -1.
        -11    1    4    4    0    0  0.16399441585E+02  0.59852268098E+01  0.11147037978E+02  0.20712824052E+02  0.51100000000E-03 0.  1.
         12    1    4    4    0    0  0.50009461845E+01 -0.11315955472E+02  0.24389485317E+02  0.27347893978E+02  0.00000000000E+00 0. -1.
</event>
<event>
 8    1  0.1212194E-006  0.9118800E+02  0.7816164E-02  0.1184000E+00
        -11   -1    0    0    0    0  0.00000000000E+00  0.00000000000E+00  0.45593999997E+02  0.45594000000E+02  0.51100000000E-03 0. -1.
         11   -1    0    0    0    0 -0.00000000000E+00 -0.00000000000E+00 -0.45593999997E+02  0.45594000000E+02  0.51100000000E-03 0.  1.
         23    2    1    2    0    0 -0.35527136788E-14 -0.17763568394E-14  0.71054273576E-14  0.91188000000E+02  0.91188000000E+02 0.  0.
    9900012    2    3    3    0    0  0.12288721850E+02  0.11935730430E+02 -0.32592970113E+02  0.54367135719E+02  0.40000117499E+02 0.  0.
         12    1    3    3    0    0 -0.12288721850E+02 -0.11935730430E+02  0.32592970113E+02  0.36820864281E+02  0.00000000000E+00 0. -1.
         11    1    4    4    0    0  0.11706271685E+02  0.79284960417E+01  0.58599880336E+01  0.15304813173E+02  0.51100000000E-03 0. -1.
        -11    1    4    4    0    0  0.13964863731E+01  0.89327408467E+00 -0.29532146463E+02  0.29578637355E+02  0.51100000000E-03 0.  1.
        -12    1    4    4    0    0 -0.81403620814E+00  0.31139603034E+01 -0.89208116833E+01  0.94836851913E+01  0.00000000000E+00 0.  1.
</event>
<event>
 8    1  0.1212194E-006  0.9118800E+02  0.7816164E-02  0.1184000E+00
        -11   -1    0    0    0    0  0.00000000000E+00  0.00000000000E+00  0.45593999997E+02  0.45594000000E+02  0.51100000000E-03 0.  1.
         11   -1    0    0    0    0 -0.00000000000E+00 -0.00000000000E+00 -0.45593999997E+02  0.45594000000E+02  0.51100000000E-03 0. -1.
         23    2    1    2    0    0  0.00000000000E+00  0.00000000000E+00  0.00000000000E+00  0.91188000000E+02  0.91188000000E+02 0.  0.
    9900012    2    3    3    0    0 -0.34993706399E+02 -0.81391703996E+01 -0.80607074627E+01  0.54367074059E+02  0.39999976932E+02 0.  0.
         12    1    3    3    0    0  0.34993706399E+02  0.81391703996E+01  0.80607074627E+01  0.36820925941E+02  0.00000000000E+00 0. -1.
         11    1    4    4    0    0 -0.65808193691E-01  0.29995528351E+01 -0.11685676449E+02  0.12064687408E+02  0.51100000000E-03 0. -1.
        -11    1    4    4    0    0 -0.90724211644E+00  0.39313069385E+01  0.31027157053E+01  0.50897060339E+01  0.51100000000E-03 0.  1.
        -12    1    4    4    0    0 -0.34020656089E+02 -0.15070030173E+02  0.52225328107E+00  0.37212680616E+02  0.00000000000E+00 0.  1.
</event>
<event>
 8    1  0.1212194E-006  0.9118800E+02  0.7816164E-02  0.1184000E+00
        -11   -1    0    0    0    0  0.00000000000E+00  0.00000000000E+00  0.45593999997E+02  0.45594000000E+02  0.51100000000E-03 0.  1.
         11   -1    0    0    0    0 -0.00000000000E+00 -0.00000000000E+00 -0.45593999997E+02  0.45594000000E+02  0.51100000000E-03 0. -1.
         23    2    1    2    0    0  0.17763568394E-14  0.00000000000E+00  0.00000000000E+00  0.91188000000E+02  0.91188000000E+02 0.  0.
    9900012    2    3    3    0    0 -0.81280408119E+01 -0.18731246164E+02 -0.30640744462E+02  0.54367084049E+02  0.39999999707E+02 0.  0.
        -12    1    3    3    0    0  0.81280408119E+01  0.18731246164E+02  0.30640744462E+02  0.36820915951E+02  0.00000000000E+00 0.  1.
         11    1    4    4    0    0 -0.11672323418E+02 -0.60234461338E+01 -0.20005992274E+01  0.13286362739E+02  0.51100000000E-03 0. -1.
        -11    1    4    4    0    0  0.37863764950E+01 -0.14175293966E+02 -0.24824778384E+01  0.14880803152E+02  0.51100000000E-03 0.  1.
         12    1    4    4    0    0 -0.24209388883E+00  0.14674939359E+01 -0.26157667396E+02  0.26199918158E+02  0.00000000000E+00 0. -1.
</event>
<event>
 8    1  0.1212194E-006  0.9118800E+02  0.7816164E-02  0.1184000E+00
        -11   -1    0    0    0    0  0.00000000000E+00  0.00000000000E+00  0.45593999997E+02  0.45594000000E+02  0.51100000000E-03 0.  1.
         11   -1    0    0    0    0 -0.00000000000E+00 -0.00000000000E+00 -0.45593999997E+02  0.45594000000E+02  0.51100000000E-03 0. -1.
         23    2    1    2    0    0  0.35527136788E-14  0.00000000000E+00  0.00000000000E+00  0.91188000000E+02  0.91188000000E+02 0.  0.
    9900012    2    3    3    0    0 -0.19472353484E+02  0.65063137960E+01  0.30565923252E+02  0.54367077501E+02  0.39999984779E+02 0.  0.
         12    1    3    3    0    0  0.19472353484E+02 -0.65063137960E+01 -0.30565923252E+02  0.36820922499E+02  0.00000000000E+00 0. -1.
         11    1    4    4    0    0 -0.28050762055E+02  0.14733009541E+02  0.19163989270E+02  0.37029249345E+02  0.51100000000E-03 0. -1.
        -11    1    4    4    0    0  0.31714878146E+01 -0.67234907301E+01  0.60798383019E+01  0.96035460427E+01  0.51100000000E-03 0.  1.
         12    1    4    4    0    0  0.54069207566E+01 -0.15032050153E+01  0.53220956802E+01  0.77342821137E+01  0.00000000000E+00 0. -1.
</event>
<event>
 8    1  0.1212194E-006  0.9118800E+02  0.7816164E-02  0.1184000E+00
        -11   -1    0    0    0    0  0.00000000000E+00  0.00000000000E+00  0.45593999997E+02  0.45594000000E+02  0.51100000000E-03 0.  1.
         11   -1    0    0    0    0 -0.00000000000E+00 -0.00000000000E+00 -0.45593999997E+02  0.45594000000E+02  0.51100000000E-03 0. -1.
         23    2    1    2    0    0 -0.17763568394E-14  0.00000000000E+00 -0.17763568394E-14  0.91188000000E+02  0.91188000000E+02 0.  0.
    9900012    2    3    3    0    0  0.60383396436E+01 -0.34910164560E+02  0.10029806093E+02  0.54367107215E+02  0.40000052517E+02 0.  0.
         12    1    3    3    0    0 -0.60383396436E+01  0.34910164560E+02 -0.10029806093E+02  0.36820892785E+02  0.00000000000E+00 0. -1.
         11    1    4    4    0    0 -0.29657761023E+01  0.45582705633E+01 -0.23651029079E+00  0.54433074317E+01  0.51100000000E-03 0. -1.
        -11    1    4    4    0    0 -0.17094244018E+01 -0.11328936529E+01 -0.56838936682E+01  0.60425348411E+01  0.51100000000E-03 0.  1.
        -12    1    4    4    0    0  0.10713540148E+02 -0.38335541470E+02  0.15950210052E+02  0.42881264942E+02  0.00000000000E+00 0.  1.
</event>
<event>
 8    1  0.1212194E-006  0.9118800E+02  0.7816164E-02  0.1184000E+00
        -11   -1    0    0    0    0  0.00000000000E+00  0.00000000000E+00  0.45593999997E+02  0.45594000000E+02  0.51100000000E-03 0. -1.
         11   -1    0    0    0    0 -0.00000000000E+00 -0.00000000000E+00 -0.45593999997E+02  0.45594000000E+02  0.51100000000E-03 0.  1.
         23    2    1    2    0    0  0.00000000000E+00 -0.26645352591E-14 -0.35527136788E-14  0.91188000000E+02  0.91188000000E+02 0.  0.
    9900012    2    3    3    0    0  0.19639223937E+02 -0.48281615604E+01 -0.30769590378E+02  0.54367109830E+02  0.40000058479E+02 0.  0.
         12    1    3    3    0    0 -0.19639223937E+02  0.48281615604E+01  0.30769590378E+02  0.36820890170E+02  0.00000000000E+00 0. -1.
         11    1    4    4    0    0  0.14458053809E+02  0.10228016168E+02 -0.82532690066E+01  0.19538784103E+02  0.51100000000E-03 0. -1.
        -11    1    4    4    0    0  0.12620957624E+02 -0.40516298016E+01 -0.10387052175E+02  0.16840282912E+02  0.51100000000E-03 0.  1.
         12    1    4    4    0    0 -0.74397874960E+01 -0.11004547927E+02 -0.12129269196E+02  0.17988042815E+02  0.00000000000E+00 0. -1.
</event>
<event>
 8    1  0.1212194E-006  0.9118800E+02  0.7816164E-02  0.1184000E+00
        -11   -1    0    0    0    0  0.00000000000E+00  0.00000000000E+00  0.45593999997E+02  0.45594000000E+02  0.51100000000E-03 0.  1.
         11   -1    0    0    0    0 -0.00000000000E+00 -0.00000000000E+00 -0.45593999997E+02  0.45594000000E+02  0.51100000000E-03 0. -1.
         23    2    1    2    0    0 -0.88817841970E-15  0.00000000000E+00  0.11102230246E-14  0.91188000000E+02  0.91188000000E+02 0.  0.
    9900012    2    3    3    0    0 -0.52385272120E+01 -0.36444001334E+02  0.41832753543E+00  0.54367049462E+02  0.39999920858E+02 0.  0.
        -12    1    3    3    0    0  0.52385272120E+01  0.36444001334E+02 -0.41832753543E+00  0.36820950538E+02  0.00000000000E+00 0.  1.
         11    1    4    4    0    0  0.86132133997E+01  0.18893172079E+01 -0.38851674667E+01  0.96359478561E+01  0.51100000000E-03 0. -1.
        -11    1    4    4    0    0 -0.12715668484E+01 -0.15108802450E+02  0.93879867663E+01  0.17833314036E+02  0.51100000000E-03 0.  1.
         12    1    4    4    0    0 -0.12580173763E+02 -0.23224516092E+02 -0.50844917642E+01  0.26897787570E+02  0.00000000000E+00 0. -1.
</event>
<event>
 8    1  0.1212194E-006  0.9118800E+02  0.7816164E-02  0.1184000E+00
        -11   -1    0    0    0    0  0.00000000000E+00  0.00000000000E+00  0.45593999997E+02  0.45594000000E+02  0.51100000000E-03 0.  1.
         11   -1    0    0    0    0 -0.00000000000E+00 -0.00000000000E+00 -0.45593999997E+02  0.45594000000E+02  0.51100000000E-03 0. -1.
         23    2    1    2    0    0  0.00000000000E+00  0.11102230246E-15  0.88817841970E-15  0.91188000000E+02  0.91188000000E+02 0.  0.
    9900012    2    3    3    0    0 -0.36596929637E+02 -0.53595289858E+00 -0.40196594764E+01  0.54367079769E+02  0.39999989949E+02 0.  0.
         12    1    3    3    0    0  0.36596929637E+02  0.53595289858E+00  0.40196594764E+01  0.36820920231E+02  0.00000000000E+00 0. -1.
         11    1    4    4    0    0 -0.61260097498E+01 -0.96907868068E+00 -0.11024899540E+02  0.12649724071E+02  0.51100000000E-03 0. -1.
        -11    1    4    4    0    0 -0.41041273031E+01  0.42291480430E+01  0.13122769317E+02  0.14385292103E+02  0.51100000000E-03 0.  1.
        -12    1    4    4    0    0 -0.26366792584E+02 -0.37960222609E+01 -0.61175292528E+01  0.27332063594E+02  0.00000000000E+00 0.  1.
</event>
<event>
 8    1  0.1212194E-006  0.9118800E+02  0.7816164E-02  0.1184000E+00
        -11   -1    0    0    0    0  0.00000000000E+00  0.00000000000E+00  0.45593999997E+02  0.45594000000E+02  0.51100000000E-03 0.  1.
         11   -1    0    0    0    0 -0.00000000000E+00 -0.00000000000E+00 -0.45593999997E+02  0.45594000000E+02  0.51100000000E-03 0. -1.
         23    2    1    2    0    0 -0.17763568394E-14 -0.43021142204E-15  0.00000000000E+00  0.91188000000E+02  0.91188000000E+02 0.  0.
    9900012    2    3    3    0    0  0.15416599930E+02  0.10590068771E+00 -0.33438012071E+02  0.54367035597E+02  0.39999889250E+02 0.  0.
        -12    1    3    3    0    0 -0.15416599930E+02 -0.10590068771E+00  0.33438012071E+02  0.36820964403E+02  0.00000000000E+00 0.  1.
         11    1    4    4    0    0  0.30408214081E+01  0.37076174305E+01 -0.82346290042E+01  0.95290155286E+01  0.51100000000E-03 0. -1.
        -11    1    4    4    0    0  0.23155282075E+02 -0.57203985781E+01 -0.95007236706E+01  0.25673990699E+02  0.51100000000E-03 0.  1.
        -12    1    4    4    0    0 -0.10779503553E+02  0.21186818353E+01 -0.15702659396E+02  0.19164029369E+02  0.00000000000E+00 0.  1.
</event>
