<event>
 4    1  0.7245070E-001  0.1774630E+03  0.7546771E-02  0.1170281E+00
         -1   -1    0    0    0  501 -0.00000000000E+00  0.00000000000E+00  0.23153773374E+03  0.23153773374E+03  0.00000000000E+00 0.  1.
          1   -1    0    0  502    0  0.00000000000E+00 -0.00000000000E+00 -0.14217286621E+03  0.14217286621E+03  0.00000000000E+00 0. -1.
          6    1    1    2  502    0 -0.30952523061E+02  0.24618168858E+02  0.83563198012E+02  0.19615280009E+03  0.17300000000E+03 0.  1.
         -6    1    1    2    0  501  0.30952523061E+02 -0.24618168858E+02  0.58016695199E+01  0.17755779986E+03  0.17300000000E+03 0.  1.
<mgrwt>
<rscale>  2 0.17746299E+03</rscale>
<asrwt>0</asrwt>
<pdfrwt beam="1">  1        1 0.21872749E-01 0.17746299E+03</pdfrwt>
<pdfrwt beam="2">  1       -1 0.35621190E-01 0.17746299E+03</pdfrwt>
<totfact> 0.17010234E+03</totfact>
</mgrwt>
</event>
<event>
 4    1  0.7245070E-001  0.2137378E+03  0.7546771E-02  0.1138640E+00
         -2   -1    0    0    0  501 -0.00000000000E+00  0.00000000000E+00  0.62623183521E+03  0.62623183521E+03  0.00000000000E+00 0. -1.
          2   -1    0    0  502    0  0.00000000000E+00 -0.00000000000E+00 -0.74143425383E+02  0.74143425383E+02  0.00000000000E+00 0.  1.
          6    1    1    2  502    0  0.51804902932E+02 -0.11432884331E+03  0.32046621251E+03  0.38520439476E+03  0.17300000000E+03 0. -1.
         -6    1    1    2    0  501 -0.51804902932E+02  0.11432884331E+03  0.23162219732E+03  0.31517086584E+03  0.17300000000E+03 0. -1.
<mgrwt>
<rscale>  2 0.21373777E+03</rscale>
<asrwt>0</asrwt>
<pdfrwt beam="1">  1        2 0.11406681E-01 0.21373777E+03</pdfrwt>
<pdfrwt beam="2">  1       -2 0.96343356E-01 0.21373777E+03</pdfrwt>
<totfact> 0.50696448E+02</totfact>
</mgrwt>
</event>
<event>
 4    1  0.7245070E-001  0.2123736E+03  0.7546771E-02  0.1139700E+00
         -2   -1    0    0    0  501 -0.00000000000E+00  0.00000000000E+00  0.63159076107E+02  0.63159076107E+02  0.00000000000E+00 0.  1.
          2   -1    0    0  502    0  0.00000000000E+00 -0.00000000000E+00 -0.92020686181E+03  0.92020686181E+03  0.00000000000E+00 0. -1.
          6    1    1    2  502    0  0.95724580806E+02  0.77526460193E+02 -0.19583385257E+03  0.28888309956E+03  0.17300000000E+03 0.  1.
         -6    1    1    2    0  501 -0.95724580806E+02 -0.77526460193E+02 -0.66121393313E+03  0.69448283835E+03  0.17300000000E+03 0. -1.
<mgrwt>
<rscale>  2 0.21237360E+03</rscale>
<asrwt>0</asrwt>
<pdfrwt beam="1">  1        2 0.14157029E+00 0.21237360E+03</pdfrwt>
<pdfrwt beam="2">  1       -2 0.97167809E-02 0.21237360E+03</pdfrwt>
<totfact> 0.20416200E+03</totfact>
</mgrwt>
</event>
<event>
 4    1  0.7245070E-001  0.3126250E+03  0.7546771E-02  0.1079094E+00
         -2   -1    0    0    0  501 -0.00000000000E+00  0.00000000000E+00  0.13255602717E+03  0.13255602717E+03  0.00000000000E+00 0.  1.
          2   -1    0    0  502    0  0.00000000000E+00 -0.00000000000E+00 -0.73755470470E+03  0.73755470470E+03  0.00000000000E+00 0. -1.
          6    1    1    2  502    0  0.25607258372E+03  0.47246672601E+02 -0.31048076313E+03  0.44060494831E+03  0.17300000000E+03 0.  1.
         -6    1    1    2    0  501 -0.25607258372E+03 -0.47246672601E+02 -0.29451791440E+03  0.42950578355E+03  0.17300000000E+03 0. -1.
<mgrwt>
<rscale>  2 0.31262504E+03</rscale>
<asrwt>0</asrwt>
<pdfrwt beam="1">  1        2 0.11346996E+00 0.31262504E+03</pdfrwt>
<pdfrwt beam="2">  1       -2 0.20393235E-01 0.31262504E+03</pdfrwt>
<totfact> 0.80067676E+02</totfact>
</mgrwt>
</event>
<event>
 4    1  0.7245070E-001  0.2038155E+03  0.7546771E-02  0.1146559E+00
          2   -1    0    0  502    0  0.00000000000E+00  0.00000000000E+00  0.21095654243E+03  0.21095654243E+03  0.00000000000E+00 0.  1.
         -2   -1    0    0    0  501 -0.00000000000E+00 -0.00000000000E+00 -0.23316952366E+03  0.23316952366E+03  0.00000000000E+00 0. -1.
          6    1    1    2  502    0  0.10555635768E+03  0.21670567646E+02  0.76455244957E+02  0.21768362968E+03  0.17300000000E+03 0.  1.
         -6    1    1    2    0  501 -0.10555635768E+03 -0.21670567646E+02 -0.98668226193E+02  0.22644243641E+03  0.17300000000E+03 0. -1.
<mgrwt>
<rscale>  2 0.20381550E+03</rscale>
<asrwt>0</asrwt>
<pdfrwt beam="1">  1        2 0.32454853E-01 0.20381550E+03</pdfrwt>
<pdfrwt beam="2">  1       -2 0.35872234E-01 0.20381550E+03</pdfrwt>
<totfact> 0.11721240E+03</totfact>
</mgrwt>
</event>
<event>
 4    1  0.7245070E-001  0.2271073E+03  0.7546771E-02  0.1128693E+00
          2   -1    0    0  502    0  0.00000000000E+00  0.00000000000E+00  0.97618188684E+03  0.97618188684E+03  0.00000000000E+00 0. -1.
         -2   -1    0    0    0  501 -0.00000000000E+00 -0.00000000000E+00 -0.67875309739E+02  0.67875309739E+02  0.00000000000E+00 0.  1.
          6    1    1    2  502    0  0.57711318616E+02 -0.13534442485E+03  0.20842796388E+03  0.30825302231E+03  0.17300000000E+03 0.  1.
         -6    1    1    2    0  501 -0.57711318616E+02  0.13534442485E+03  0.69987861322E+03  0.73580417428E+03  0.17300000000E+03 0. -1.
<mgrwt>
<rscale>  2 0.22710726E+03</rscale>
<asrwt>0</asrwt>
<pdfrwt beam="1">  1        2 0.15018182E+00 0.22710726E+03</pdfrwt>
<pdfrwt beam="2">  1       -2 0.10442356E-01 0.22710726E+03</pdfrwt>
<totfact> 0.16804453E+03</totfact>
</mgrwt>
</event>
<event>
 4    1  0.7245070E-001  0.3011595E+03  0.7546771E-02  0.1084662E+00
         -1   -1    0    0    0  501 -0.00000000000E+00  0.00000000000E+00  0.23977488423E+03  0.23977488423E+03  0.00000000000E+00 0.  1.
          1   -1    0    0  502    0  0.00000000000E+00 -0.00000000000E+00 -0.37976279077E+03  0.37976279077E+03  0.00000000000E+00 0. -1.
          6    1    1    2  502    0 -0.24054074131E+03  0.53927516427E+02 -0.89486329930E+02  0.31417324600E+03  0.17300000000E+03 0.  1.
         -6    1    1    2    0  501  0.24054074131E+03 -0.53927516427E+02 -0.50501576609E+02  0.30536442900E+03  0.17300000000E+03 0. -1.
<mgrwt>
<rscale>  2 0.30115947E+03</rscale>
<asrwt>0</asrwt>
<pdfrwt beam="1">  1        1 0.58425045E-01 0.30115947E+03</pdfrwt>
<pdfrwt beam="2">  1       -1 0.36888444E-01 0.30115947E+03</pdfrwt>
<totfact> 0.46394942E+02</totfact>
</mgrwt>
</event>
<event>
 4    1  0.7245070E-001  0.1886419E+03  0.7546771E-02  0.1159692E+00
         -2   -1    0    0    0  501 -0.00000000000E+00  0.00000000000E+00  0.23625215953E+03  0.23625215953E+03  0.00000000000E+00 0.  1.
          2   -1    0    0  502    0  0.00000000000E+00 -0.00000000000E+00 -0.15258368971E+03  0.15258368971E+03  0.00000000000E+00 0. -1.
          6    1    1    2  502    0 -0.75178943825E+02 -0.22097555232E+01  0.63855179432E+02  0.19915632190E+03  0.17300000000E+03 0. -1.
         -6    1    1    2    0  501  0.75178943825E+02  0.22097555232E+01  0.19813290393E+02  0.18967952734E+03  0.17300000000E+03 0. -1.
<mgrwt>
<rscale>  2 0.18864187E+03</rscale>
<asrwt>0</asrwt>
<pdfrwt beam="1">  1        2 0.23474414E-01 0.18864187E+03</pdfrwt>
<pdfrwt beam="2">  1       -2 0.36346486E-01 0.18864187E+03</pdfrwt>
<totfact> 0.16320096E+03</totfact>
</mgrwt>
</event>
<event>
 4    1  0.7245070E-001  0.6536872E+03  0.7546771E-02  0.9799885E-01
          1   -1    0    0  502    0  0.00000000000E+00  0.00000000000E+00  0.10680898578E+04  0.10680898578E+04  0.00000000000E+00 0.  1.
         -1   -1    0    0    0  501 -0.00000000000E+00 -0.00000000000E+00 -0.40604611539E+03  0.40604611539E+03  0.00000000000E+00 0. -1.
          6    1    1    2  502    0  0.35082799032E+03 -0.52373433133E+03  0.42046725650E+03  0.77723847202E+03  0.17300000000E+03 0.  1.
         -6    1    1    2    0  501 -0.35082799032E+03  0.52373433133E+03  0.24157648592E+03  0.69689750118E+03  0.17300000000E+03 0. -1.
<mgrwt>
<rscale>  2 0.65368718E+03</rscale>
<asrwt>0</asrwt>
<pdfrwt beam="1">  1        1 0.16432152E+00 0.65368718E+03</pdfrwt>
<pdfrwt beam="2">  1       -1 0.62468633E-01 0.65368718E+03</pdfrwt>
<totfact> 0.36171822E+01</totfact>
</mgrwt>
</event>
<event>
 4    1  0.7245070E-001  0.2804038E+03  0.7546771E-02  0.1095469E+00
         -2   -1    0    0    0  501 -0.00000000000E+00  0.00000000000E+00  0.34615416699E+02  0.34615416699E+02  0.00000000000E+00 0.  1.
          2   -1    0    0  502    0  0.00000000000E+00 -0.00000000000E+00 -0.29909961780E+04  0.29909961780E+04  0.00000000000E+00 0. -1.
          6    1    1    2  502    0  0.11011648869E+03  0.19123716811E+03 -0.22202048415E+04  0.22378417803E+04  0.17300000000E+03 0. -1.
         -6    1    1    2    0  501 -0.11011648869E+03 -0.19123716811E+03 -0.73617591984E+03  0.78776981441E+03  0.17300000000E+03 0. -1.
<mgrwt>
<rscale>  2 0.28040381E+03</rscale>
<asrwt>0</asrwt>
<pdfrwt beam="1">  1        2 0.46015324E+00 0.28040381E+03</pdfrwt>
<pdfrwt beam="2">  1       -2 0.53254490E-02 0.28040381E+03</pdfrwt>
<totfact> 0.37423223E+02</totfact>
</mgrwt>
</event>
<event>
 4    1  0.7245070E-001  0.1887924E+03  0.7546771E-02  0.1159555E+00
         -2   -1    0    0    0  501 -0.00000000000E+00  0.00000000000E+00  0.31548851589E+02  0.31548851589E+02  0.00000000000E+00 0.  1.
          2   -1    0    0  502    0  0.00000000000E+00 -0.00000000000E+00 -0.11397586172E+04  0.11397586172E+04  0.00000000000E+00 0. -1.
          6    1    1    2  502    0 -0.75529193024E+02  0.29827683922E+01 -0.49924487840E+03  0.53374900892E+03  0.17300000000E+03 0. -1.
         -6    1    1    2    0  501  0.75529193024E+02 -0.29827683922E+01 -0.60896488725E+03  0.63755845991E+03  0.17300000000E+03 0.  1.
<mgrwt>
<rscale>  2 0.18879236E+03</rscale>
<asrwt>0</asrwt>
<pdfrwt beam="1">  1        2 0.17534749E+00 0.18879236E+03</pdfrwt>
<pdfrwt beam="2">  1       -2 0.48536691E-02 0.18879236E+03</pdfrwt>
<totfact> 0.43936932E+03</totfact>
</mgrwt>
</event>
<event>
 4    1  0.7245070E-001  0.1989520E+03  0.7546771E-02  0.1150626E+00
         -2   -1    0    0    0  501 -0.00000000000E+00  0.00000000000E+00  0.64614825146E+02  0.64614825146E+02  0.00000000000E+00 0. -1.
          2   -1    0    0  502    0  0.00000000000E+00 -0.00000000000E+00 -0.66276077532E+03  0.66276077532E+03  0.00000000000E+00 0.  1.
          6    1    1    2  502    0  0.14002735629E+02  0.97246102055E+02 -0.39914443117E+03  0.44597999721E+03  0.17300000000E+03 0.  1.
         -6    1    1    2    0  501 -0.14002735629E+02 -0.97246102055E+02 -0.19900151900E+03  0.28139560326E+03  0.17300000000E+03 0. -1.
<mgrwt>
<rscale>  2 0.19895196E+03</rscale>
<asrwt>0</asrwt>
<pdfrwt beam="1">  1        2 0.10196319E+00 0.19895196E+03</pdfrwt>
<pdfrwt beam="2">  1       -2 0.99407425E-02 0.19895196E+03</pdfrwt>
<totfact> 0.29716423E+03</totfact>
</mgrwt>
</event>
<event>
 4    1  0.7245070E-001  0.2261770E+03  0.7546771E-02  0.1129360E+00
          2   -1    0    0  502    0  0.00000000000E+00  0.00000000000E+00  0.24848796608E+04  0.24848796608E+04  0.00000000000E+00 0. -1.
         -2   -1    0    0    0  501 -0.00000000000E+00 -0.00000000000E+00 -0.20741330956E+02  0.20741330956E+02  0.00000000000E+00 0.  1.
          6    1    1    2  502    0  0.77058177025E+02  0.12364902227E+03  0.13401608342E+04  0.13591126167E+04  0.17300000000E+03 0. -1.
         -6    1    1    2    0  501 -0.77058177025E+02 -0.12364902227E+03  0.11239774956E+04  0.11465083750E+04  0.17300000000E+03 0.  1.
<mgrwt>
<rscale>  2 0.22617702E+03</rscale>
<asrwt>0</asrwt>
<pdfrwt beam="1">  1        2 0.38228894E+00 0.22617702E+03</pdfrwt>
<pdfrwt beam="2">  1       -2 0.31909760E-02 0.22617702E+03</pdfrwt>
<totfact> 0.15865633E+03</totfact>
</mgrwt>
</event>
<event>
 4    1  0.7245070E-001  0.1858858E+03  0.7546771E-02  0.1162225E+00
         -3   -1    0    0    0  501 -0.00000000000E+00  0.00000000000E+00  0.15778931941E+03  0.15778931941E+03  0.00000000000E+00 0.  1.
          3   -1    0    0  502    0  0.00000000000E+00 -0.00000000000E+00 -0.21942237793E+03  0.21942237793E+03  0.00000000000E+00 0. -1.
          6    1    1    2  502    0  0.47919721148E+02  0.48251569986E+02 -0.39235936982E+02  0.18998150550E+03  0.17300000000E+03 0. -1.
         -6    1    1    2    0  501 -0.47919721148E+02 -0.48251569986E+02 -0.22397121537E+02  0.18723019183E+03  0.17300000000E+03 0.  1.
<mgrwt>
<rscale>  2 0.18588575E+03</rscale>
<asrwt>0</asrwt>
<pdfrwt beam="1">  1        3 0.33757289E-01 0.18588575E+03</pdfrwt>
<pdfrwt beam="2">  1       -3 0.24275280E-01 0.18588575E+03</pdfrwt>
<totfact> 0.33007223E+02</totfact>
</mgrwt>
</event>
<event>
 4    1  0.7245070E-001  0.1787152E+03  0.7546771E-02  0.1169052E+00
          2   -1    0    0  502    0  0.00000000000E+00  0.00000000000E+00  0.10834710011E+04  0.10834710011E+04  0.00000000000E+00 0.  1.
         -2   -1    0    0    0  501 -0.00000000000E+00 -0.00000000000E+00 -0.30264796030E+02  0.30264796030E+02  0.00000000000E+00 0. -1.
          6    1    1    2  502    0  0.24617781668E+02 -0.37470999367E+02  0.61636117738E+03  0.64174777907E+03  0.17300000000E+03 0.  1.
         -6    1    1    2    0  501 -0.24617781668E+02  0.37470999367E+02  0.43684502767E+03  0.47198801803E+03  0.17300000000E+03 0.  1.
<mgrwt>
<rscale>  2 0.17871517E+03</rscale>
<asrwt>0</asrwt>
<pdfrwt beam="1">  1        2 0.16668782E+00 0.17871517E+03</pdfrwt>
<pdfrwt beam="2">  1       -2 0.46561233E-02 0.17871517E+03</pdfrwt>
<totfact> 0.50339472E+03</totfact>
</mgrwt>
</event>
<event>
 4    1  0.7245070E-001  0.1881444E+03  0.7546771E-02  0.1160146E+00
         -1   -1    0    0    0  501 -0.00000000000E+00  0.00000000000E+00  0.11990007537E+04  0.11990007537E+04  0.00000000000E+00 0. -1.
          1   -1    0    0  502    0  0.00000000000E+00 -0.00000000000E+00 -0.82035490006E+02  0.82035490006E+02  0.00000000000E+00 0.  1.
          6    1    1    2  502    0 -0.13125472935E+02 -0.72780764748E+02  0.46021318087E+02  0.19369119617E+03  0.17300000000E+03 0.  1.
         -6    1    1    2    0  501  0.13125472935E+02  0.72780764748E+02  0.10709439456E+04  0.10873450475E+04  0.17300000000E+03 0. -1.
<mgrwt>
<rscale>  2 0.18814441E+03</rscale>
<asrwt>0</asrwt>
<pdfrwt beam="1">  1        1 0.12620846E-01 0.18814441E+03</pdfrwt>
<pdfrwt beam="2">  1       -1 0.18446164E+00 0.18814441E+03</pdfrwt>
<totfact> 0.10143931E+02</totfact>
</mgrwt>
</event>
<event>
 4    1  0.7245070E-001  0.2440058E+03  0.7546771E-02  0.1117153E+00
          2   -1    0    0  502    0  0.00000000000E+00  0.00000000000E+00  0.14443203016E+04  0.14443203016E+04  0.00000000000E+00 0. -1.
         -2   -1    0    0    0  501 -0.00000000000E+00 -0.00000000000E+00 -0.44304438360E+02  0.44304438360E+02  0.00000000000E+00 0.  1.
          6    1    1    2  502    0  0.11379240976E+03  0.12907786965E+03  0.50370435594E+03  0.55969356540E+03  0.17300000000E+03 0.  1.
         -6    1    1    2    0  501 -0.11379240976E+03 -0.12907786965E+03  0.89631150727E+03  0.92893117453E+03  0.17300000000E+03 0. -1.
<mgrwt>
<rscale>  2 0.24400576E+03</rscale>
<asrwt>0</asrwt>
<pdfrwt beam="1">  1        2 0.22220309E+00 0.24400576E+03</pdfrwt>
<pdfrwt beam="2">  1       -2 0.68160685E-02 0.24400576E+03</pdfrwt>
<totfact> 0.17780714E+03</totfact>
</mgrwt>
</event>
<event>
 4    1  0.7245070E-001  0.2020651E+03  0.7546771E-02  0.1148008E+00
          2   -1    0    0  502    0  0.00000000000E+00  0.00000000000E+00  0.28394268054E+03  0.28394268054E+03  0.00000000000E+00 0. -1.
         -2   -1    0    0    0  501 -0.00000000000E+00 -0.00000000000E+00 -0.14388697969E+03  0.14388697969E+03  0.00000000000E+00 0.  1.
          6    1    1    2  502    0 -0.57508848571E+02 -0.87143727714E+02  0.75357151679E+02  0.21565944740E+03  0.17300000000E+03 0. -1.
         -6    1    1    2    0  501  0.57508848571E+02  0.87143727714E+02  0.64698549172E+02  0.21217021282E+03  0.17300000000E+03 0. -1.
<mgrwt>
<rscale>  2 0.20206508E+03</rscale>
<asrwt>0</asrwt>
<pdfrwt beam="1">  1        2 0.43683489E-01 0.20206508E+03</pdfrwt>
<pdfrwt beam="2">  1       -2 0.22136458E-01 0.20206508E+03</pdfrwt>
<totfact> 0.20235707E+03</totfact>
</mgrwt>
</event>
<event>
 4    1  0.7245070E-001  0.1970221E+03  0.7546771E-02  0.1152276E+00
          2   -1    0    0  502    0  0.00000000000E+00  0.00000000000E+00  0.18946927061E+04  0.18946927061E+04  0.00000000000E+00 0. -1.
         -2   -1    0    0    0  501 -0.00000000000E+00 -0.00000000000E+00 -0.23980119506E+02  0.23980119506E+02  0.00000000000E+00 0.  1.
          6    1    1    2  502    0  0.93421417477E+02 -0.12694254072E+02  0.56924366522E+03  0.60237534455E+03  0.17300000000E+03 0.  1.
         -6    1    1    2    0  501 -0.93421417477E+02  0.12694254072E+02  0.13014689214E+04  0.13162974811E+04  0.17300000000E+03 0.  1.
<mgrwt>
<rscale>  2 0.19702209E+03</rscale>
<asrwt>0</asrwt>
<pdfrwt beam="1">  1        2 0.29149107E+00 0.19702209E+03</pdfrwt>
<pdfrwt beam="2">  1       -2 0.36892507E-02 0.19702209E+03</pdfrwt>
<totfact> 0.26253738E+03</totfact>
</mgrwt>
</event>
<event>
 4    1  0.7245070E-001  0.1780121E+03  0.7546771E-02  0.1169741E+00
         -1   -1    0    0    0  501 -0.00000000000E+00  0.00000000000E+00  0.58732052733E+02  0.58732052733E+02  0.00000000000E+00 0. -1.
          1   -1    0    0  502    0  0.00000000000E+00 -0.00000000000E+00 -0.63820919634E+03  0.63820919634E+03  0.00000000000E+00 0.  1.
          6    1    1    2  502    0 -0.35797824662E+02 -0.21858824881E+02 -0.42675587403E+03  0.46239471071E+03  0.17300000000E+03 0.  1.
         -6    1    1    2    0  501  0.35797824662E+02  0.21858824881E+02 -0.15272126958E+03  0.23454653836E+03  0.17300000000E+03 0. -1.
<mgrwt>
<rscale>  2 0.17801206E+03</rscale>
<asrwt>0</asrwt>
<pdfrwt beam="1">  1        1 0.98186025E-01 0.17801206E+03</pdfrwt>
<pdfrwt beam="2">  1       -1 0.90357009E-02 0.17801206E+03</pdfrwt>
<totfact> 0.22757355E+03</totfact>
</mgrwt>
</event>
<event>
 4    1  0.7245070E-001  0.1777801E+03  0.7546771E-02  0.1169969E+00
          2   -1    0    0  502    0  0.00000000000E+00  0.00000000000E+00  0.28501055968E+04  0.28501055968E+04  0.00000000000E+00 0.  1.
         -2   -1    0    0    0  501 -0.00000000000E+00 -0.00000000000E+00 -0.12736112703E+02  0.12736112703E+02  0.00000000000E+00 0. -1.
          6    1    1    2  502    0 -0.17677585425E+02  0.36935826533E+02  0.19334005032E+04  0.19415569160E+04  0.17300000000E+03 0.  1.
         -6    1    1    2    0  501  0.17677585425E+02 -0.36935826533E+02  0.90396898083E+03  0.92128479343E+03  0.17300000000E+03 0. -1.
<mgrwt>
<rscale>  2 0.17778007E+03</rscale>
<asrwt>0</asrwt>
<pdfrwt beam="1">  1        2 0.43847728E+00 0.17778007E+03</pdfrwt>
<pdfrwt beam="2">  1       -2 0.19594042E-02 0.17778007E+03</pdfrwt>
<totfact> 0.20571128E+03</totfact>
</mgrwt>
</event>
<event>
 4    1  0.7245070E-001  0.2242081E+03  0.7546771E-02  0.1130784E+00
         -2   -1    0    0    0  501 -0.00000000000E+00  0.00000000000E+00  0.20704110117E+03  0.20704110117E+03  0.00000000000E+00 0.  1.
          2   -1    0    0  502    0  0.00000000000E+00 -0.00000000000E+00 -0.81545233191E+03  0.81545233191E+03  0.00000000000E+00 0. -1.
          6    1    1    2  502    0  0.10428643642E+03 -0.97286265839E+02 -0.73263308651E+03  0.76617264229E+03  0.17300000000E+03 0. -1.
         -6    1    1    2    0  501 -0.10428643642E+03  0.97286265839E+02  0.12422185577E+03  0.25632079079E+03  0.17300000000E+03 0.  1.
<mgrwt>
<rscale>  2 0.22420811E+03</rscale>
<asrwt>0</asrwt>
<pdfrwt beam="1">  1        2 0.12545420E+00 0.22420811E+03</pdfrwt>
<pdfrwt beam="2">  1       -2 0.31852477E-01 0.22420811E+03</pdfrwt>
<totfact> 0.32105586E+02</totfact>
</mgrwt>
</event>
<event>
 4    1  0.7245070E-001  0.2718769E+03  0.7546771E-02  0.1100210E+00
         -2   -1    0    0    0  501 -0.00000000000E+00  0.00000000000E+00  0.75441905986E+03  0.75441905986E+03  0.00000000000E+00 0. -1.
          2   -1    0    0  502    0  0.00000000000E+00 -0.00000000000E+00 -0.10064089897E+03  0.10064089897E+03  0.00000000000E+00 0.  1.
          6    1    1    2  502    0  0.26991851790E+02 -0.20798921783E+03  0.39642214205E+03  0.48069490272E+03  0.17300000000E+03 0.  1.
         -6    1    1    2    0  501 -0.26991851790E+02  0.20798921783E+03  0.25735601884E+03  0.37436505611E+03  0.17300000000E+03 0.  1.
<mgrwt>
<rscale>  2 0.27187695E+03</rscale>
<asrwt>0</asrwt>
<pdfrwt beam="1">  1        2 0.15483216E-01 0.27187695E+03</pdfrwt>
<pdfrwt beam="2">  1       -2 0.11606447E+00 0.27187695E+03</pdfrwt>
<totfact> 0.22650656E+02</totfact>
</mgrwt>
</event>
<event>
 4    1  0.7245070E-001  0.2014777E+03  0.7546771E-02  0.1148498E+00
         -1   -1    0    0    0  501 -0.00000000000E+00  0.00000000000E+00  0.96604909994E+02  0.96604909994E+02  0.00000000000E+00 0. -1.
          1   -1    0    0  502    0  0.00000000000E+00 -0.00000000000E+00 -0.93273442472E+03  0.93273442472E+03  0.00000000000E+00 0.  1.
          6    1    1    2  502    0 -0.76596588626E+02 -0.69261941446E+02 -0.79957979235E+03  0.82457328253E+03  0.17300000000E+03 0.  1.
         -6    1    1    2    0  501  0.76596588626E+02  0.69261941446E+02 -0.36549722374E+02  0.20476605219E+03  0.17300000000E+03 0. -1.
<mgrwt>
<rscale>  2 0.20147768E+03</rscale>
<asrwt>0</asrwt>
<pdfrwt beam="1">  1        1 0.14349761E+00 0.20147768E+03</pdfrwt>
<pdfrwt beam="2">  1       -1 0.14862294E-01 0.20147768E+03</pdfrwt>
<totfact> 0.59281497E+02</totfact>
</mgrwt>
</event>
<event>
 4    1  0.7245070E-001  0.1776358E+03  0.7546771E-02  0.1170111E+00
          3   -1    0    0  502    0  0.00000000000E+00  0.00000000000E+00  0.50441364011E+02  0.50441364011E+02  0.00000000000E+00 0. -1.
         -3   -1    0    0    0  501 -0.00000000000E+00 -0.00000000000E+00 -0.63133377190E+03  0.63133377190E+03  0.00000000000E+00 0.  1.
          6    1    1    2  502    0  0.10509486583E+02  0.38923392478E+02 -0.32302446207E+03  0.36864519919E+03  0.17300000000E+03 0.  1.
         -6    1    1    2    0  501 -0.10509486583E+02 -0.38923392478E+02 -0.25786794582E+03  0.31312993672E+03  0.17300000000E+03 0. -1.
<mgrwt>
<rscale>  2 0.17763581E+03</rscale>
<asrwt>0</asrwt>
<pdfrwt beam="1">  1        3 0.77602100E-02 0.17763581E+03</pdfrwt>
<pdfrwt beam="2">  1       -3 0.97128271E-01 0.17763581E+03</pdfrwt>
<totfact> 0.26139193E+02</totfact>
</mgrwt>
</event>
<event>
 4    1  0.7245070E-001  0.2252592E+03  0.7546771E-02  0.1130022E+00
         -1   -1    0    0    0  501 -0.00000000000E+00  0.00000000000E+00  0.14306932136E+03  0.14306932136E+03  0.00000000000E+00 0. -1.
          1   -1    0    0  502    0  0.00000000000E+00 -0.00000000000E+00 -0.39125377135E+03  0.39125377135E+03  0.00000000000E+00 0.  1.
          6    1    1    2  502    0 -0.14379518220E+03  0.11646492486E+02 -0.20579146149E+03  0.30510952268E+03  0.17300000000E+03 0.  1.
         -6    1    1    2    0  501  0.14379518220E+03 -0.11646492486E+02 -0.42392988499E+02  0.22921357003E+03  0.17300000000E+03 0. -1.
<mgrwt>
<rscale>  2 0.22525917E+03</rscale>
<asrwt>0</asrwt>
<pdfrwt beam="1">  1        1 0.60192887E-01 0.22525917E+03</pdfrwt>
<pdfrwt beam="2">  1       -1 0.22010665E-01 0.22525917E+03</pdfrwt>
<totfact> 0.10732957E+03</totfact>
</mgrwt>
</event>
<event>
 4    1  0.7245070E-001  0.2529419E+03  0.7546771E-02  0.1111460E+00
         -2   -1    0    0    0  501 -0.00000000000E+00  0.00000000000E+00  0.10518738043E+03  0.10518738043E+03  0.00000000000E+00 0.  1.
          2   -1    0    0  502    0  0.00000000000E+00 -0.00000000000E+00 -0.61992419164E+03  0.61992419164E+03  0.00000000000E+00 0. -1.
          6    1    1    2  502    0 -0.35099377987E+02  0.18115917156E+03 -0.20760303785E+03  0.32722871680E+03  0.17300000000E+03 0. -1.
         -6    1    1    2    0  501  0.35099377987E+02 -0.18115917156E+03 -0.30713377335E+03  0.39788285526E+03  0.17300000000E+03 0.  1.
<mgrwt>
<rscale>  2 0.25294191E+03</rscale>
<asrwt>0</asrwt>
<pdfrwt beam="1">  1        2 0.95372951E-01 0.25294191E+03</pdfrwt>
<pdfrwt beam="2">  1       -2 0.16182674E-01 0.25294191E+03</pdfrwt>
<totfact> 0.14628023E+03</totfact>
</mgrwt>
</event>
<event>
 4    1  0.7245070E-001  0.2011891E+03  0.7546771E-02  0.1148740E+00
         -2   -1    0    0    0  501 -0.00000000000E+00  0.00000000000E+00  0.17667729659E+03  0.17667729659E+03  0.00000000000E+00 0. -1.
          2   -1    0    0  502    0  0.00000000000E+00 -0.00000000000E+00 -0.23413288340E+03  0.23413288340E+03  0.00000000000E+00 0.  1.
          6    1    1    2  502    0  0.75653896189E+02 -0.69458890097E+02 -0.58838424070E+02  0.20961633898E+03  0.17300000000E+03 0.  1.
         -6    1    1    2    0  501 -0.75653896189E+02  0.69458890097E+02  0.13828372604E+01  0.20119384101E+03  0.17300000000E+03 0. -1.
<mgrwt>
<rscale>  2 0.20118909E+03</rscale>
<asrwt>0</asrwt>
<pdfrwt beam="1">  1        2 0.36020444E-01 0.20118909E+03</pdfrwt>
<pdfrwt beam="2">  1       -2 0.27181123E-01 0.20118909E+03</pdfrwt>
<totfact> 0.17365068E+03</totfact>
</mgrwt>
</event>
<event>
 4    1  0.7245070E-001  0.1798089E+03  0.7546771E-02  0.1167988E+00
          4   -1    0    0  502    0  0.00000000000E+00  0.00000000000E+00  0.45068315082E+03  0.45068315082E+03  0.00000000000E+00 0.  1.
         -4   -1    0    0    0  501 -0.00000000000E+00 -0.00000000000E+00 -0.85540427027E+02  0.85540427027E+02  0.00000000000E+00 0. -1.
          6    1    1    2  502    0 -0.33747141143E+02  0.35543793818E+02  0.29026837077E+03  0.34144832388E+03  0.17300000000E+03 0. -1.
         -6    1    1    2    0  501  0.33747141143E+02 -0.35543793818E+02  0.74874353019E+02  0.19477525396E+03  0.17300000000E+03 0. -1.
<mgrwt>
<rscale>  2 0.17980887E+03</rscale>
<asrwt>0</asrwt>
<pdfrwt beam="1">  1        4 0.69335868E-01 0.17980887E+03</pdfrwt>
<pdfrwt beam="2">  1       -4 0.13160066E-01 0.17980887E+03</pdfrwt>
<totfact> 0.16137466E+02</totfact>
</mgrwt>
</event>
<event>
 4    1  0.7245070E-001  0.2980428E+03  0.7546771E-02  0.1086223E+00
         -2   -1    0    0    0  501 -0.00000000000E+00  0.00000000000E+00  0.61349656113E+03  0.61349656113E+03  0.00000000000E+00 0. -1.
          2   -1    0    0  502    0  0.00000000000E+00 -0.00000000000E+00 -0.16262931789E+03  0.16262931789E+03  0.00000000000E+00 0.  1.
          6    1    1    2  502    0 -0.56686156764E+02  0.23598139493E+03  0.96915417907E+02  0.31340411189E+03  0.17300000000E+03 0.  1.
         -6    1    1    2    0  501  0.56686156764E+02 -0.23598139493E+03  0.35395182533E+03  0.46272176713E+03  0.17300000000E+03 0. -1.
<mgrwt>
<rscale>  2 0.29804285E+03</rscale>
<asrwt>0</asrwt>
<pdfrwt beam="1">  1        2 0.25019895E-01 0.29804285E+03</pdfrwt>
<pdfrwt beam="2">  1       -2 0.94384085E-01 0.29804285E+03</pdfrwt>
<totfact> 0.21157133E+02</totfact>
</mgrwt>
</event>
<event>
 4    1  0.7245070E-001  0.2997981E+03  0.7546771E-02  0.1085342E+00
          2   -1    0    0  502    0  0.00000000000E+00  0.00000000000E+00  0.16185712720E+04  0.16185712720E+04  0.00000000000E+00 0.  1.
         -2   -1    0    0    0  501 -0.00000000000E+00 -0.00000000000E+00 -0.55574368998E+02  0.55574368998E+02  0.00000000000E+00 0. -1.
          6    1    1    2  502    0  0.22346420030E+03  0.10006824810E+03  0.75778741635E+03  0.81493599226E+03  0.17300000000E+03 0.  1.
         -6    1    1    2    0  501 -0.22346420030E+03 -0.10006824810E+03  0.80520948663E+03  0.85920964872E+03  0.17300000000E+03 0. -1.
<mgrwt>
<rscale>  2 0.29979810E+03</rscale>
<asrwt>0</asrwt>
<pdfrwt beam="1">  1        2 0.24901093E+00 0.29979810E+03</pdfrwt>
<pdfrwt beam="2">  1       -2 0.85499042E-02 0.29979810E+03</pdfrwt>
<totfact> 0.10031275E+03</totfact>
</mgrwt>
</event>
<event>
 4    1  0.7245070E-001  0.2076975E+03  0.7546771E-02  0.1143402E+00
          2   -1    0    0  502    0  0.00000000000E+00  0.00000000000E+00  0.93401213339E+03  0.93401213339E+03  0.00000000000E+00 0. -1.
         -2   -1    0    0    0  501 -0.00000000000E+00 -0.00000000000E+00 -0.80069305958E+02  0.80069305958E+02  0.00000000000E+00 0.  1.
          6    1    1    2  502    0 -0.11336589782E+03 -0.18905464720E+02  0.75681115132E+03  0.78479383417E+03  0.17300000000E+03 0. -1.
         -6    1    1    2    0  501  0.11336589782E+03  0.18905464720E+02  0.97131676114E+02  0.22928760518E+03  0.17300000000E+03 0.  1.
<mgrwt>
<rscale>  2 0.20769748E+03</rscale>
<asrwt>0</asrwt>
<pdfrwt beam="1">  1        2 0.14369417E+00 0.20769748E+03</pdfrwt>
<pdfrwt beam="2">  1       -2 0.12318355E-01 0.20769748E+03</pdfrwt>
<totfact> 0.13688712E+03</totfact>
</mgrwt>
</event>
<event>
 4    1  0.7245070E-001  0.1788362E+03  0.7546771E-02  0.1168934E+00
          2   -1    0    0  502    0  0.00000000000E+00  0.00000000000E+00  0.39048751910E+03  0.39048751910E+03  0.00000000000E+00 0.  1.
         -2   -1    0    0    0  501 -0.00000000000E+00 -0.00000000000E+00 -0.14913926792E+03  0.14913926792E+03  0.00000000000E+00 0. -1.
          6    1    1    2  502    0 -0.44747254771E+02  0.71451801731E+01 -0.60487854070E+02  0.18878864081E+03  0.17300000000E+03 0. -1.
         -6    1    1    2    0  501  0.44747254771E+02 -0.71451801731E+01  0.30183610524E+03  0.35083814621E+03  0.17300000000E+03 0.  1.
<mgrwt>
<rscale>  2 0.17883616E+03</rscale>
<asrwt>0</asrwt>
<pdfrwt beam="1">  1        2 0.60075003E-01 0.17883616E+03</pdfrwt>
<pdfrwt beam="2">  1       -2 0.22944503E-01 0.17883616E+03</pdfrwt>
<totfact> 0.13467021E+03</totfact>
</mgrwt>
</event>
<event>
 4    1  0.7245070E-001  0.2149035E+03  0.7546771E-02  0.1137741E+00
          1   -1    0    0  502    0  0.00000000000E+00  0.00000000000E+00  0.63956087832E+03  0.63956087832E+03  0.00000000000E+00 0.  1.
         -1   -1    0    0    0  501 -0.00000000000E+00 -0.00000000000E+00 -0.14383395619E+03  0.14383395619E+03  0.00000000000E+00 0. -1.
          6    1    1    2  502    0 -0.37419910727E+02 -0.12187807414E+03  0.52426804642E+03  0.56660435859E+03  0.17300000000E+03 0.  1.
         -6    1    1    2    0  501  0.37419910727E+02  0.12187807414E+03 -0.28541124294E+02  0.21679047592E+03  0.17300000000E+03 0. -1.
<mgrwt>
<rscale>  2 0.21490350E+03</rscale>
<asrwt>0</asrwt>
<pdfrwt beam="1">  1        1 0.98393980E-01 0.21490350E+03</pdfrwt>
<pdfrwt beam="2">  1       -1 0.22128301E-01 0.21490350E+03</pdfrwt>
<totfact> 0.55288616E+02</totfact>
</mgrwt>
</event>
<event>
 4    1  0.7245070E-001  0.2233636E+03  0.7546771E-02  0.1131400E+00
          2   -1    0    0  502    0  0.00000000000E+00  0.00000000000E+00  0.63985427524E+03  0.63985427524E+03  0.00000000000E+00 0. -1.
         -2   -1    0    0    0  501 -0.00000000000E+00 -0.00000000000E+00 -0.82379849654E+02  0.82379849654E+02  0.00000000000E+00 0.  1.
          6    1    1    2  502    0 -0.14112298731E+03 -0.68248583885E+01  0.36226055779E+03  0.42558663979E+03  0.17300000000E+03 0. -1.
         -6    1    1    2    0  501  0.14112298731E+03  0.68248583885E+01  0.19521386780E+03  0.29664748510E+03  0.17300000000E+03 0.  1.
<mgrwt>
<rscale>  2 0.22336355E+03</rscale>
<asrwt>0</asrwt>
<pdfrwt beam="1">  1        2 0.98439116E-01 0.22336355E+03</pdfrwt>
<pdfrwt beam="2">  1       -2 0.12673823E-01 0.22336355E+03</pdfrwt>
<totfact> 0.21040201E+03</totfact>
</mgrwt>
</event>
<event>
 4    1  0.7245070E-001  0.1805586E+03  0.7546771E-02  0.1167264E+00
          2   -1    0    0  502    0  0.00000000000E+00  0.00000000000E+00  0.32806158002E+03  0.32806158002E+03  0.00000000000E+00 0.  1.
         -2   -1    0    0    0  501 -0.00000000000E+00 -0.00000000000E+00 -0.13840436781E+03  0.13840436781E+03  0.00000000000E+00 0. -1.
          6    1    1    2  502    0 -0.37003719884E+02 -0.36098720500E+02 -0.29024292104E+02  0.18287646770E+03  0.17300000000E+03 0. -1.
         -6    1    1    2    0  501  0.37003719884E+02  0.36098720500E+02  0.21868150431E+03  0.28358948012E+03  0.17300000000E+03 0.  1.
<mgrwt>
<rscale>  2 0.18055856E+03</rscale>
<asrwt>0</asrwt>
<pdfrwt beam="1">  1        2 0.50471012E-01 0.18055856E+03</pdfrwt>
<pdfrwt beam="2">  1       -2 0.21292980E-01 0.18055856E+03</pdfrwt>
<totfact> 0.18474468E+03</totfact>
</mgrwt>
</event>
<event>
 4    1  0.7245070E-001  0.1905002E+03  0.7546771E-02  0.1158011E+00
         -2   -1    0    0    0  501 -0.00000000000E+00  0.00000000000E+00  0.20908351982E+02  0.20908351982E+02  0.00000000000E+00 0.  1.
          2   -1    0    0  502    0  0.00000000000E+00 -0.00000000000E+00 -0.18838423012E+04  0.18838423012E+04  0.00000000000E+00 0. -1.
          6    1    1    2  502    0  0.65803556258E+02 -0.45069023826E+02 -0.11985501617E+04  0.12135949963E+04  0.17300000000E+03 0. -1.
         -6    1    1    2    0  501 -0.65803556258E+02  0.45069023826E+02 -0.66438378744E+03  0.69115565680E+03  0.17300000000E+03 0. -1.
<mgrwt>
<rscale>  2 0.19050020E+03</rscale>
<asrwt>0</asrwt>
<pdfrwt beam="1">  1        2 0.28982199E+00 0.19050020E+03</pdfrwt>
<pdfrwt beam="2">  1       -2 0.32166685E-02 0.19050020E+03</pdfrwt>
<totfact> 0.32625868E+03</totfact>
</mgrwt>
</event>
<event>
 4    1  0.7245070E-001  0.1904311E+03  0.7546771E-02  0.1158073E+00
         -2   -1    0    0    0  501 -0.00000000000E+00  0.00000000000E+00  0.96799802193E+02  0.96799802193E+02  0.00000000000E+00 0. -1.
          2   -1    0    0  502    0  0.00000000000E+00 -0.00000000000E+00 -0.38515263897E+03  0.38515263897E+03  0.00000000000E+00 0.  1.
          6    1    1    2  502    0 -0.67341207015E+02  0.42428480950E+02 -0.10434364976E+03  0.21714421798E+03  0.17300000000E+03 0. -1.
         -6    1    1    2    0  501  0.67341207015E+02 -0.42428480950E+02 -0.18400918702E+03  0.26480822318E+03  0.17300000000E+03 0.  1.
<mgrwt>
<rscale>  2 0.19043113E+03</rscale>
<asrwt>0</asrwt>
<pdfrwt beam="1">  1        2 0.59254253E-01 0.19043113E+03</pdfrwt>
<pdfrwt beam="2">  1       -2 0.14892277E-01 0.19043113E+03</pdfrwt>
<totfact> 0.28396648E+03</totfact>
</mgrwt>
</event>
<event>
 4    1  0.7245070E-001  0.1847003E+03  0.7546771E-02  0.1163330E+00
          2   -1    0    0  502    0  0.00000000000E+00  0.00000000000E+00  0.54428058897E+03  0.54428058897E+03  0.00000000000E+00 0.  1.
         -2   -1    0    0    0  501 -0.00000000000E+00 -0.00000000000E+00 -0.13181459549E+03  0.13181459549E+03  0.00000000000E+00 0. -1.
          6    1    1    2  502    0 -0.62967163173E+02 -0.14843438806E+02 -0.38589545689E+02  0.18868848494E+03  0.17300000000E+03 0. -1.
         -6    1    1    2    0  501  0.62967163173E+02  0.14843438806E+02  0.45105553917E+03  0.48740669951E+03  0.17300000000E+03 0.  1.
<mgrwt>
<rscale>  2 0.18470027E+03</rscale>
<asrwt>0</asrwt>
<pdfrwt beam="1">  1        2 0.83735474E-01 0.18470027E+03</pdfrwt>
<pdfrwt beam="2">  1       -2 0.20279169E-01 0.18470027E+03</pdfrwt>
<totfact> 0.11570533E+03</totfact>
</mgrwt>
</event>
<event>
 4    1  0.7245070E-001  0.2640102E+03  0.7546771E-02  0.1104758E+00
         -1   -1    0    0    0  501 -0.00000000000E+00  0.00000000000E+00  0.49335062998E+03  0.49335062998E+03  0.00000000000E+00 0.  1.
          1   -1    0    0  502    0  0.00000000000E+00 -0.00000000000E+00 -0.19420826885E+03  0.19420826885E+03  0.00000000000E+00 0. -1.
          6    1    1    2  502    0  0.17520824705E+03  0.95259836191E+02  0.32903765643E+03  0.42186152417E+03  0.17300000000E+03 0. -1.
         -6    1    1    2    0  501 -0.17520824705E+03 -0.95259836191E+02 -0.29895295299E+02  0.26569737467E+03  0.17300000000E+03 0. -1.
<mgrwt>
<rscale>  2 0.26401016E+03</rscale>
<asrwt>0</asrwt>
<pdfrwt beam="1">  1        1 0.29878195E-01 0.26401016E+03</pdfrwt>
<pdfrwt beam="2">  1       -1 0.75900096E-01 0.26401016E+03</pdfrwt>
<totfact> 0.27864822E+02</totfact>
</mgrwt>
</event>
<event>
 4    1  0.7245070E-001  0.1840288E+03  0.7546771E-02  0.1163960E+00
         -1   -1    0    0    0  501 -0.00000000000E+00  0.00000000000E+00  0.34678636420E+03  0.34678636420E+03  0.00000000000E+00 0.  1.
          1   -1    0    0  502    0  0.00000000000E+00 -0.00000000000E+00 -0.98772986777E+02  0.98772986777E+02  0.00000000000E+00 0. -1.
          6    1    1    2  502    0 -0.61962522403E+02  0.99126066537E+01  0.14767168296E+03  0.23595241025E+03  0.17300000000E+03 0.  1.
         -6    1    1    2    0  501  0.61962522403E+02 -0.99126066537E+01  0.10034169446E+03  0.20960694072E+03  0.17300000000E+03 0. -1.
<mgrwt>
<rscale>  2 0.18402884E+03</rscale>
<asrwt>0</asrwt>
<pdfrwt beam="1">  1        1 0.15195844E-01 0.18402884E+03</pdfrwt>
<pdfrwt beam="2">  1       -1 0.53351748E-01 0.18402884E+03</pdfrwt>
<totfact> 0.13194607E+03</totfact>
</mgrwt>
</event>
<event>
 4    1  0.7245070E-001  0.1742449E+03  0.7546771E-02  0.1173492E+00
         -2   -1    0    0    0  501 -0.00000000000E+00  0.00000000000E+00  0.40221246596E+02  0.40221246596E+02  0.00000000000E+00 0.  1.
          2   -1    0    0  502    0  0.00000000000E+00 -0.00000000000E+00 -0.83187432190E+03  0.83187432190E+03  0.00000000000E+00 0. -1.
          6    1    1    2  502    0  0.20621425769E+02 -0.26506740632E+01 -0.52850512895E+03  0.55648804174E+03  0.17300000000E+03 0. -1.
         -6    1    1    2    0  501 -0.20621425769E+02  0.26506740632E+01 -0.26314794635E+03  0.31560752675E+03  0.17300000000E+03 0.  1.
<mgrwt>
<rscale>  2 0.17424485E+03</rscale>
<asrwt>0</asrwt>
<pdfrwt beam="1">  1        2 0.12798067E+00 0.17424485E+03</pdfrwt>
<pdfrwt beam="2">  1       -2 0.61878838E-02 0.17424485E+03</pdfrwt>
<totfact> 0.46783543E+03</totfact>
</mgrwt>
</event>
<event>
 4    1  0.7245070E-001  0.2169222E+03  0.7546771E-02  0.1136199E+00
          2   -1    0    0  502    0  0.00000000000E+00  0.00000000000E+00  0.25502668294E+04  0.25502668294E+04  0.00000000000E+00 0.  1.
         -2   -1    0    0    0  501 -0.00000000000E+00 -0.00000000000E+00 -0.22012887096E+02  0.22012887096E+02  0.00000000000E+00 0. -1.
          6    1    1    2  502    0  0.12811479547E+03 -0.26699164084E+02  0.74677841067E+03  0.77764596111E+03  0.17300000000E+03 0. -1.
         -6    1    1    2    0  501 -0.12811479547E+03  0.26699164084E+02  0.17814755316E+04  0.17946337554E+04  0.17300000000E+03 0.  1.
<mgrwt>
<rscale>  2 0.21692221E+03</rscale>
<asrwt>0</asrwt>
<pdfrwt beam="1">  1        2 0.39234851E+00 0.21692221E+03</pdfrwt>
<pdfrwt beam="2">  1       -2 0.33866000E-02 0.21692221E+03</pdfrwt>
<totfact> 0.13391699E+03</totfact>
</mgrwt>
</event>
<event>
 4    1  0.7245070E-001  0.1800309E+03  0.7546771E-02  0.1167773E+00
          1   -1    0    0  502    0  0.00000000000E+00  0.00000000000E+00  0.12134444316E+03  0.12134444316E+03  0.00000000000E+00 0. -1.
         -1   -1    0    0    0  501 -0.00000000000E+00 -0.00000000000E+00 -0.27361163803E+03  0.27361163803E+03  0.00000000000E+00 0.  1.
          6    1    1    2  502    0  0.34906200304E+02 -0.35548234064E+02 -0.10659791342E+03  0.20922293113E+03  0.17300000000E+03 0.  1.
         -6    1    1    2    0  501 -0.34906200304E+02  0.35548234064E+02 -0.45669281450E+02  0.18573315006E+03  0.17300000000E+03 0. -1.
<mgrwt>
<rscale>  2 0.18003089E+03</rscale>
<asrwt>0</asrwt>
<pdfrwt beam="1">  1        1 0.18668376E-01 0.18003089E+03</pdfrwt>
<pdfrwt beam="2">  1       -1 0.42094098E-01 0.18003089E+03</pdfrwt>
<totfact> 0.15548272E+03</totfact>
</mgrwt>
</event>
<event>
 4    1  0.7245070E-001  0.2048099E+03  0.7546771E-02  0.1145743E+00
         -2   -1    0    0    0  501 -0.00000000000E+00  0.00000000000E+00  0.25493467030E+02  0.25493467030E+02  0.00000000000E+00 0. -1.
          2   -1    0    0  502    0  0.00000000000E+00 -0.00000000000E+00 -0.17623376190E+04  0.17623376190E+04  0.00000000000E+00 0.  1.
          6    1    1    2  502    0  0.79587534464E+02 -0.75391694988E+02 -0.10986825490E+04  0.11176092461E+04  0.17300000000E+03 0.  1.
         -6    1    1    2    0  501 -0.79587534464E+02  0.75391694988E+02 -0.63816160288E+03  0.67022183992E+03  0.17300000000E+03 0. -1.
<mgrwt>
<rscale>  2 0.20480987E+03</rscale>
<asrwt>0</asrwt>
<pdfrwt beam="1">  1        2 0.27112902E+00 0.20480987E+03</pdfrwt>
<pdfrwt beam="2">  1       -2 0.39220696E-02 0.20480987E+03</pdfrwt>
<totfact> 0.28059197E+03</totfact>
</mgrwt>
</event>
<event>
 4    1  0.7245070E-001  0.1788289E+03  0.7546771E-02  0.1168941E+00
         -4   -1    0    0    0  501 -0.00000000000E+00  0.00000000000E+00  0.18136125432E+03  0.18136125432E+03  0.00000000000E+00 0.  1.
          4   -1    0    0  502    0  0.00000000000E+00 -0.00000000000E+00 -0.18986506496E+03  0.18986506496E+03  0.00000000000E+00 0. -1.
          6    1    1    2  502    0 -0.43279359331E+02  0.13329069484E+02 -0.53806803242E+02  0.18674833095E+03  0.17300000000E+03 0.  1.
         -6    1    1    2    0  501  0.43279359331E+02 -0.13329069484E+02  0.45302992599E+02  0.18447798832E+03  0.17300000000E+03 0.  1.
<mgrwt>
<rscale>  2 0.17882888E+03</rscale>
<asrwt>0</asrwt>
<pdfrwt beam="1">  1        4 0.29210010E-01 0.17882888E+03</pdfrwt>
<pdfrwt beam="2">  1       -4 0.27901731E-01 0.17882888E+03</pdfrwt>
<totfact> 0.23838295E+02</totfact>
</mgrwt>
</event>
<event>
 4    1  0.7245070E-001  0.1792709E+03  0.7546771E-02  0.1168511E+00
         -2   -1    0    0    0  501 -0.00000000000E+00  0.00000000000E+00  0.75287400757E+02  0.75287400757E+02  0.00000000000E+00 0. -1.
          2   -1    0    0  502    0  0.00000000000E+00 -0.00000000000E+00 -0.53038803793E+03  0.53038803793E+03  0.00000000000E+00 0.  1.
          6    1    1    2  502    0 -0.17448336279E+02  0.43641796312E+02 -0.36133852543E+03  0.40336531926E+03  0.17300000000E+03 0.  1.
         -6    1    1    2    0  501  0.17448336279E+02 -0.43641796312E+02 -0.93762111749E+02  0.20231011943E+03  0.17300000000E+03 0. -1.
<mgrwt>
<rscale>  2 0.17927089E+03</rscale>
<asrwt>0</asrwt>
<pdfrwt beam="1">  1        2 0.81598160E-01 0.17927089E+03</pdfrwt>
<pdfrwt beam="2">  1       -2 0.11582677E-01 0.17927089E+03</pdfrwt>
<totfact> 0.30004585E+03</totfact>
</mgrwt>
</event>
<event>
 4    1  0.7245070E-001  0.1937208E+03  0.7546771E-02  0.1155148E+00
         -2   -1    0    0    0  501 -0.00000000000E+00  0.00000000000E+00  0.11044518552E+03  0.11044518552E+03  0.00000000000E+00 0. -1.
          2   -1    0    0  502    0  0.00000000000E+00 -0.00000000000E+00 -0.34917218213E+03  0.34917218213E+03  0.00000000000E+00 0.  1.
          6    1    1    2  502    0  0.28532592557E+02  0.82368959314E+02 -0.81685696569E+02  0.21023869130E+03  0.17300000000E+03 0.  1.
         -6    1    1    2    0  501 -0.28532592557E+02 -0.82368959314E+02 -0.15704130004E+03  0.24937867634E+03  0.17300000000E+03 0.  1.
<mgrwt>
<rscale>  2 0.19372082E+03</rscale>
<asrwt>0</asrwt>
<pdfrwt beam="1">  1        2 0.53718797E-01 0.19372082E+03</pdfrwt>
<pdfrwt beam="2">  1       -2 0.16991567E-01 0.19372082E+03</pdfrwt>
<totfact> 0.25377131E+03</totfact>
</mgrwt>
</event>
<event>
 4    1  0.7245070E-001  0.1829492E+03  0.7546771E-02  0.1164979E+00
         -2   -1    0    0    0  501 -0.00000000000E+00  0.00000000000E+00  0.58925698889E+02  0.58925698889E+02  0.00000000000E+00 0. -1.
          2   -1    0    0  502    0  0.00000000000E+00 -0.00000000000E+00 -0.58323618146E+03  0.58323618146E+03  0.00000000000E+00 0.  1.
          6    1    1    2  502    0  0.59494148070E+02  0.13666173830E+01 -0.31403277357E+03  0.36343775832E+03  0.17300000000E+03 0.  1.
         -6    1    1    2    0  501 -0.59494148070E+02 -0.13666173830E+01 -0.21027770901E+03  0.27872412203E+03  0.17300000000E+03 0.  1.
<mgrwt>
<rscale>  2 0.18294923E+03</rscale>
<asrwt>0</asrwt>
<pdfrwt beam="1">  1        2 0.89728647E-01 0.18294923E+03</pdfrwt>
<pdfrwt beam="2">  1       -2 0.90654918E-02 0.18294923E+03</pdfrwt>
<totfact> 0.39769895E+03</totfact>
</mgrwt>
</event>
<event>
 4    1  0.7245070E-001  0.1819408E+03  0.7546771E-02  0.1165938E+00
         -3   -1    0    0    0  501 -0.00000000000E+00  0.00000000000E+00  0.94264659533E+02  0.94264659533E+02  0.00000000000E+00 0.  1.
          3   -1    0    0  502    0  0.00000000000E+00 -0.00000000000E+00 -0.37719441441E+03  0.37719441441E+03  0.00000000000E+00 0. -1.
          6    1    1    2  502    0  0.54659818357E+02 -0.13628748023E+02 -0.20338966396E+03  0.27289154241E+03  0.17300000000E+03 0. -1.
         -6    1    1    2    0  501 -0.54659818357E+02  0.13628748023E+02 -0.79540090920E+02  0.19856753153E+03  0.17300000000E+03 0.  1.
<mgrwt>
<rscale>  2 0.18194076E+03</rscale>
<asrwt>0</asrwt>
<pdfrwt beam="1">  1        3 0.58029910E-01 0.18194076E+03</pdfrwt>
<pdfrwt beam="2">  1       -3 0.14502255E-01 0.18194076E+03</pdfrwt>
<totfact> 0.28053477E+02</totfact>
</mgrwt>
</event>
<event>
 4    1  0.7245070E-001  0.1976329E+03  0.7546771E-02  0.1151752E+00
         -1   -1    0    0    0  501 -0.00000000000E+00  0.00000000000E+00  0.27243181909E+03  0.27243181909E+03  0.00000000000E+00 0.  1.
          1   -1    0    0  502    0  0.00000000000E+00 -0.00000000000E+00 -0.23152965688E+03  0.23152965688E+03  0.00000000000E+00 0. -1.
          6    1    1    2  502    0  0.81585382496E+02 -0.49735295741E+02  0.17593910582E+03  0.26460034625E+03  0.17300000000E+03 0.  1.
         -6    1    1    2    0  501 -0.81585382496E+02  0.49735295741E+02 -0.13503694361E+03  0.23936112972E+03  0.17300000000E+03 0. -1.
<mgrwt>
<rscale>  2 0.19763293E+03</rscale>
<asrwt>0</asrwt>
<pdfrwt beam="1">  1        1 0.35619947E-01 0.19763293E+03</pdfrwt>
<pdfrwt beam="2">  1       -1 0.41912587E-01 0.19763293E+03</pdfrwt>
<totfact> 0.69249163E+02</totfact>
</mgrwt>
</event>
<event>
 4    1  0.7245070E-001  0.2410108E+03  0.7546771E-02  0.1119121E+00
          2   -1    0    0  502    0  0.00000000000E+00  0.00000000000E+00  0.19847771822E+04  0.19847771822E+04  0.00000000000E+00 0.  1.
         -2   -1    0    0    0  501 -0.00000000000E+00 -0.00000000000E+00 -0.29936588850E+02  0.29936588850E+02  0.00000000000E+00 0. -1.
          6    1    1    2  502    0 -0.16297104802E+03  0.39970304110E+02  0.11282057758E+04  0.11536613282E+04  0.17300000000E+03 0. -1.
         -6    1    1    2    0  501  0.16297104802E+03 -0.39970304110E+02  0.82663481758E+03  0.86105244285E+03  0.17300000000E+03 0.  1.
<mgrwt>
<rscale>  2 0.24101076E+03</rscale>
<asrwt>0</asrwt>
<pdfrwt beam="1">  1        2 0.30535023E+00 0.24101076E+03</pdfrwt>
<pdfrwt beam="2">  1       -2 0.46056306E-02 0.24101076E+03</pdfrwt>
<totfact> 0.16830524E+03</totfact>
</mgrwt>
</event>
<event>
 4    1  0.7245070E-001  0.2508924E+03  0.7546771E-02  0.1112742E+00
         -2   -1    0    0    0  501 -0.00000000000E+00  0.00000000000E+00  0.46094524509E+02  0.46094524509E+02  0.00000000000E+00 0.  1.
          2   -1    0    0  502    0  0.00000000000E+00 -0.00000000000E+00 -0.17006625551E+04  0.17006625551E+04  0.00000000000E+00 0. -1.
          6    1    1    2  502    0 -0.27594136332E+02  0.17960115972E+03 -0.43962334159E+03  0.50617753349E+03  0.17300000000E+03 0. -1.
         -6    1    1    2    0  501  0.27594136332E+02 -0.17960115972E+03 -0.12149446890E+04  0.12405795461E+04  0.17300000000E+03 0. -1.
<mgrwt>
<rscale>  2 0.25089243E+03</rscale>
<asrwt>0</asrwt>
<pdfrwt beam="1">  1        2 0.26164036E+00 0.25089243E+03</pdfrwt>
<pdfrwt beam="2">  1       -2 0.70914661E-02 0.25089243E+03</pdfrwt>
<totfact> 0.12218432E+03</totfact>
</mgrwt>
</event>
<event>
 4    1  0.7245070E-001  0.1885343E+03  0.7546771E-02  0.1159790E+00
         -2   -1    0    0    0  501 -0.00000000000E+00  0.00000000000E+00  0.14072245281E+02  0.14072245281E+02  0.00000000000E+00 0. -1.
          2   -1    0    0  502    0  0.00000000000E+00 -0.00000000000E+00 -0.33683644460E+04  0.33683644460E+04  0.00000000000E+00 0.  1.
          6    1    1    2  502    0 -0.71029142705E+02  0.23896560573E+02 -0.25229391193E+04  0.25299737122E+04  0.17300000000E+03 0. -1.
         -6    1    1    2    0  501  0.71029142705E+02 -0.23896560573E+02 -0.83135308140E+03  0.85246297907E+03  0.17300000000E+03 0. -1.
<mgrwt>
<rscale>  2 0.18853431E+03</rscale>
<asrwt>0</asrwt>
<pdfrwt beam="1">  1        2 0.51820968E+00 0.18853431E+03</pdfrwt>
<pdfrwt beam="2">  1       -2 0.21649618E-02 0.18853431E+03</pdfrwt>
<totfact> 0.86781654E+02</totfact>
</mgrwt>
</event>
<event>
 4    1  0.7245070E-001  0.3029391E+03  0.7546771E-02  0.1083781E+00
          1   -1    0    0  502    0  0.00000000000E+00  0.00000000000E+00  0.90205784572E+03  0.90205784572E+03  0.00000000000E+00 0. -1.
         -1   -1    0    0    0  501 -0.00000000000E+00 -0.00000000000E+00 -0.12029700925E+03  0.12029700925E+03  0.00000000000E+00 0.  1.
          6    1    1    2  502    0  0.19008247830E+03 -0.16034889681E+03  0.59166962959E+03  0.66471427534E+03  0.17300000000E+03 0. -1.
         -6    1    1    2    0  501 -0.19008247830E+03  0.16034889681E+03  0.19009120688E+03  0.35764057963E+03  0.17300000000E+03 0.  1.
<mgrwt>
<rscale>  2 0.30293913E+03</rscale>
<asrwt>0</asrwt>
<pdfrwt beam="1">  1        1 0.13877813E+00 0.30293913E+03</pdfrwt>
<pdfrwt beam="2">  1       -1 0.18507233E-01 0.30293913E+03</pdfrwt>
<totfact> 0.43676307E+02</totfact>
</mgrwt>
</event>
<event>
 4    1  0.7245070E-001  0.1828394E+03  0.7546771E-02  0.1165083E+00
         -1   -1    0    0    0  501 -0.00000000000E+00  0.00000000000E+00  0.34606376786E+02  0.34606376786E+02  0.00000000000E+00 0. -1.
          1   -1    0    0  502    0  0.00000000000E+00 -0.00000000000E+00 -0.10693039440E+04  0.10693039440E+04  0.00000000000E+00 0.  1.
          6    1    1    2  502    0  0.35002012784E+02  0.47708529932E+02 -0.34580214258E+03  0.39116411715E+03  0.17300000000E+03 0. -1.
         -6    1    1    2    0  501 -0.35002012784E+02 -0.47708529932E+02 -0.68889542462E+03  0.71274620363E+03  0.17300000000E+03 0. -1.
<mgrwt>
<rscale>  2 0.18283940E+03</rscale>
<asrwt>0</asrwt>
<pdfrwt beam="1">  1        1 0.16450831E+00 0.18283940E+03</pdfrwt>
<pdfrwt beam="2">  1       -1 0.53240576E-02 0.18283940E+03</pdfrwt>
<totfact> 0.22638040E+03</totfact>
</mgrwt>
</event>
<event>
 4    1  0.7245070E-001  0.2169822E+03  0.7546771E-02  0.1136153E+00
         -2   -1    0    0    0  501 -0.00000000000E+00  0.00000000000E+00  0.33016924335E+03  0.33016924335E+03  0.00000000000E+00 0. -1.
          2   -1    0    0  502    0  0.00000000000E+00 -0.00000000000E+00 -0.14854681520E+03  0.14854681520E+03  0.00000000000E+00 0.  1.
          6    1    1    2  502    0 -0.12717909199E+03 -0.31268786706E+02  0.42909024107E+02  0.22118418300E+03  0.17300000000E+03 0. -1.
         -6    1    1    2    0  501  0.12717909199E+03  0.31268786706E+02  0.13871340404E+03  0.25753187554E+03  0.17300000000E+03 0. -1.
<mgrwt>
<rscale>  2 0.21698216E+03</rscale>
<asrwt>0</asrwt>
<pdfrwt beam="1">  1        2 0.22853356E-01 0.21698216E+03</pdfrwt>
<pdfrwt beam="2">  1       -2 0.50795268E-01 0.21698216E+03</pdfrwt>
<totfact> 0.88351116E+02</totfact>
</mgrwt>
</event>
<event>
 4    1  0.7245070E-001  0.2934474E+03  0.7546771E-02  0.1088563E+00
         -1   -1    0    0    0  501 -0.00000000000E+00  0.00000000000E+00  0.33760038041E+03  0.33760038041E+03  0.00000000000E+00 0.  1.
          1   -1    0    0  502    0  0.00000000000E+00 -0.00000000000E+00 -0.25551778165E+03  0.25551778165E+03  0.00000000000E+00 0. -1.
          6    1    1    2  502    0 -0.17758276021E+03 -0.15699281355E+03  0.53470244141E+02  0.29827914315E+03  0.17300000000E+03 0. -1.
         -6    1    1    2    0  501  0.17758276021E+03  0.15699281355E+03  0.28612354618E+02  0.29483901890E+03  0.17300000000E+03 0.  1.
<mgrwt>
<rscale>  2 0.29344741E+03</rscale>
<asrwt>0</asrwt>
<pdfrwt beam="1">  1        1 0.39310428E-01 0.29344741E+03</pdfrwt>
<pdfrwt beam="2">  1       -1 0.51938521E-01 0.29344741E+03</pdfrwt>
<totfact> 0.41275498E+02</totfact>
</mgrwt>
</event>
<event>
 4    1  0.7245070E-001  0.2000995E+03  0.7546771E-02  0.1149655E+00
          1   -1    0    0  502    0  0.00000000000E+00  0.00000000000E+00  0.59686879631E+03  0.59686879631E+03  0.00000000000E+00 0.  1.
         -1   -1    0    0    0  501 -0.00000000000E+00 -0.00000000000E+00 -0.83488662250E+02  0.83488662250E+02  0.00000000000E+00 0. -1.
          6    1    1    2  502    0  0.66665838701E+02  0.75275913012E+02  0.40748586141E+03  0.45396533390E+03  0.17300000000E+03 0.  1.
         -6    1    1    2    0  501 -0.66665838701E+02 -0.75275913012E+02  0.10589427265E+03  0.22639212466E+03  0.17300000000E+03 0. -1.
<mgrwt>
<rscale>  2 0.20009947E+03</rscale>
<asrwt>0</asrwt>
<pdfrwt beam="1">  1        1 0.91825966E-01 0.20009947E+03</pdfrwt>
<pdfrwt beam="2">  1       -1 0.12844410E-01 0.20009947E+03</pdfrwt>
<totfact> 0.14531783E+03</totfact>
</mgrwt>
</event>
<event>
 4    1  0.7245070E-001  0.3337854E+03  0.7546771E-02  0.1069474E+00
         -2   -1    0    0    0  501 -0.00000000000E+00  0.00000000000E+00  0.17144425160E+03  0.17144425160E+03  0.00000000000E+00 0. -1.
          2   -1    0    0  502    0  0.00000000000E+00 -0.00000000000E+00 -0.16975586406E+04  0.16975586406E+04  0.00000000000E+00 0.  1.
          6    1    1    2  502    0  0.31733885330E+01 -0.28543585921E+03 -0.28901338927E+02  0.33503430796E+03  0.17300000000E+03 0. -1.
         -6    1    1    2    0  501 -0.31733885330E+01  0.28543585921E+03 -0.14972130500E+04  0.15339685842E+04  0.17300000000E+03 0.  1.
<mgrwt>
<rscale>  2 0.33378541E+03</rscale>
<asrwt>0</asrwt>
<pdfrwt beam="1">  1        2 0.26116288E+00 0.33378541E+03</pdfrwt>
<pdfrwt beam="2">  1       -2 0.26376037E-01 0.33378541E+03</pdfrwt>
<totfact> 0.13777539E+02</totfact>
</mgrwt>
</event>
<event>
 4    1  0.7245070E-001  0.2139698E+03  0.7546771E-02  0.1138460E+00
         -2   -1    0    0    0  501 -0.00000000000E+00  0.00000000000E+00  0.12701247051E+03  0.12701247051E+03  0.00000000000E+00 0. -1.
          2   -1    0    0  502    0  0.00000000000E+00 -0.00000000000E+00 -0.14306830125E+04  0.14306830125E+04  0.00000000000E+00 0.  1.
          6    1    1    2  502    0  0.48783382023E+02  0.11607872787E+03 -0.13254595298E+04  0.13426191026E+04  0.17300000000E+03 0.  1.
         -6    1    1    2    0  501 -0.48783382023E+02 -0.11607872787E+03  0.21788987843E+02  0.21507638042E+03  0.17300000000E+03 0. -1.
<mgrwt>
<rscale>  2 0.21396983E+03</rscale>
<asrwt>0</asrwt>
<pdfrwt beam="1">  1        2 0.22010508E+00 0.21396983E+03</pdfrwt>
<pdfrwt beam="2">  1       -2 0.19540380E-01 0.21396983E+03</pdfrwt>
<totfact> 0.33089453E+02</totfact>
</mgrwt>
</event>
<event>
 4    1  0.7245070E-001  0.1903417E+03  0.7546771E-02  0.1158154E+00
          2   -1    0    0  502    0  0.00000000000E+00  0.00000000000E+00  0.18222421201E+03  0.18222421201E+03  0.00000000000E+00 0. -1.
         -2   -1    0    0    0  501 -0.00000000000E+00 -0.00000000000E+00 -0.19992904426E+03  0.19992904426E+03  0.00000000000E+00 0.  1.
          6    1    1    2  502    0  0.30715065006E+02  0.73195225280E+02  0.53739937035E+01  0.19041753079E+03  0.17300000000E+03 0.  1.
         -6    1    1    2    0  501 -0.30715065006E+02 -0.73195225280E+02 -0.23078825953E+02  0.19173572549E+03  0.17300000000E+03 0.  1.
<mgrwt>
<rscale>  2 0.19034168E+03</rscale>
<asrwt>0</asrwt>
<pdfrwt beam="1">  1        2 0.28034494E-01 0.19034168E+03</pdfrwt>
<pdfrwt beam="2">  1       -2 0.30758314E-01 0.19034168E+03</pdfrwt>
<totfact> 0.18235777E+03</totfact>
</mgrwt>
</event>
<event>
 4    1  0.7245070E-001  0.1792054E+03  0.7546771E-02  0.1168574E+00
          1   -1    0    0  502    0  0.00000000000E+00  0.00000000000E+00  0.24795956798E+03  0.24795956798E+03  0.00000000000E+00 0.  1.
         -1   -1    0    0    0  501 -0.00000000000E+00 -0.00000000000E+00 -0.15701537129E+03  0.15701537129E+03  0.00000000000E+00 0. -1.
          6    1    1    2  502    0  0.31950034851E+02 -0.34128703702E+02  0.13021307996E+03  0.22151753731E+03  0.17300000000E+03 0.  1.
         -6    1    1    2    0  501 -0.31950034851E+02  0.34128703702E+02 -0.39268883271E+02  0.18345740197E+03  0.17300000000E+03 0. -1.
<mgrwt>
<rscale>  2 0.17920539E+03</rscale>
<asrwt>0</asrwt>
<pdfrwt beam="1">  1        1 0.38147626E-01 0.17920539E+03</pdfrwt>
<pdfrwt beam="2">  1       -1 0.24156211E-01 0.17920539E+03</pdfrwt>
<totfact> 0.16280492E+03</totfact>
</mgrwt>
</event>
<event>
 4    1  0.7245070E-001  0.5549077E+03  0.7546771E-02  0.1000364E+00
          1   -1    0    0  502    0  0.00000000000E+00  0.00000000000E+00  0.18509912368E+04  0.18509912368E+04  0.00000000000E+00 0.  1.
         -1   -1    0    0    0  501 -0.00000000000E+00 -0.00000000000E+00 -0.21549323277E+03  0.21549323277E+03  0.00000000000E+00 0. -1.
          6    1    1    2  502    0  0.51659658441E+03  0.10545866519E+03  0.13111419259E+04  0.14237330195E+04  0.17300000000E+03 0.  1.
         -6    1    1    2    0  501 -0.51659658441E+03 -0.10545866519E+03  0.32435607814E+03  0.64275145002E+03  0.17300000000E+03 0. -1.
<mgrwt>
<rscale>  2 0.55490771E+03</rscale>
<asrwt>0</asrwt>
<pdfrwt beam="1">  1        1 0.28476787E+00 0.55490771E+03</pdfrwt>
<pdfrwt beam="2">  1       -1 0.33152806E-01 0.55490771E+03</pdfrwt>
<totfact> 0.34244009E+01</totfact>
</mgrwt>
</event>
<event>
 4    1  0.7245070E-001  0.2635775E+03  0.7546771E-02  0.1105013E+00
         -2   -1    0    0    0  501 -0.00000000000E+00  0.00000000000E+00  0.18015308829E+03  0.18015308829E+03  0.00000000000E+00 0. -1.
          2   -1    0    0  502    0  0.00000000000E+00 -0.00000000000E+00 -0.41379608695E+03  0.41379608695E+03  0.00000000000E+00 0.  1.
          6    1    1    2  502    0 -0.13509175865E+03 -0.14592579640E+03 -0.39346781632E+02  0.26649819987E+03  0.17300000000E+03 0. -1.
         -6    1    1    2    0  501  0.13509175865E+03  0.14592579640E+03 -0.19429621703E+03  0.32745097536E+03  0.17300000000E+03 0.  1.
<mgrwt>
<rscale>  2 0.26357754E+03</rscale>
<asrwt>0</asrwt>
<pdfrwt beam="1">  1        2 0.63660937E-01 0.26357754E+03</pdfrwt>
<pdfrwt beam="2">  1       -2 0.27715860E-01 0.26357754E+03</pdfrwt>
<totfact> 0.91014586E+02</totfact>
</mgrwt>
</event>
<event>
 4    1  0.7245070E-001  0.1906414E+03  0.7546771E-02  0.1157884E+00
         -2   -1    0    0    0  501 -0.00000000000E+00  0.00000000000E+00  0.19464103029E+03  0.19464103029E+03  0.00000000000E+00 0. -1.
          2   -1    0    0  502    0  0.00000000000E+00 -0.00000000000E+00 -0.18723376807E+03  0.18723376807E+03  0.00000000000E+00 0.  1.
          6    1    1    2  502    0  0.16422085158E+01  0.80077699410E+02  0.13667369460E+02  0.19113066677E+03  0.17300000000E+03 0. -1.
         -6    1    1    2    0  501 -0.16422085158E+01 -0.80077699410E+02 -0.62601072372E+01  0.19074413159E+03  0.17300000000E+03 0. -1.
<mgrwt>
<rscale>  2 0.19064138E+03</rscale>
<asrwt>0</asrwt>
<pdfrwt beam="1">  1        2 0.28805195E-01 0.19064138E+03</pdfrwt>
<pdfrwt beam="2">  1       -2 0.29944774E-01 0.19064138E+03</pdfrwt>
<totfact> 0.18583379E+03</totfact>
</mgrwt>
</event>
<event>
 4    1  0.7245070E-001  0.2219600E+03  0.7546771E-02  0.1132430E+00
          4   -1    0    0  502    0  0.00000000000E+00  0.00000000000E+00  0.21574848429E+03  0.21574848429E+03  0.00000000000E+00 0. -1.
         -4   -1    0    0    0  501 -0.00000000000E+00 -0.00000000000E+00 -0.24452237510E+03  0.24452237510E+03  0.00000000000E+00 0.  1.
          6    1    1    2  502    0 -0.13291517631E+03 -0.40875310778E+02 -0.73571285073E+02  0.23383534616E+03  0.17300000000E+03 0. -1.
         -6    1    1    2    0  501  0.13291517631E+03  0.40875310778E+02  0.44797394265E+02  0.22643551324E+03  0.17300000000E+03 0.  1.
<mgrwt>
<rscale>  2 0.22195999E+03</rscale>
<asrwt>0</asrwt>
<pdfrwt beam="1">  1        4 0.33192074E-01 0.22195999E+03</pdfrwt>
<pdfrwt beam="2">  1       -4 0.37618827E-01 0.22195999E+03</pdfrwt>
<totfact> 0.10835346E+02</totfact>
</mgrwt>
</event>
<event>
 4    1  0.7245070E-001  0.1979983E+03  0.7546771E-02  0.1151439E+00
          1   -1    0    0  502    0  0.00000000000E+00  0.00000000000E+00  0.10092526794E+03  0.10092526794E+03  0.00000000000E+00 0.  1.
         -1   -1    0    0    0  501 -0.00000000000E+00 -0.00000000000E+00 -0.39309773027E+03  0.39309773027E+03  0.00000000000E+00 0. -1.
          6    1    1    2  502    0  0.69200659476E+02  0.66974624363E+02 -0.11919623187E+03  0.23110835829E+03  0.17300000000E+03 0. -1.
         -6    1    1    2    0  501 -0.69200659476E+02 -0.66974624363E+02 -0.17297623046E+03  0.26291463992E+03  0.17300000000E+03 0.  1.
<mgrwt>
<rscale>  2 0.19799831E+03</rscale>
<asrwt>0</asrwt>
<pdfrwt beam="1">  1        1 0.15526964E-01 0.19799831E+03</pdfrwt>
<pdfrwt beam="2">  1       -1 0.60476574E-01 0.19799831E+03</pdfrwt>
<totfact> 0.10136976E+03</totfact>
</mgrwt>
</event>
<event>
 4    1  0.7245070E-001  0.2451801E+03  0.7546771E-02  0.1116389E+00
         -3   -1    0    0    0  501 -0.00000000000E+00  0.00000000000E+00  0.27148518441E+04  0.27148518441E+04  0.00000000000E+00 0. -1.
          3   -1    0    0  502    0  0.00000000000E+00 -0.00000000000E+00 -0.22159171580E+02  0.22159171580E+02  0.00000000000E+00 0.  1.
          6    1    1    2  502    0 -0.17356589049E+03 -0.76928979183E+01  0.13086819789E+04  0.13314510208E+04  0.17300000000E+03 0.  1.
         -6    1    1    2    0  501  0.17356589049E+03  0.76928979183E+01  0.13840106937E+04  0.14055599949E+04  0.17300000000E+03 0.  1.
<mgrwt>
<rscale>  2 0.24518014E+03</rscale>
<asrwt>0</asrwt>
<pdfrwt beam="1">  1        3 0.34091055E-02 0.24518014E+03</pdfrwt>
<pdfrwt beam="2">  1       -3 0.41766925E+00 0.24518014E+03</pdfrwt>
<totfact> 0.10813479E+01</totfact>
</mgrwt>
</event>
<event>
 4    1  0.7245070E-001  0.2320721E+03  0.7546771E-02  0.1125190E+00
          2   -1    0    0  502    0  0.00000000000E+00  0.00000000000E+00  0.12457710998E+03  0.12457710998E+03  0.00000000000E+00 0.  1.
         -2   -1    0    0    0  501 -0.00000000000E+00 -0.00000000000E+00 -0.54171674851E+03  0.54171674851E+03  0.00000000000E+00 0. -1.
          6    1    1    2  502    0 -0.20008714634E+02  0.15338879626E+03 -0.58861069022E+02  0.23942033524E+03  0.17300000000E+03 0.  1.
         -6    1    1    2    0  501  0.20008714634E+02 -0.15338879626E+03 -0.35827856951E+03  0.42687352324E+03  0.17300000000E+03 0. -1.
<mgrwt>
<rscale>  2 0.23207213E+03</rscale>
<asrwt>0</asrwt>
<pdfrwt beam="1">  1        2 0.19165709E-01 0.23207213E+03</pdfrwt>
<pdfrwt beam="2">  1       -2 0.83341039E-01 0.23207213E+03</pdfrwt>
<totfact> 0.38009075E+02</totfact>
</mgrwt>
</event>
<event>
 4    1  0.7245070E-001  0.1899335E+03  0.7546771E-02  0.1158521E+00
          3   -1    0    0  502    0  0.00000000000E+00  0.00000000000E+00  0.95790191705E+03  0.95790191705E+03  0.00000000000E+00 0.  1.
         -3   -1    0    0    0  501 -0.00000000000E+00 -0.00000000000E+00 -0.39299084488E+02  0.39299084488E+02  0.00000000000E+00 0. -1.
          6    1    1    2  502    0 -0.12219594529E+02 -0.77436575024E+02  0.56112319141E+03  0.59239680754E+03  0.17300000000E+03 0.  1.
         -6    1    1    2    0  501  0.12219594529E+02  0.77436575024E+02  0.35747964115E+03  0.40480419400E+03  0.17300000000E+03 0. -1.
<mgrwt>
<rscale>  2 0.18993352E+03</rscale>
<asrwt>0</asrwt>
<pdfrwt beam="1">  1        3 0.14736951E+00 0.18993352E+03</pdfrwt>
<pdfrwt beam="2">  1       -3 0.60460137E-02 0.18993352E+03</pdfrwt>
<totfact> 0.14695811E+02</totfact>
</mgrwt>
</event>
<event>
 4    1  0.7245070E-001  0.1943516E+03  0.7546771E-02  0.1154594E+00
          2   -1    0    0  502    0  0.00000000000E+00  0.00000000000E+00  0.18121122693E+04  0.18121122693E+04  0.00000000000E+00 0. -1.
         -2   -1    0    0    0  501 -0.00000000000E+00 -0.00000000000E+00 -0.20873070188E+02  0.20873070188E+02  0.00000000000E+00 0.  1.
          6    1    1    2  502    0 -0.30710693780E+02  0.83068659317E+02  0.92953512644E+03  0.94963577237E+03  0.17300000000E+03 0.  1.
         -6    1    1    2    0  501  0.30710693780E+02 -0.83068659317E+02  0.86170407267E+03  0.88334956712E+03  0.17300000000E+03 0. -1.
<mgrwt>
<rscale>  2 0.19435161E+03</rscale>
<asrwt>0</asrwt>
<pdfrwt beam="1">  1        2 0.27878638E+00 0.19435161E+03</pdfrwt>
<pdfrwt beam="2">  1       -2 0.32112430E-02 0.19435161E+03</pdfrwt>
<totfact> 0.35632214E+03</totfact>
</mgrwt>
</event>
<event>
 4    1  0.7245070E-001  0.2047383E+03  0.7546771E-02  0.1145802E+00
         -2   -1    0    0    0  501 -0.00000000000E+00  0.00000000000E+00  0.55381555299E+02  0.55381555299E+02  0.00000000000E+00 0.  1.
          2   -1    0    0  502    0  0.00000000000E+00 -0.00000000000E+00 -0.12425359594E+04  0.12425359594E+04  0.00000000000E+00 0. -1.
          6    1    1    2  502    0  0.10891153872E+03 -0.11271492976E+02 -0.18786104153E+03  0.27786604820E+03  0.17300000000E+03 0.  1.
         -6    1    1    2    0  501 -0.10891153872E+03  0.11271492976E+02 -0.99929336259E+03  0.10200514665E+04  0.17300000000E+03 0. -1.
<mgrwt>
<rscale>  2 0.20473830E+03</rscale>
<asrwt>0</asrwt>
<pdfrwt beam="1">  1        2 0.19115935E+00 0.20473830E+03</pdfrwt>
<pdfrwt beam="2">  1       -2 0.85202404E-02 0.20473830E+03</pdfrwt>
<totfact> 0.16203084E+03</totfact>
</mgrwt>
</event>
<event>
 4    1  0.7245070E-001  0.1874666E+03  0.7546771E-02  0.1160766E+00
         -2   -1    0    0    0  501 -0.00000000000E+00  0.00000000000E+00  0.32688391339E+02  0.32688391339E+02  0.00000000000E+00 0.  1.
          2   -1    0    0  502    0  0.00000000000E+00 -0.00000000000E+00 -0.11355278722E+04  0.11355278722E+04  0.00000000000E+00 0. -1.
          6    1    1    2  502    0 -0.59094110871E+02  0.41504283672E+02 -0.68615018136E+03  0.71129866504E+03  0.17300000000E+03 0. -1.
         -6    1    1    2    0  501  0.59094110871E+02 -0.41504283672E+02 -0.41668929950E+03  0.45691759851E+03  0.17300000000E+03 0.  1.
<mgrwt>
<rscale>  2 0.18746658E+03</rscale>
<asrwt>0</asrwt>
<pdfrwt beam="1">  1        2 0.17469660E+00 0.18746658E+03</pdfrwt>
<pdfrwt beam="2">  1       -2 0.50289831E-02 0.18746658E+03</pdfrwt>
<totfact> 0.41866562E+03</totfact>
</mgrwt>
</event>
<event>
 4    1  0.7245070E-001  0.2154713E+03  0.7546771E-02  0.1137305E+00
          2   -1    0    0  502    0  0.00000000000E+00  0.00000000000E+00  0.15791955588E+03  0.15791955588E+03  0.00000000000E+00 0.  1.
         -2   -1    0    0    0  501 -0.00000000000E+00 -0.00000000000E+00 -0.33318215736E+03  0.33318215736E+03  0.00000000000E+00 0. -1.
          6    1    1    2  502    0 -0.12414192628E+03 -0.32979668485E+02 -0.34217485818E+01  0.21549845651E+03  0.17300000000E+03 0.  1.
         -6    1    1    2    0  501  0.12414192628E+03  0.32979668485E+02 -0.17184085290E+03  0.27560325673E+03  0.17300000000E+03 0.  1.
<mgrwt>
<rscale>  2 0.21547129E+03</rscale>
<asrwt>0</asrwt>
<pdfrwt beam="1">  1        2 0.24295316E-01 0.21547129E+03</pdfrwt>
<pdfrwt beam="2">  1       -2 0.51258793E-01 0.21547129E+03</pdfrwt>
<totfact> 0.80977858E+02</totfact>
</mgrwt>
</event>
<event>
 4    1  0.7245070E-001  0.1881278E+03  0.7546771E-02  0.1160161E+00
         -2   -1    0    0    0  501 -0.00000000000E+00  0.00000000000E+00  0.35056309771E+02  0.35056309771E+02  0.00000000000E+00 0. -1.
          2   -1    0    0  502    0  0.00000000000E+00 -0.00000000000E+00 -0.10097949294E+04  0.10097949294E+04  0.00000000000E+00 0.  1.
          6    1    1    2  502    0 -0.91986642628E+01  0.73337858157E+02 -0.47970097034E+03  0.51527184846E+03  0.17300000000E+03 0.  1.
         -6    1    1    2    0  501  0.91986642628E+01 -0.73337858157E+02 -0.49503764933E+03  0.52957939076E+03  0.17300000000E+03 0.  1.
<mgrwt>
<rscale>  2 0.18812777E+03</rscale>
<asrwt>0</asrwt>
<pdfrwt beam="1">  1        2 0.15535306E+00 0.18812777E+03</pdfrwt>
<pdfrwt beam="2">  1       -2 0.53932785E-02 0.18812777E+03</pdfrwt>
<totfact> 0.44635127E+03</totfact>
</mgrwt>
</event>
<event>
 4    1  0.7245070E-001  0.1861876E+03  0.7546771E-02  0.1161946E+00
          1   -1    0    0  502    0  0.00000000000E+00  0.00000000000E+00  0.14838091251E+04  0.14838091251E+04  0.00000000000E+00 0. -1.
         -1   -1    0    0    0  501 -0.00000000000E+00 -0.00000000000E+00 -0.24278930029E+02  0.24278930029E+02  0.00000000000E+00 0.  1.
          6    1    1    2  502    0 -0.27092274177E+02 -0.63267868329E+02  0.87624561816E+03  0.89580812556E+03  0.17300000000E+03 0. -1.
         -6    1    1    2    0  501  0.27092274177E+02  0.63267868329E+02  0.58328457687E+03  0.61227992952E+03  0.17300000000E+03 0. -1.
<mgrwt>
<rscale>  2 0.18618758E+03</rscale>
<asrwt>0</asrwt>
<pdfrwt beam="1">  1        1 0.22827826E+00 0.18618758E+03</pdfrwt>
<pdfrwt beam="2">  1       -1 0.37352212E-02 0.18618758E+03</pdfrwt>
<totfact> 0.19981961E+03</totfact>
</mgrwt>
</event>
<event>
 4    1  0.7245070E-001  0.1853152E+03  0.7546771E-02  0.1162756E+00
          1   -1    0    0  502    0  0.00000000000E+00  0.00000000000E+00  0.45263467394E+03  0.45263467394E+03  0.00000000000E+00 0.  1.
         -1   -1    0    0    0  501 -0.00000000000E+00 -0.00000000000E+00 -0.10989855268E+03  0.10989855268E+03  0.00000000000E+00 0. -1.
          6    1    1    2  502    0  0.42047900619E+02  0.51426534656E+02  0.32787709104E+03  0.37662328824E+03  0.17300000000E+03 0.  1.
         -6    1    1    2    0  501 -0.42047900619E+02 -0.51426534656E+02  0.14859030220E+02  0.18590993839E+03  0.17300000000E+03 0.  1.
<mgrwt>
<rscale>  2 0.18531518E+03</rscale>
<asrwt>0</asrwt>
<pdfrwt beam="1">  1        1 0.69636102E-01 0.18531518E+03</pdfrwt>
<pdfrwt beam="2">  1       -1 0.16907470E-01 0.18531518E+03</pdfrwt>
<totfact> 0.13598650E+03</totfact>
</mgrwt>
</event>
<event>
 4    1  0.7245070E-001  0.1768173E+03  0.7546771E-02  0.1170919E+00
          4   -1    0    0  502    0  0.00000000000E+00  0.00000000000E+00  0.95940801108E+03  0.95940801108E+03  0.00000000000E+00 0. -1.
         -4   -1    0    0    0  501 -0.00000000000E+00 -0.00000000000E+00 -0.39377857137E+02  0.39377857137E+02  0.00000000000E+00 0.  1.
          6    1    1    2  502    0 -0.33001031730E+02  0.15693709759E+02  0.25263154863E+03  0.30836189775E+03  0.17300000000E+03 0.  1.
         -6    1    1    2    0  501  0.33001031730E+02 -0.15693709759E+02  0.66739860532E+03  0.69042397047E+03  0.17300000000E+03 0. -1.
<mgrwt>
<rscale>  2 0.17681731E+03</rscale>
<asrwt>0</asrwt>
<pdfrwt beam="1">  1        4 0.14760121E+00 0.17681731E+03</pdfrwt>
<pdfrwt beam="2">  1       -4 0.60581326E-02 0.17681731E+03</pdfrwt>
<totfact> 0.10124116E+02</totfact>
</mgrwt>
</event>
<event>
 4    1  0.7245070E-001  0.2952666E+03  0.7546771E-02  0.1087631E+00
         -2   -1    0    0    0  501 -0.00000000000E+00  0.00000000000E+00  0.17175216500E+03  0.17175216500E+03  0.00000000000E+00 0.  1.
          2   -1    0    0  502    0  0.00000000000E+00 -0.00000000000E+00 -0.12158485441E+04  0.12158485441E+04  0.00000000000E+00 0. -1.
          6    1    1    2  502    0  0.22789273666E+03  0.72926498505E+02 -0.10515724755E+04  0.10922394632E+04  0.17300000000E+03 0. -1.
         -6    1    1    2    0  501 -0.22789273666E+03 -0.72926498505E+02  0.74760963800E+01  0.29536124597E+03  0.17300000000E+03 0.  1.
<mgrwt>
<rscale>  2 0.29526661E+03</rscale>
<asrwt>0</asrwt>
<pdfrwt beam="1">  1        2 0.18705362E+00 0.29526661E+03</pdfrwt>
<pdfrwt beam="2">  1       -2 0.26423410E-01 0.29526661E+03</pdfrwt>
<totfact> 0.25316581E+02</totfact>
</mgrwt>
</event>
<event>
 4    1  0.7245070E-001  0.2440857E+03  0.7546771E-02  0.1117101E+00
         -1   -1    0    0    0  501 -0.00000000000E+00  0.00000000000E+00  0.10326018377E+03  0.10326018377E+03  0.00000000000E+00 0. -1.
          1   -1    0    0  502    0  0.00000000000E+00 -0.00000000000E+00 -0.59576777369E+03  0.59576777369E+03  0.00000000000E+00 0.  1.
          6    1    1    2  502    0 -0.14841690249E+03 -0.87299686763E+02 -0.18416640337E+03  0.30576964595E+03  0.17300000000E+03 0. -1.
         -6    1    1    2    0  501  0.14841690249E+03  0.87299686763E+02 -0.30834118655E+03  0.39325831151E+03  0.17300000000E+03 0.  1.
<mgrwt>
<rscale>  2 0.24408567E+03</rscale>
<asrwt>0</asrwt>
<pdfrwt beam="1">  1        1 0.91656579E-01 0.24408567E+03</pdfrwt>
<pdfrwt beam="2">  1       -1 0.15886182E-01 0.24408567E+03</pdfrwt>
<totfact> 0.10426863E+03</totfact>
</mgrwt>
</event>
<event>
 4    1  0.7245070E-001  0.2162915E+03  0.7546771E-02  0.1136678E+00
          2   -1    0    0  502    0  0.00000000000E+00  0.00000000000E+00  0.11737785646E+04  0.11737785646E+04  0.00000000000E+00 0. -1.
         -2   -1    0    0    0  501 -0.00000000000E+00 -0.00000000000E+00 -0.14433150290E+03  0.14433150290E+03  0.00000000000E+00 0.  1.
          6    1    1    2  502    0 -0.77509458576E+02  0.10414078602E+03 -0.45999668478E+02  0.22112889676E+03  0.17300000000E+03 0.  1.
         -6    1    1    2    0  501  0.77509458576E+02 -0.10414078602E+03  0.10754467301E+04  0.10969811707E+04  0.17300000000E+03 0. -1.
<mgrwt>
<rscale>  2 0.21629152E+03</rscale>
<asrwt>0</asrwt>
<pdfrwt beam="1">  1        2 0.18058131E+00 0.21629152E+03</pdfrwt>
<pdfrwt beam="2">  1       -2 0.22204847E-01 0.21629152E+03</pdfrwt>
<totfact> 0.36778852E+02</totfact>
</mgrwt>
</event>
<event>
 4    1  0.7245070E-001  0.2028909E+03  0.7546771E-02  0.1147323E+00
          2   -1    0    0  502    0  0.00000000000E+00  0.00000000000E+00  0.73542175040E+03  0.73542175040E+03  0.00000000000E+00 0. -1.
         -2   -1    0    0    0  501 -0.00000000000E+00 -0.00000000000E+00 -0.56710017141E+02  0.56710017141E+02  0.00000000000E+00 0.  1.
          6    1    1    2  502    0 -0.76830781845E+02  0.73025543968E+02  0.38446873449E+03  0.43471934269E+03  0.17300000000E+03 0.  1.
         -6    1    1    2    0  501  0.76830781845E+02 -0.73025543968E+02  0.29424299877E+03  0.35741242485E+03  0.17300000000E+03 0.  1.
<mgrwt>
<rscale>  2 0.20289086E+03</rscale>
<asrwt>0</asrwt>
<pdfrwt beam="1">  1        2 0.11314180E+00 0.20289086E+03</pdfrwt>
<pdfrwt beam="2">  1       -2 0.87246186E-02 0.20289086E+03</pdfrwt>
<totfact> 0.32220198E+03</totfact>
</mgrwt>
</event>
<event>
 4    1  0.7245070E-001  0.2239340E+03  0.7546771E-02  0.1130984E+00
         -2   -1    0    0    0  501 -0.00000000000E+00  0.00000000000E+00  0.43302522744E+02  0.43302522744E+02  0.00000000000E+00 0. -1.
          2   -1    0    0  502    0  0.00000000000E+00 -0.00000000000E+00 -0.17071601188E+04  0.17071601188E+04  0.00000000000E+00 0.  1.
          6    1    1    2  502    0  0.38286717158E+02  0.13693636798E+03 -0.13283106051E+04  0.13470543809E+04  0.17300000000E+03 0.  1.
         -6    1    1    2    0  501 -0.38286717158E+02 -0.13693636798E+03 -0.33554699098E+03  0.40340826063E+03  0.17300000000E+03 0.  1.
<mgrwt>
<rscale>  2 0.22393401E+03</rscale>
<asrwt>0</asrwt>
<pdfrwt beam="1">  1        2 0.26264002E+00 0.22393401E+03</pdfrwt>
<pdfrwt beam="2">  1       -2 0.66619265E-02 0.22393401E+03</pdfrwt>
<totfact> 0.13385271E+03</totfact>
</mgrwt>
</event>
<event>
 4    1  0.7245070E-001  0.2006153E+03  0.7546771E-02  0.1149221E+00
         -2   -1    0    0    0  501 -0.00000000000E+00  0.00000000000E+00  0.27534487098E+03  0.27534487098E+03  0.00000000000E+00 0. -1.
          2   -1    0    0  502    0  0.00000000000E+00 -0.00000000000E+00 -0.14622914401E+03  0.14622914401E+03  0.00000000000E+00 0.  1.
          6    1    1    2  502    0  0.51664495402E+02 -0.87454539825E+02  0.60235777666E+02  0.20946327967E+03  0.17300000000E+03 0.  1.
         -6    1    1    2    0  501 -0.51664495402E+02  0.87454539825E+02  0.68879949306E+02  0.21211073532E+03  0.17300000000E+03 0.  1.
<mgrwt>
<rscale>  2 0.20061534E+03</rscale>
<asrwt>0</asrwt>
<pdfrwt beam="1">  1        2 0.22496791E-01 0.20061534E+03</pdfrwt>
<pdfrwt beam="2">  1       -2 0.42360749E-01 0.20061534E+03</pdfrwt>
<totfact> 0.12823413E+03</totfact>
</mgrwt>
</event>
<event>
 4    1  0.7245070E-001  0.1965332E+03  0.7546771E-02  0.1152697E+00
         -1   -1    0    0    0  501 -0.00000000000E+00  0.00000000000E+00  0.28212780315E+03  0.28212780315E+03  0.00000000000E+00 0.  1.
          1   -1    0    0  502    0  0.00000000000E+00 -0.00000000000E+00 -0.17318549781E+03  0.17318549781E+03  0.00000000000E+00 0. -1.
          6    1    1    2  502    0  0.63763857909E+02  0.68047554477E+02 -0.49724268007E+02  0.20272592847E+03  0.17300000000E+03 0.  1.
         -6    1    1    2    0  501 -0.63763857909E+02 -0.68047554477E+02  0.15866657334E+03  0.25258737249E+03  0.17300000000E+03 0. -1.
<mgrwt>
<rscale>  2 0.19653320E+03</rscale>
<asrwt>0</asrwt>
<pdfrwt beam="1">  1        1 0.26643923E-01 0.19653320E+03</pdfrwt>
<pdfrwt beam="2">  1       -1 0.43404277E-01 0.19653320E+03</pdfrwt>
<totfact> 0.93693331E+02</totfact>
</mgrwt>
</event>
<event>
 4    1  0.7245070E-001  0.1777491E+03  0.7546771E-02  0.1169999E+00
          2   -1    0    0  502    0  0.00000000000E+00  0.00000000000E+00  0.11158084654E+04  0.11158084654E+04  0.00000000000E+00 0.  1.
         -2   -1    0    0    0  501 -0.00000000000E+00 -0.00000000000E+00 -0.29888069271E+02  0.29888069271E+02  0.00000000000E+00 0. -1.
          6    1    1    2  502    0 -0.18476164156E+02 -0.36392121534E+02  0.67435724275E+03  0.69738973752E+03  0.17300000000E+03 0.  1.
         -6    1    1    2    0  501  0.18476164156E+02  0.36392121534E+02  0.41156315339E+03  0.44830679716E+03  0.17300000000E+03 0. -1.
<mgrwt>
<rscale>  2 0.17774914E+03</rscale>
<asrwt>0</asrwt>
<pdfrwt beam="1">  1        2 0.17166281E+00 0.17774914E+03</pdfrwt>
<pdfrwt beam="2">  1       -2 0.45981654E-02 0.17774914E+03</pdfrwt>
<totfact> 0.49124243E+03</totfact>
</mgrwt>
</event>
<event>
 4    1  0.7245070E-001  0.1978513E+03  0.7546771E-02  0.1151565E+00
          1   -1    0    0  502    0  0.00000000000E+00  0.00000000000E+00  0.10339599095E+03  0.10339599095E+03  0.00000000000E+00 0.  1.
         -1   -1    0    0    0  501 -0.00000000000E+00 -0.00000000000E+00 -0.40227975553E+03  0.40227975553E+03  0.00000000000E+00 0. -1.
          6    1    1    2  502    0 -0.81152661599E+02  0.51287093602E+02 -0.21079265074E+03  0.28909974414E+03  0.17300000000E+03 0. -1.
         -6    1    1    2    0  501  0.81152661599E+02 -0.51287093602E+02 -0.88091113843E+02  0.21657600235E+03  0.17300000000E+03 0.  1.
<mgrwt>
<rscale>  2 0.19785126E+03</rscale>
<asrwt>0</asrwt>
<pdfrwt beam="1">  1        1 0.15907076E-01 0.19785126E+03</pdfrwt>
<pdfrwt beam="2">  1       -1 0.61889193E-01 0.19785126E+03</pdfrwt>
<totfact> 0.93949045E+02</totfact>
</mgrwt>
</event>
<event>
 4    1  0.7245070E-001  0.2078359E+03  0.7546771E-02  0.1143291E+00
          1   -1    0    0  502    0  0.00000000000E+00  0.00000000000E+00  0.60470276943E+03  0.60470276943E+03  0.00000000000E+00 0. -1.
         -1   -1    0    0    0  501 -0.00000000000E+00 -0.00000000000E+00 -0.81506499146E+02  0.81506499146E+02  0.00000000000E+00 0.  1.
          6    1    1    2  502    0 -0.41757379239E+02  0.10734568453E+03  0.14097818300E+03  0.25113865252E+03  0.17300000000E+03 0.  1.
         -6    1    1    2    0  501  0.41757379239E+02 -0.10734568453E+03  0.38221808728E+03  0.43507061605E+03  0.17300000000E+03 0. -1.
<mgrwt>
<rscale>  2 0.20783593E+03</rscale>
<asrwt>0</asrwt>
<pdfrwt beam="1">  1        1 0.93031192E-01 0.20783593E+03</pdfrwt>
<pdfrwt beam="2">  1       -1 0.12539462E-01 0.20783593E+03</pdfrwt>
<totfact> 0.14825348E+03</totfact>
</mgrwt>
</event>
<event>
 4    1  0.7245070E-001  0.3357489E+03  0.7546771E-02  0.1068621E+00
          1   -1    0    0  502    0  0.00000000000E+00  0.00000000000E+00  0.20814717268E+03  0.20814717268E+03  0.00000000000E+00 0. -1.
         -1   -1    0    0    0  501 -0.00000000000E+00 -0.00000000000E+00 -0.54254484870E+03  0.54254484870E+03  0.00000000000E+00 0.  1.
          6    1    1    2  502    0 -0.14452681812E+01 -0.28774338666E+03 -0.15133082304E+03  0.36827756294E+03  0.17300000000E+03 0. -1.
         -6    1    1    2    0  501  0.14452681812E+01  0.28774338666E+03 -0.18306685298E+03  0.38241445844E+03  0.17300000000E+03 0.  1.
<mgrwt>
<rscale>  2 0.33574893E+03</rscale>
<asrwt>0</asrwt>
<pdfrwt beam="1">  1        1 0.32022642E-01 0.33574893E+03</pdfrwt>
<pdfrwt beam="2">  1       -1 0.83468437E-01 0.33574893E+03</pdfrwt>
<totfact> 0.20825810E+02</totfact>
</mgrwt>
</event>
<event>
 4    1  0.7245070E-001  0.2203927E+03  0.7546771E-02  0.1133591E+00
         -2   -1    0    0    0  501 -0.00000000000E+00  0.00000000000E+00  0.24139028465E+02  0.24139028465E+02  0.00000000000E+00 0.  1.
          2   -1    0    0  502    0  0.00000000000E+00 -0.00000000000E+00 -0.35839314494E+04  0.35839314494E+04  0.00000000000E+00 0. -1.
          6    1    1    2  502    0 -0.95019461814E+02 -0.98057294912E+02 -0.29745778157E+04  0.29827313176E+04  0.17300000000E+03 0. -1.
         -6    1    1    2    0  501  0.95019461814E+02  0.98057294912E+02 -0.58521460524E+03  0.62533916029E+03  0.17300000000E+03 0.  1.
<mgrwt>
<rscale>  2 0.22039268E+03</rscale>
<asrwt>0</asrwt>
<pdfrwt beam="1">  1        2 0.55137391E+00 0.22039268E+03</pdfrwt>
<pdfrwt beam="2">  1       -2 0.37136978E-02 0.22039268E+03</pdfrwt>
<totfact> 0.27898494E+02</totfact>
</mgrwt>
</event>
<event>
 4    1  0.7245070E-001  0.3549585E+03  0.7546771E-02  0.1060598E+00
          2   -1    0    0  502    0  0.00000000000E+00  0.00000000000E+00  0.48012391363E+03  0.48012391363E+03  0.00000000000E+00 0.  1.
         -2   -1    0    0    0  501 -0.00000000000E+00 -0.00000000000E+00 -0.34633639561E+03  0.34633639561E+03  0.00000000000E+00 0. -1.
          6    1    1    2  502    0 -0.16893190945E+02 -0.30948535449E+03 -0.13650980140E+03  0.38030315595E+03  0.17300000000E+03 0. -1.
         -6    1    1    2    0  501  0.16893190945E+02  0.30948535449E+03  0.27029731942E+03  0.44615715329E+03  0.17300000000E+03 0.  1.
<mgrwt>
<rscale>  2 0.35495854E+03</rscale>
<asrwt>0</asrwt>
<pdfrwt beam="1">  1        2 0.73865218E-01 0.35495854E+03</pdfrwt>
<pdfrwt beam="2">  1       -2 0.53282522E-01 0.35495854E+03</pdfrwt>
<totfact> 0.22061544E+02</totfact>
</mgrwt>
</event>
<event>
 4    1  0.7245070E-001  0.2007675E+03  0.7546771E-02  0.1149093E+00
         -2   -1    0    0    0  501 -0.00000000000E+00  0.00000000000E+00  0.11626994907E+03  0.11626994907E+03  0.00000000000E+00 0.  1.
          2   -1    0    0  502    0  0.00000000000E+00 -0.00000000000E+00 -0.39280328546E+03  0.39280328546E+03  0.00000000000E+00 0. -1.
          6    1    1    2  502    0 -0.64073135355E+02 -0.79203677637E+02 -0.22549515266E+03  0.30191994485E+03  0.17300000000E+03 0. -1.
         -6    1    1    2    0  501  0.64073135355E+02  0.79203677637E+02 -0.51038183741E+02  0.20715328968E+03  0.17300000000E+03 0.  1.
<mgrwt>
<rscale>  2 0.20076750E+03</rscale>
<asrwt>0</asrwt>
<pdfrwt beam="1">  1        2 0.60431274E-01 0.20076750E+03</pdfrwt>
<pdfrwt beam="2">  1       -2 0.17887685E-01 0.20076750E+03</pdfrwt>
<totfact> 0.20528174E+03</totfact>
</mgrwt>
</event>
<event>
 4    1  0.7245070E-001  0.1752886E+03  0.7546771E-02  0.1172442E+00
         -1   -1    0    0    0  501 -0.00000000000E+00  0.00000000000E+00  0.66009684565E+03  0.66009684565E+03  0.00000000000E+00 0.  1.
          1   -1    0    0  502    0  0.00000000000E+00 -0.00000000000E+00 -0.56685555404E+02  0.56685555404E+02  0.00000000000E+00 0. -1.
          6    1    1    2  502    0  0.14231326429E+02 -0.24383983462E+02  0.45326763833E+03  0.48598113262E+03  0.17300000000E+03 0.  1.
         -6    1    1    2    0  501 -0.14231326429E+02  0.24383983462E+02  0.15014365191E+03  0.23080126844E+03  0.17300000000E+03 0. -1.
<mgrwt>
<rscale>  2 0.17528865E+03</rscale>
<asrwt>0</asrwt>
<pdfrwt beam="1">  1        1 0.87208551E-02 0.17528865E+03</pdfrwt>
<pdfrwt beam="2">  1       -1 0.10155336E+00 0.17528865E+03</pdfrwt>
<totfact> 0.74828321E+02</totfact>
</mgrwt>
</event>
<event>
 4    1  0.7245070E-001  0.3361668E+03  0.7546771E-02  0.1068440E+00
          2   -1    0    0  502    0  0.00000000000E+00  0.00000000000E+00  0.14738918478E+04  0.14738918478E+04  0.00000000000E+00 0.  1.
         -2   -1    0    0    0  501 -0.00000000000E+00 -0.00000000000E+00 -0.83419676849E+02  0.83419676849E+02  0.00000000000E+00 0. -1.
          6    1    1    2  502    0 -0.28237832602E+03  0.57806593622E+02  0.47380060151E+03  0.58094331157E+03  0.17300000000E+03 0. -1.
         -6    1    1    2    0  501  0.28237832602E+03 -0.57806593622E+02  0.91667156946E+03  0.97636821309E+03  0.17300000000E+03 0.  1.
<mgrwt>
<rscale>  2 0.33616681E+03</rscale>
<asrwt>0</asrwt>
<pdfrwt beam="1">  1        2 0.22675257E+00 0.33616681E+03</pdfrwt>
<pdfrwt beam="2">  1       -2 0.12833797E-01 0.33616681E+03</pdfrwt>
<totfact> 0.62213726E+02</totfact>
</mgrwt>
</event>
<event>
 4    1  0.7245070E-001  0.2730229E+03  0.7546771E-02  0.1099562E+00
          2   -1    0    0  502    0  0.00000000000E+00  0.00000000000E+00  0.59221171407E+03  0.59221171407E+03  0.00000000000E+00 0.  1.
         -2   -1    0    0    0  501 -0.00000000000E+00 -0.00000000000E+00 -0.17049870973E+03  0.17049870973E+03  0.00000000000E+00 0. -1.
          6    1    1    2  502    0 -0.13661268304E+03 -0.16108833914E+03  0.15747175147E+02  0.27347660174E+03  0.17300000000E+03 0. -1.
         -6    1    1    2    0  501  0.13661268304E+03  0.16108833914E+03  0.40596582919E+03  0.48923382206E+03  0.17300000000E+03 0.  1.
<mgrwt>
<rscale>  2 0.27302285E+03</rscale>
<asrwt>0</asrwt>
<pdfrwt beam="1">  1        2 0.91109494E-01 0.27302285E+03</pdfrwt>
<pdfrwt beam="2">  1       -2 0.26230571E-01 0.27302285E+03</pdfrwt>
<totfact> 0.67103151E+02</totfact>
</mgrwt>
</event>
<event>
 4    1  0.7245070E-001  0.2254475E+03  0.7546771E-02  0.1129886E+00
          2   -1    0    0  502    0  0.00000000000E+00  0.00000000000E+00  0.50362066672E+03  0.50362066672E+03  0.00000000000E+00 0.  1.
         -2   -1    0    0    0  501 -0.00000000000E+00 -0.00000000000E+00 -0.15793858239E+03  0.15793858239E+03  0.00000000000E+00 0. -1.
          6    1    1    2  502    0 -0.53047547646E+02 -0.13447495886E+03 -0.25902979651E+02  0.22693065290E+03  0.17300000000E+03 0.  1.
         -6    1    1    2    0  501  0.53047547646E+02  0.13447495886E+03  0.37158506398E+03  0.43462859621E+03  0.17300000000E+03 0.  1.
<mgrwt>
<rscale>  2 0.22544746E+03</rscale>
<asrwt>0</asrwt>
<pdfrwt beam="1">  1        2 0.77480102E-01 0.22544746E+03</pdfrwt>
<pdfrwt beam="2">  1       -2 0.24298244E-01 0.22544746E+03</pdfrwt>
<totfact> 0.92455371E+02</totfact>
</mgrwt>
</event>
<event>
 4    1  0.7245070E-001  0.2180021E+03  0.7546771E-02  0.1135381E+00
         -2   -1    0    0    0  501 -0.00000000000E+00  0.00000000000E+00  0.53218161061E+02  0.53218161061E+02  0.00000000000E+00 0.  1.
          2   -1    0    0  502    0  0.00000000000E+00 -0.00000000000E+00 -0.10547747320E+04  0.10547747320E+04  0.00000000000E+00 0. -1.
          6    1    1    2  502    0  0.42476525555E+02 -0.12566487120E+03 -0.28383071645E+03  0.35788935536E+03  0.17300000000E+03 0.  1.
         -6    1    1    2    0  501 -0.42476525555E+02  0.12566487120E+03 -0.71772585444E+03  0.75010353765E+03  0.17300000000E+03 0. -1.
<mgrwt>
<rscale>  2 0.21800210E+03</rscale>
<asrwt>0</asrwt>
<pdfrwt beam="1">  1        2 0.16227303E+00 0.21800210E+03</pdfrwt>
<pdfrwt beam="2">  1       -2 0.81874099E-02 0.21800210E+03</pdfrwt>
<totfact> 0.22109807E+03</totfact>
</mgrwt>
</event>
<event>
 4    1  0.7245070E-001  0.2224921E+03  0.7546771E-02  0.1132039E+00
         -2   -1    0    0    0  501 -0.00000000000E+00  0.00000000000E+00  0.34361060322E+02  0.34361060322E+02  0.00000000000E+00 0.  1.
          2   -1    0    0  502    0  0.00000000000E+00 -0.00000000000E+00 -0.14526352163E+04  0.14526352163E+04  0.00000000000E+00 0. -1.
          6    1    1    2  502    0 -0.13166281938E+03 -0.47314413550E+02 -0.64164296064E+03  0.67912328827E+03  0.17300000000E+03 0. -1.
         -6    1    1    2    0  501  0.13166281938E+03  0.47314413550E+02 -0.77663119539E+03  0.80787298840E+03  0.17300000000E+03 0. -1.
<mgrwt>
<rscale>  2 0.22249214E+03</rscale>
<asrwt>0</asrwt>
<pdfrwt beam="1">  1        2 0.22348234E+00 0.22249214E+03</pdfrwt>
<pdfrwt beam="2">  1       -2 0.52863170E-02 0.22249214E+03</pdfrwt>
<totfact> 0.26009565E+03</totfact>
</mgrwt>
</event>
<event>
 4    1  0.7245070E-001  0.1810887E+03  0.7546771E-02  0.1166754E+00
          1   -1    0    0  502    0  0.00000000000E+00  0.00000000000E+00  0.13016790002E+04  0.13016790002E+04  0.00000000000E+00 0. -1.
         -1   -1    0    0    0  501 -0.00000000000E+00 -0.00000000000E+00 -0.27501369426E+02  0.27501369426E+02  0.00000000000E+00 0.  1.
          6    1    1    2  502    0 -0.70482190396E-01  0.53517438841E+02  0.82963505613E+03  0.84916868029E+03  0.17300000000E+03 0.  1.
         -6    1    1    2    0  501  0.70482190396E-01 -0.53517438841E+02  0.44454257466E+03  0.48001168935E+03  0.17300000000E+03 0.  1.
<mgrwt>
<rscale>  2 0.18108871E+03</rscale>
<asrwt>0</asrwt>
<pdfrwt beam="1">  1        1 0.20025826E+00 0.18108871E+03</pdfrwt>
<pdfrwt beam="2">  1       -1 0.42309809E-02 0.18108871E+03</pdfrwt>
<totfact> 0.21962238E+03</totfact>
</mgrwt>
</event>
<event>
 4    1  0.7245070E-001  0.2236079E+03  0.7546771E-02  0.1131221E+00
         -2   -1    0    0    0  501 -0.00000000000E+00  0.00000000000E+00  0.31215144945E+02  0.31215144945E+02  0.00000000000E+00 0. -1.
          2   -1    0    0  502    0  0.00000000000E+00 -0.00000000000E+00 -0.26714965494E+04  0.26714965494E+04  0.00000000000E+00 0.  1.
          6    1    1    2  502    0  0.11501674933E+03  0.82720177208E+02 -0.21752513534E+04  0.21867141859E+04  0.17300000000E+03 0.  1.
         -6    1    1    2    0  501 -0.11501674933E+03 -0.82720177208E+02 -0.46503005110E+03  0.51599750849E+03  0.17300000000E+03 0. -1.
<mgrwt>
<rscale>  2 0.22360787E+03</rscale>
<asrwt>0</asrwt>
<pdfrwt beam="1">  1        2 0.41099962E+00 0.22360787E+03</pdfrwt>
<pdfrwt beam="2">  1       -2 0.48023282E-02 0.22360787E+03</pdfrwt>
<totfact> 0.67785470E+02</totfact>
</mgrwt>
</event>
<event>
 4    1  0.7245070E-001  0.1811958E+03  0.7546771E-02  0.1166651E+00
         -2   -1    0    0    0  501 -0.00000000000E+00  0.00000000000E+00  0.50948036957E+03  0.50948036957E+03  0.00000000000E+00 0.  1.
          2   -1    0    0  502    0  0.00000000000E+00 -0.00000000000E+00 -0.12388302652E+03  0.12388302652E+03  0.00000000000E+00 0. -1.
          6    1    1    2  502    0  0.45806565518E+02  0.28366947304E+02 -0.26562761875E+02  0.18313248063E+03  0.17300000000E+03 0. -1.
         -6    1    1    2    0  501 -0.45806565518E+02 -0.28366947304E+02  0.41216010492E+03  0.45023091546E+03  0.17300000000E+03 0.  1.
<mgrwt>
<rscale>  2 0.18119582E+03</rscale>
<asrwt>0</asrwt>
<pdfrwt beam="1">  1        2 0.19058927E-01 0.18119582E+03</pdfrwt>
<pdfrwt beam="2">  1       -2 0.78381594E-01 0.18119582E+03</pdfrwt>
<totfact> 0.43708099E+02</totfact>
</mgrwt>
</event>
<event>
 4    1  0.7245070E-001  0.1960037E+03  0.7546771E-02  0.1153155E+00
          2   -1    0    0  502    0  0.00000000000E+00  0.00000000000E+00  0.11771897154E+04  0.11771897154E+04  0.00000000000E+00 0. -1.
         -2   -1    0    0    0  501 -0.00000000000E+00 -0.00000000000E+00 -0.54213990604E+02  0.54213990604E+02  0.00000000000E+00 0.  1.
          6    1    1    2  502    0  0.86442844450E+02 -0.31876386197E+02  0.17304125236E+03  0.26145887702E+03  0.17300000000E+03 0.  1.
         -6    1    1    2    0  501 -0.86442844450E+02  0.31876386197E+02  0.94993447238E+03  0.96994482894E+03  0.17300000000E+03 0.  1.
<mgrwt>
<rscale>  2 0.19600375E+03</rscale>
<asrwt>0</asrwt>
<pdfrwt beam="1">  1        2 0.18110609E+00 0.19600375E+03</pdfrwt>
<pdfrwt beam="2">  1       -2 0.83406148E-02 0.19600375E+03</pdfrwt>
<totfact> 0.18229025E+03</totfact>
</mgrwt>
</event>
<event>
 4    1  0.7245070E-001  0.1860654E+03  0.7546771E-02  0.1162059E+00
          1   -1    0    0  502    0  0.00000000000E+00  0.00000000000E+00  0.95902948807E+03  0.95902948807E+03  0.00000000000E+00 0.  1.
         -1   -1    0    0    0  501 -0.00000000000E+00 -0.00000000000E+00 -0.74682807565E+02  0.74682807565E+02  0.00000000000E+00 0. -1.
          6    1    1    2  502    0  0.32027930740E+02  0.60543721489E+02  0.70672327373E+02  0.19903494270E+03  0.17300000000E+03 0. -1.
         -6    1    1    2    0  501 -0.32027930740E+02 -0.60543721489E+02  0.81367435313E+03  0.83467735293E+03  0.17300000000E+03 0.  1.
<mgrwt>
<rscale>  2 0.18606539E+03</rscale>
<asrwt>0</asrwt>
<pdfrwt beam="1">  1        1 0.14754299E+00 0.18606539E+03</pdfrwt>
<pdfrwt beam="2">  1       -1 0.11489663E-01 0.18606539E+03</pdfrwt>
<totfact> 0.84794400E+02</totfact>
</mgrwt>
</event>
<event>
 4    1  0.7245070E-001  0.2921094E+03  0.7546771E-02  0.1089253E+00
          1   -1    0    0  502    0  0.00000000000E+00  0.00000000000E+00  0.19558842985E+03  0.19558842985E+03  0.00000000000E+00 0.  1.
         -1   -1    0    0    0  501 -0.00000000000E+00 -0.00000000000E+00 -0.44944112244E+03  0.44944112244E+03  0.00000000000E+00 0. -1.
          6    1    1    2  502    0 -0.23532390485E+03 -0.46439226191E+01 -0.18215284076E+03  0.34424927540E+03  0.17300000000E+03 0. -1.
         -6    1    1    2    0  501  0.23532390485E+03  0.46439226191E+01 -0.71699851828E+02  0.30078027689E+03  0.17300000000E+03 0.  1.
<mgrwt>
<rscale>  2 0.29210941E+03</rscale>
<asrwt>0</asrwt>
<pdfrwt beam="1">  1        1 0.30090528E-01 0.29210941E+03</pdfrwt>
<pdfrwt beam="2">  1       -1 0.69144787E-01 0.29210941E+03</pdfrwt>
<totfact> 0.33294574E+02</totfact>
</mgrwt>
</event>
<event>
 4    1  0.7245070E-001  0.2795053E+03  0.7546771E-02  0.1095959E+00
          4   -1    0    0  502    0  0.00000000000E+00  0.00000000000E+00  0.36486007759E+03  0.36486007759E+03  0.00000000000E+00 0.  1.
         -4   -1    0    0    0  501 -0.00000000000E+00 -0.00000000000E+00 -0.21439093559E+03  0.21439093559E+03  0.00000000000E+00 0. -1.
          6    1    1    2  502    0 -0.21936081762E+03 -0.86640264641E+01  0.85562043896E+02  0.29230822263E+03  0.17300000000E+03 0. -1.
         -6    1    1    2    0  501  0.21936081762E+03  0.86640264641E+01  0.64907098109E+02  0.28694279055E+03  0.17300000000E+03 0.  1.
<mgrwt>
<rscale>  2 0.27950534E+03</rscale>
<asrwt>0</asrwt>
<pdfrwt beam="1">  1        4 0.56132320E-01 0.27950534E+03</pdfrwt>
<pdfrwt beam="2">  1       -4 0.32983221E-01 0.27950534E+03</pdfrwt>
<totfact> 0.49903722E+01</totfact>
</mgrwt>
</event>
<event>
 4    1  0.7245070E-001  0.1962397E+03  0.7546771E-02  0.1152951E+00
          1   -1    0    0  502    0  0.00000000000E+00  0.00000000000E+00  0.18476167930E+03  0.18476167930E+03  0.00000000000E+00 0. -1.
         -1   -1    0    0    0  501 -0.00000000000E+00 -0.00000000000E+00 -0.29583480783E+03  0.29583480783E+03  0.00000000000E+00 0.  1.
          6    1    1    2  502    0 -0.35581828608E+02 -0.85527390162E+02 -0.18615123260E+03  0.27048527204E+03  0.17300000000E+03 0. -1.
         -6    1    1    2    0  501  0.35581828608E+02  0.85527390162E+02  0.75078104072E+02  0.21011121509E+03  0.17300000000E+03 0. -1.
<mgrwt>
<rscale>  2 0.19623965E+03</rscale>
<asrwt>0</asrwt>
<pdfrwt beam="1">  1        1 0.28424874E-01 0.19623965E+03</pdfrwt>
<pdfrwt beam="2">  1       -1 0.45513047E-01 0.19623965E+03</pdfrwt>
<totfact> 0.79272339E+02</totfact>
</mgrwt>
</event>
<event>
 4    1  0.7245070E-001  0.1862789E+03  0.7546771E-02  0.1161861E+00
          2   -1    0    0  502    0  0.00000000000E+00  0.00000000000E+00  0.15245765431E+04  0.15245765431E+04  0.00000000000E+00 0. -1.
         -2   -1    0    0    0  501 -0.00000000000E+00 -0.00000000000E+00 -0.33955317107E+02  0.33955317107E+02  0.00000000000E+00 0.  1.
          6    1    1    2  502    0  0.68939131869E+02  0.42672398083E+01  0.11927603468E+04  0.12072187284E+04  0.17300000000E+03 0. -1.
         -6    1    1    2    0  501 -0.68939131869E+02 -0.42672398083E+01  0.29786087913E+03  0.35131313177E+03  0.17300000000E+03 0.  1.
<mgrwt>
<rscale>  2 0.18627886E+03</rscale>
<asrwt>0</asrwt>
<pdfrwt beam="1">  1        2 0.23455018E+00 0.18627886E+03</pdfrwt>
<pdfrwt beam="2">  1       -2 0.52238961E-02 0.18627886E+03</pdfrwt>
<totfact> 0.24245039E+03</totfact>
</mgrwt>
</event>
<event>
 4    1  0.7245070E-001  0.2507355E+03  0.7546771E-02  0.1112841E+00
          1   -1    0    0  502    0  0.00000000000E+00  0.00000000000E+00  0.10965460378E+04  0.10965460378E+04  0.00000000000E+00 0.  1.
         -1   -1    0    0    0  501 -0.00000000000E+00 -0.00000000000E+00 -0.60666530029E+02  0.60666530029E+02  0.00000000000E+00 0. -1.
          6    1    1    2  502    0 -0.16334731683E+03  0.79100782381E+02  0.65357120723E+03  0.70001685880E+03  0.17300000000E+03 0. -1.
         -6    1    1    2    0  501  0.16334731683E+03 -0.79100782381E+02  0.38230830055E+03  0.45719570903E+03  0.17300000000E+03 0. -1.
<mgrwt>
<rscale>  2 0.25073548E+03</rscale>
<asrwt>0</asrwt>
<pdfrwt beam="1">  1        1 0.16869938E+00 0.25073548E+03</pdfrwt>
<pdfrwt beam="2">  1       -1 0.93333131E-02 0.25073548E+03</pdfrwt>
<totfact> 0.92324014E+02</totfact>
</mgrwt>
</event>
<event>
 4    1  0.7245070E-001  0.1751475E+03  0.7546771E-02  0.1172584E+00
         -1   -1    0    0    0  501 -0.00000000000E+00  0.00000000000E+00  0.37732771985E+02  0.37732771985E+02  0.00000000000E+00 0.  1.
          1   -1    0    0  502    0  0.00000000000E+00 -0.00000000000E+00 -0.14427083275E+04  0.14427083275E+04  0.00000000000E+00 0. -1.
          6    1    1    2  502    0 -0.27329146072E+02 -0.86493610505E+00 -0.11915257950E+04  0.12043298346E+04  0.17300000000E+03 0. -1.
         -6    1    1    2    0  501  0.27329146072E+02  0.86493610505E+00 -0.21344976054E+03  0.27611126492E+03  0.17300000000E+03 0.  1.
<mgrwt>
<rscale>  2 0.17514745E+03</rscale>
<asrwt>0</asrwt>
<pdfrwt beam="1">  1        1 0.22195511E+00 0.17514745E+03</pdfrwt>
<pdfrwt beam="2">  1       -1 0.58050423E-02 0.17514745E+03</pdfrwt>
<totfact> 0.11044418E+03</totfact>
</mgrwt>
</event>
<event>
 4    1  0.7245070E-001  0.1779183E+03  0.7546771E-02  0.1169833E+00
         -2   -1    0    0    0  501 -0.00000000000E+00  0.00000000000E+00  0.26077480693E+02  0.26077480693E+02  0.00000000000E+00 0.  1.
          2   -1    0    0  502    0  0.00000000000E+00 -0.00000000000E+00 -0.13930610130E+04  0.13930610130E+04  0.00000000000E+00 0. -1.
          6    1    1    2  502    0 -0.32290891114E+02 -0.26138705800E+02 -0.93797293320E+03  0.95469794019E+03  0.17300000000E+03 0. -1.
         -6    1    1    2    0  501  0.32290891114E+02  0.26138705800E+02 -0.42901059910E+03  0.46444055349E+03  0.17300000000E+03 0.  1.
<mgrwt>
<rscale>  2 0.17791833E+03</rscale>
<asrwt>0</asrwt>
<pdfrwt beam="1">  1        2 0.21431708E+00 0.17791833E+03</pdfrwt>
<pdfrwt beam="2">  1       -2 0.40119202E-02 0.17791833E+03</pdfrwt>
<totfact> 0.42352025E+03</totfact>
</mgrwt>
</event>
<event>
 4    1  0.7245070E-001  0.1794678E+03  0.7546771E-02  0.1168319E+00
          2   -1    0    0  502    0  0.00000000000E+00  0.00000000000E+00  0.19494341020E+04  0.19494341020E+04  0.00000000000E+00 0.  1.
         -2   -1    0    0    0  501 -0.00000000000E+00 -0.00000000000E+00 -0.16523600427E+02  0.16523600427E+02  0.00000000000E+00 0. -1.
          6    1    1    2  502    0  0.32590589342E+02 -0.34893232130E+02  0.95699108599E+03  0.97367377639E+03  0.17300000000E+03 0. -1.
         -6    1    1    2    0  501 -0.32590589342E+02  0.34893232130E+02  0.97591941562E+03  0.99228392607E+03  0.17300000000E+03 0.  1.
<mgrwt>
<rscale>  2 0.17946778E+03</rscale>
<asrwt>0</asrwt>
<pdfrwt beam="1">  1        2 0.29991276E+00 0.17946778E+03</pdfrwt>
<pdfrwt beam="2">  1       -2 0.25420939E-02 0.17946778E+03</pdfrwt>
<totfact> 0.42723971E+03</totfact>
</mgrwt>
</event>
<event>
 4    1  0.7245070E-001  0.1888998E+03  0.7546771E-02  0.1159457E+00
         -2   -1    0    0    0  501 -0.00000000000E+00  0.00000000000E+00  0.31355179371E+02  0.31355179371E+02  0.00000000000E+00 0.  1.
          2   -1    0    0  502    0  0.00000000000E+00 -0.00000000000E+00 -0.12760748218E+04  0.12760748218E+04  0.00000000000E+00 0. -1.
          6    1    1    2  502    0  0.25781642291E+02  0.71340450202E+02 -0.40734938948E+03  0.44901745848E+03  0.17300000000E+03 0. -1.
         -6    1    1    2    0  501 -0.25781642291E+02 -0.71340450202E+02 -0.83737025290E+03  0.85841254264E+03  0.17300000000E+03 0.  1.
<mgrwt>
<rscale>  2 0.18889985E+03</rscale>
<asrwt>0</asrwt>
<pdfrwt beam="1">  1        2 0.19631920E+00 0.18889985E+03</pdfrwt>
<pdfrwt beam="2">  1       -2 0.48238738E-02 0.18889985E+03</pdfrwt>
<totfact> 0.37192893E+03</totfact>
</mgrwt>
</event>
<event>
 4    1  0.7245070E-001  0.1740189E+03  0.7546771E-02  0.1173720E+00
         -2   -1    0    0    0  501 -0.00000000000E+00  0.00000000000E+00  0.32215379795E+03  0.32215379795E+03  0.00000000000E+00 0.  1.
          2   -1    0    0  502    0  0.00000000000E+00 -0.00000000000E+00 -0.10212833052E+03  0.10212833052E+03  0.00000000000E+00 0. -1.
          6    1    1    2  502    0  0.18713659861E+02 -0.18406540869E+01  0.50165875996E+02  0.18110550568E+03  0.17300000000E+03 0. -1.
         -6    1    1    2    0  501 -0.18713659861E+02  0.18406540869E+01  0.16985959143E+03  0.24317662279E+03  0.17300000000E+03 0.  1.
<mgrwt>
<rscale>  2 0.17401893E+03</rscale>
<asrwt>0</asrwt>
<pdfrwt beam="1">  1        2 0.15712051E-01 0.17401893E+03</pdfrwt>
<pdfrwt beam="2">  1       -2 0.49562122E-01 0.17401893E+03</pdfrwt>
<totfact> 0.14189809E+03</totfact>
</mgrwt>
</event>
<event>
 4    1  0.7245070E-001  0.1814144E+03  0.7546771E-02  0.1166441E+00
         -2   -1    0    0    0  501 -0.00000000000E+00  0.00000000000E+00  0.27822517977E+03  0.27822517977E+03  0.00000000000E+00 0. -1.
          2   -1    0    0  502    0  0.00000000000E+00 -0.00000000000E+00 -0.12631381100E+03  0.12631381100E+03  0.00000000000E+00 0.  1.
          6    1    1    2  502    0 -0.49091895145E+02  0.23919938818E+02  0.12693605504E+03  0.22141350390E+03  0.17300000000E+03 0. -1.
         -6    1    1    2    0  501  0.49091895145E+02 -0.23919938818E+02  0.24975313735E+02  0.18312548686E+03  0.17300000000E+03 0.  1.
<mgrwt>
<rscale>  2 0.18141438E+03</rscale>
<asrwt>0</asrwt>
<pdfrwt beam="1">  1        2 0.19432894E-01 0.18141438E+03</pdfrwt>
<pdfrwt beam="2">  1       -2 0.42803874E-01 0.18141438E+03</pdfrwt>
<totfact> 0.14797017E+03</totfact>
</mgrwt>
</event>
<event>
 4    1  0.7245070E-001  0.2628358E+03  0.7546771E-02  0.1105451E+00
          2   -1    0    0  502    0  0.00000000000E+00  0.00000000000E+00  0.91420481932E+03  0.91420481932E+03  0.00000000000E+00 0.  1.
         -2   -1    0    0    0  501 -0.00000000000E+00 -0.00000000000E+00 -0.77248463987E+02  0.77248463987E+02  0.00000000000E+00 0. -1.
          6    1    1    2  502    0  0.19096813552E+03 -0.51815306537E+02  0.34531527667E+03  0.43396462423E+03  0.17300000000E+03 0. -1.
         -6    1    1    2    0  501 -0.19096813552E+03  0.51815306537E+02  0.49164107866E+03  0.55748865908E+03  0.17300000000E+03 0.  1.
<mgrwt>
<rscale>  2 0.26283579E+03</rscale>
<asrwt>0</asrwt>
<pdfrwt beam="1">  1        2 0.14064689E+00 0.26283579E+03</pdfrwt>
<pdfrwt beam="2">  1       -2 0.11884380E-01 0.26283579E+03</pdfrwt>
<totfact> 0.14939034E+03</totfact>
</mgrwt>
</event>
<event>
 4    1  0.7245070E-001  0.2149645E+03  0.7546771E-02  0.1137694E+00
         -2   -1    0    0    0  501 -0.00000000000E+00  0.00000000000E+00  0.42776764701E+02  0.42776764701E+02  0.00000000000E+00 0. -1.
          2   -1    0    0  502    0  0.00000000000E+00 -0.00000000000E+00 -0.15873842780E+04  0.15873842780E+04  0.00000000000E+00 0.  1.
          6    1    1    2  502    0 -0.96094626405E+02 -0.83943729925E+02 -0.31160218944E+03  0.37855732919E+03  0.17300000000E+03 0. -1.
         -6    1    1    2    0  501  0.96094626405E+02  0.83943729925E+02 -0.12330053238E+04  0.12516037135E+04  0.17300000000E+03 0.  1.
<mgrwt>
<rscale>  2 0.21496448E+03</rscale>
<asrwt>0</asrwt>
<pdfrwt beam="1">  1        2 0.24421299E+00 0.21496448E+03</pdfrwt>
<pdfrwt beam="2">  1       -2 0.65810402E-02 0.21496448E+03</pdfrwt>
<totfact> 0.15773030E+03</totfact>
</mgrwt>
</event>
<event>
 4    1  0.7245070E-001  0.1946443E+03  0.7546771E-02  0.1154338E+00
          2   -1    0    0  502    0  0.00000000000E+00  0.00000000000E+00  0.50688624194E+02  0.50688624194E+02  0.00000000000E+00 0.  1.
         -2   -1    0    0    0  501 -0.00000000000E+00 -0.00000000000E+00 -0.10172357309E+04  0.10172357309E+04  0.00000000000E+00 0. -1.
          6    1    1    2  502    0  0.16861559226E+02  0.87596116828E+02 -0.20828019479E+03  0.28507372977E+03  0.17300000000E+03 0.  1.
         -6    1    1    2    0  501 -0.16861559226E+02 -0.87596116828E+02 -0.75826691193E+03  0.78285062534E+03  0.17300000000E+03 0. -1.
<mgrwt>
<rscale>  2 0.19464427E+03</rscale>
<asrwt>0</asrwt>
<pdfrwt beam="1">  1        2 0.77982494E-02 0.19464427E+03</pdfrwt>
<pdfrwt beam="2">  1       -2 0.15649781E+00 0.19464427E+03</pdfrwt>
<totfact> 0.24888633E+02</totfact>
</mgrwt>
</event>
<event>
 4    1  0.7245070E-001  0.1821762E+03  0.7546771E-02  0.1165713E+00
          4   -1    0    0  502    0  0.00000000000E+00  0.00000000000E+00  0.53235790527E+02  0.53235790527E+02  0.00000000000E+00 0.  1.
         -4   -1    0    0    0  501 -0.00000000000E+00 -0.00000000000E+00 -0.62377543680E+03  0.62377543680E+03  0.00000000000E+00 0. -1.
          6    1    1    2  502    0 -0.24615794697E+02  0.51509626415E+02 -0.27717287635E+03  0.33168205008E+03  0.17300000000E+03 0.  1.
         -6    1    1    2    0  501  0.24615794697E+02 -0.51509626415E+02 -0.29336676993E+03  0.34532917725E+03  0.17300000000E+03 0. -1.
<mgrwt>
<rscale>  2 0.18217623E+03</rscale>
<asrwt>0</asrwt>
<pdfrwt beam="1">  1        4 0.81901216E-02 0.18217623E+03</pdfrwt>
<pdfrwt beam="2">  1       -4 0.95965452E-01 0.18217623E+03</pdfrwt>
<totfact> 0.17525613E+02</totfact>
</mgrwt>
</event>
<event>
 4    1  0.7245070E-001  0.2633998E+03  0.7546771E-02  0.1105118E+00
         -1   -1    0    0    0  501 -0.00000000000E+00  0.00000000000E+00  0.70244576516E+02  0.70244576516E+02  0.00000000000E+00 0. -1.
          1   -1    0    0  502    0  0.00000000000E+00 -0.00000000000E+00 -0.10377493468E+04  0.10377493468E+04  0.00000000000E+00 0.  1.
          6    1    1    2  502    0  0.18584374484E+03 -0.70089635728E+02 -0.60543516763E+03  0.66025085894E+03  0.17300000000E+03 0.  1.
         -6    1    1    2    0  501 -0.18584374484E+03  0.70089635728E+02 -0.36206960268E+03  0.44774306440E+03  0.17300000000E+03 0. -1.
<mgrwt>
<rscale>  2 0.26339980E+03</rscale>
<asrwt>0</asrwt>
<pdfrwt beam="1">  1        1 0.15965374E+00 0.26339980E+03</pdfrwt>
<pdfrwt beam="2">  1       -1 0.10806858E-01 0.26339980E+03</pdfrwt>
<totfact> 0.81138984E+02</totfact>
</mgrwt>
</event>
<event>
 4    1  0.7245070E-001  0.2501539E+03  0.7546771E-02  0.1113208E+00
         -1   -1    0    0    0  501 -0.00000000000E+00  0.00000000000E+00  0.43959240113E+02  0.43959240113E+02  0.00000000000E+00 0.  1.
          1   -1    0    0  502    0  0.00000000000E+00 -0.00000000000E+00 -0.14582900331E+04  0.14582900331E+04  0.00000000000E+00 0. -1.
          6    1    1    2  502    0 -0.18015630409E+03  0.13844153127E+02 -0.59118653940E+03  0.64193339128E+03  0.17300000000E+03 0.  1.
         -6    1    1    2    0  501  0.18015630409E+03 -0.13844153127E+02 -0.82314425355E+03  0.86031588189E+03  0.17300000000E+03 0. -1.
<mgrwt>
<rscale>  2 0.25015386E+03</rscale>
<asrwt>0</asrwt>
<pdfrwt beam="1">  1        1 0.22435226E+00 0.25015386E+03</pdfrwt>
<pdfrwt beam="2">  1       -1 0.67629616E-02 0.25015386E+03</pdfrwt>
<totfact> 0.85173390E+02</totfact>
</mgrwt>
</event>
<event>
 4    1  0.7245070E-001  0.3027441E+03  0.7546771E-02  0.1083877E+00
         -2   -1    0    0    0  501 -0.00000000000E+00  0.00000000000E+00  0.83681864360E+02  0.83681864360E+02  0.00000000000E+00 0. -1.
          2   -1    0    0  502    0  0.00000000000E+00 -0.00000000000E+00 -0.12507749273E+04  0.12507749273E+04  0.00000000000E+00 0.  1.
          6    1    1    2  502    0  0.24259790455E+03 -0.53583883560E+02 -0.34827935073E+03  0.46146774753E+03  0.17300000000E+03 0.  1.
         -6    1    1    2    0  501 -0.24259790455E+03  0.53583883560E+02 -0.81881371225E+03  0.87298904417E+03  0.17300000000E+03 0.  1.
<mgrwt>
<rscale>  2 0.30274408E+03</rscale>
<asrwt>0</asrwt>
<pdfrwt beam="1">  1        2 0.19242689E+00 0.30274408E+03</pdfrwt>
<pdfrwt beam="2">  1       -2 0.12874134E-01 0.30274408E+03</pdfrwt>
<totfact> 0.82434455E+02</totfact>
</mgrwt>
</event>
<event>
 4    1  0.7245070E-001  0.2849707E+03  0.7546771E-02  0.1093005E+00
          1   -1    0    0  502    0  0.00000000000E+00  0.00000000000E+00  0.10873363095E+04  0.10873363095E+04  0.00000000000E+00 0. -1.
         -1   -1    0    0    0  501 -0.00000000000E+00 -0.00000000000E+00 -0.79473527014E+02  0.79473527014E+02  0.00000000000E+00 0.  1.
          6    1    1    2  502    0  0.22140528217E+03 -0.47529209577E+02  0.36073427597E+03  0.45971463169E+03  0.17300000000E+03 0. -1.
         -6    1    1    2    0  501 -0.22140528217E+03  0.47529209577E+02  0.64712850652E+03  0.70709520482E+03  0.17300000000E+03 0.  1.
<mgrwt>
<rscale>  2 0.28497074E+03</rscale>
<asrwt>0</asrwt>
<pdfrwt beam="1">  1        1 0.16728250E+00 0.28497074E+03</pdfrwt>
<pdfrwt beam="2">  1       -1 0.12226697E-01 0.28497074E+03</pdfrwt>
<totfact> 0.61429970E+02</totfact>
</mgrwt>
</event>
<event>
 4    1  0.7245070E-001  0.3079124E+03  0.7546771E-02  0.1081351E+00
          2   -1    0    0  502    0  0.00000000000E+00  0.00000000000E+00  0.12317262738E+04  0.12317262738E+04  0.00000000000E+00 0.  1.
         -2   -1    0    0    0  501 -0.00000000000E+00 -0.00000000000E+00 -0.78334145374E+02  0.78334145374E+02  0.00000000000E+00 0. -1.
          6    1    1    2  502    0 -0.23335533876E+03  0.10210937300E+03  0.66303165826E+03  0.73104105086E+03  0.17300000000E+03 0. -1.
         -6    1    1    2    0  501  0.23335533876E+03 -0.10210937300E+03  0.49036047015E+03  0.57901936830E+03  0.17300000000E+03 0.  1.
<mgrwt>
<rscale>  2 0.30791239E+03</rscale>
<asrwt>0</asrwt>
<pdfrwt beam="1">  1        2 0.18949634E+00 0.30791239E+03</pdfrwt>
<pdfrwt beam="2">  1       -2 0.12051408E-01 0.30791239E+03</pdfrwt>
<totfact> 0.94089929E+02</totfact>
</mgrwt>
</event>
<event>
 4    1  0.7245070E-001  0.2548266E+03  0.7546771E-02  0.1110292E+00
          1   -1    0    0  502    0  0.00000000000E+00  0.00000000000E+00  0.46985215799E+04  0.46985215799E+04  0.00000000000E+00 0. -1.
         -1   -1    0    0    0  501 -0.00000000000E+00 -0.00000000000E+00 -0.15315401674E+02  0.15315401674E+02  0.00000000000E+00 0.  1.
          6    1    1    2  502    0  0.70482693316E+02 -0.17331990514E+03  0.16052847896E+04  0.16253848330E+04  0.17300000000E+03 0.  1.
         -6    1    1    2    0  501 -0.70482693316E+02  0.17331990514E+03  0.30779213886E+04  0.30884521486E+04  0.17300000000E+03 0. -1.
<mgrwt>
<rscale>  2 0.25482661E+03</rscale>
<asrwt>0</asrwt>
<pdfrwt beam="1">  1        1 0.72284832E+00 0.25482661E+03</pdfrwt>
<pdfrwt beam="2">  1       -1 0.23562194E-02 0.25482661E+03</pdfrwt>
<totfact> 0.15052255E+01</totfact>
</mgrwt>
</event>
<event>
 4    1  0.7245070E-001  0.1809158E+03  0.7546771E-02  0.1166920E+00
         -2   -1    0    0    0  501 -0.00000000000E+00  0.00000000000E+00  0.24765664026E+02  0.24765664026E+02  0.00000000000E+00 0.  1.
          2   -1    0    0  502    0  0.00000000000E+00 -0.00000000000E+00 -0.13216150656E+04  0.13216150656E+04  0.00000000000E+00 0. -1.
          6    1    1    2  502    0  0.46067152041E+02  0.26063923696E+02 -0.64993191194E+03  0.67464212793E+03  0.17300000000E+03 0. -1.
         -6    1    1    2    0  501 -0.46067152041E+02 -0.26063923696E+02 -0.64691748959E+03  0.67173860165E+03  0.17300000000E+03 0. -1.
<mgrwt>
<rscale>  2 0.18091576E+03</rscale>
<asrwt>0</asrwt>
<pdfrwt beam="1">  1        2 0.20332535E+00 0.18091576E+03</pdfrwt>
<pdfrwt beam="2">  1       -2 0.38101031E-02 0.18091576E+03</pdfrwt>
<totfact> 0.50011513E+03</totfact>
</mgrwt>
</event>
<event>
 4    1  0.7245070E-001  0.2291147E+03  0.7546771E-02  0.1127264E+00
          2   -1    0    0  502    0  0.00000000000E+00  0.00000000000E+00  0.17950931058E+03  0.17950931058E+03  0.00000000000E+00 0.  1.
         -2   -1    0    0    0  501 -0.00000000000E+00 -0.00000000000E+00 -0.39493294818E+03  0.39493294818E+03  0.00000000000E+00 0. -1.
          6    1    1    2  502    0 -0.31395318257E+02  0.14689744875E+03 -0.25403979945E+03  0.34209610662E+03  0.17300000000E+03 0. -1.
         -6    1    1    2    0  501  0.31395318257E+02 -0.14689744875E+03  0.38616161853E+02  0.23234615214E+03  0.17300000000E+03 0.  1.
<mgrwt>
<rscale>  2 0.22911466E+03</rscale>
<asrwt>0</asrwt>
<pdfrwt beam="1">  1        2 0.27616817E-01 0.22911466E+03</pdfrwt>
<pdfrwt beam="2">  1       -2 0.60758915E-01 0.22911466E+03</pdfrwt>
<totfact> 0.49652156E+02</totfact>
</mgrwt>
</event>
<event>
 4    1  0.7245070E-001  0.1742515E+03  0.7546771E-02  0.1173485E+00
         -1   -1    0    0    0  501 -0.00000000000E+00  0.00000000000E+00  0.40962683867E+02  0.40962683867E+02  0.00000000000E+00 0.  1.
          1   -1    0    0  502    0  0.00000000000E+00 -0.00000000000E+00 -0.74742484010E+03  0.74742484010E+03  0.00000000000E+00 0. -1.
          6    1    1    2  502    0  0.15629821060E+02 -0.13794436668E+02 -0.31740091183E+03  0.36208689098E+03  0.17300000000E+03 0.  1.
         -6    1    1    2    0  501 -0.15629821060E+02  0.13794436668E+02 -0.38906124440E+03  0.42630063299E+03  0.17300000000E+03 0. -1.
<mgrwt>
<rscale>  2 0.17425148E+03</rscale>
<asrwt>0</asrwt>
<pdfrwt beam="1">  1        1 0.11498844E+00 0.17425148E+03</pdfrwt>
<pdfrwt beam="2">  1       -1 0.63019511E-02 0.17425148E+03</pdfrwt>
<totfact> 0.31280538E+03</totfact>
</mgrwt>
</event>
<event>
 4    1  0.7245070E-001  0.1847595E+03  0.7546771E-02  0.1163275E+00
          2   -1    0    0  502    0  0.00000000000E+00  0.00000000000E+00  0.34213100550E+03  0.34213100550E+03  0.00000000000E+00 0.  1.
         -2   -1    0    0    0  501 -0.00000000000E+00 -0.00000000000E+00 -0.10983818007E+03  0.10983818007E+03  0.00000000000E+00 0. -1.
          6    1    1    2  502    0 -0.28583792834E+02  0.58224179213E+02  0.47743931054E+02  0.19082864358E+03  0.17300000000E+03 0. -1.
         -6    1    1    2    0  501  0.28583792834E+02 -0.58224179213E+02  0.18454889438E+03  0.26114054200E+03  0.17300000000E+03 0.  1.
<mgrwt>
<rscale>  2 0.18475954E+03</rscale>
<asrwt>0</asrwt>
<pdfrwt beam="1">  1        2 0.52635539E-01 0.18475954E+03</pdfrwt>
<pdfrwt beam="2">  1       -2 0.16898182E-01 0.18475954E+03</pdfrwt>
<totfact> 0.26134483E+03</totfact>
</mgrwt>
</event>
<event>
 4    1  0.7245070E-001  0.2193928E+03  0.7546771E-02  0.1134337E+00
         -2   -1    0    0    0  501 -0.00000000000E+00  0.00000000000E+00  0.23461595463E+02  0.23461595463E+02  0.00000000000E+00 0. -1.
          2   -1    0    0  502    0  0.00000000000E+00 -0.00000000000E+00 -0.20637873319E+04  0.20637873319E+04  0.00000000000E+00 0.  1.
          6    1    1    2  502    0 -0.40588590801E+01  0.13486194520E+03 -0.11004441311E+04  0.11221009332E+04  0.17300000000E+03 0.  1.
         -6    1    1    2    0  501  0.40588590801E+01 -0.13486194520E+03 -0.93988160534E+03  0.96514799417E+03  0.17300000000E+03 0.  1.
<mgrwt>
<rscale>  2 0.21939284E+03</rscale>
<asrwt>0</asrwt>
<pdfrwt beam="1">  1        2 0.31750575E+00 0.21939284E+03</pdfrwt>
<pdfrwt beam="2">  1       -2 0.36094761E-02 0.21939284E+03</pdfrwt>
<totfact> 0.22123926E+03</totfact>
</mgrwt>
</event>
<event>
 4    1  0.7245070E-001  0.6868919E+03  0.7546771E-02  0.9739915E-01
         -2   -1    0    0    0  501 -0.00000000000E+00  0.00000000000E+00  0.23155693114E+03  0.23155693114E+03  0.00000000000E+00 0. -1.
          2   -1    0    0  502    0  0.00000000000E+00 -0.00000000000E+00 -0.21895946709E+04  0.21895946709E+04  0.00000000000E+00 0.  1.
          6    1    1    2  502    0  0.63971133894E+03  0.18072331937E+03 -0.66006813170E+03  0.95263343098E+03  0.17300000000E+03 0. -1.
         -6    1    1    2    0  501 -0.63971133894E+03 -0.18072331937E+03 -0.12979696081E+04  0.14685181711E+04  0.17300000000E+03 0.  1.
<mgrwt>
<rscale>  2 0.68689192E+03</rscale>
<asrwt>0</asrwt>
<pdfrwt beam="1">  1        2 0.33686071E+00 0.68689192E+03</pdfrwt>
<pdfrwt beam="2">  1       -2 0.35624145E-01 0.68689192E+03</pdfrwt>
<totfact> 0.40453891E+01</totfact>
</mgrwt>
</event>
<event>
 4    1  0.7245070E-001  0.2067552E+03  0.7546771E-02  0.1144162E+00
         -1   -1    0    0    0  501 -0.00000000000E+00  0.00000000000E+00  0.93337074502E+02  0.93337074502E+02  0.00000000000E+00 0. -1.
          1   -1    0    0  502    0  0.00000000000E+00 -0.00000000000E+00 -0.58968069324E+03  0.58968069324E+03  0.00000000000E+00 0.  1.
          6    1    1    2  502    0  0.94019969633E+02 -0.63079084457E+02 -0.86785694303E+02  0.22423086835E+03  0.17300000000E+03 0. -1.
         -6    1    1    2    0  501 -0.94019969633E+02  0.63079084457E+02 -0.40955792444E+03  0.45878689939E+03  0.17300000000E+03 0.  1.
<mgrwt>
<rscale>  2 0.20675523E+03</rscale>
<asrwt>0</asrwt>
<pdfrwt beam="1">  1        1 0.90720106E-01 0.20675523E+03</pdfrwt>
<pdfrwt beam="2">  1       -1 0.14359550E-01 0.20675523E+03</pdfrwt>
<totfact> 0.12405092E+03</totfact>
</mgrwt>
</event>
<event>
 4    1  0.7245070E-001  0.1930440E+03  0.7546771E-02  0.1155744E+00
         -1   -1    0    0    0  501 -0.00000000000E+00  0.00000000000E+00  0.20304149310E+03  0.20304149310E+03  0.00000000000E+00 0.  1.
          1   -1    0    0  502    0  0.00000000000E+00 -0.00000000000E+00 -0.18355916804E+03  0.18355916804E+03  0.00000000000E+00 0. -1.
          6    1    1    2  502    0 -0.69411767659E+02 -0.50189569182E+02  0.11778747128E+02  0.19340301246E+03  0.17300000000E+03 0. -1.
         -6    1    1    2    0  501  0.69411767659E+02  0.50189569182E+02  0.77035779372E+01  0.19319764868E+03  0.17300000000E+03 0.  1.
<mgrwt>
<rscale>  2 0.19304400E+03</rscale>
<asrwt>0</asrwt>
<pdfrwt beam="1">  1        1 0.28239872E-01 0.19304400E+03</pdfrwt>
<pdfrwt beam="2">  1       -1 0.31237153E-01 0.19304400E+03</pdfrwt>
<totfact> 0.15456945E+03</totfact>
</mgrwt>
</event>
<event>
 4    1  0.7245070E-001  0.1791510E+03  0.7546771E-02  0.1168627E+00
          2   -1    0    0  502    0  0.00000000000E+00  0.00000000000E+00  0.39689044212E+03  0.39689044212E+03  0.00000000000E+00 0. -1.
         -2   -1    0    0    0  501 -0.00000000000E+00 -0.00000000000E+00 -0.89799899828E+02  0.89799899828E+02  0.00000000000E+00 0.  1.
          6    1    1    2  502    0 -0.73838768663E+00  0.46535390659E+02  0.76792079024E+02  0.19491565150E+03  0.17300000000E+03 0.  1.
         -6    1    1    2    0  501  0.73838768663E+00 -0.46535390659E+02  0.23029846327E+03  0.29177469044E+03  0.17300000000E+03 0. -1.
<mgrwt>
<rscale>  2 0.17915102E+03</rscale>
<asrwt>0</asrwt>
<pdfrwt beam="1">  1        2 0.61060067E-01 0.17915102E+03</pdfrwt>
<pdfrwt beam="2">  1       -2 0.13815369E-01 0.17915102E+03</pdfrwt>
<totfact> 0.31017671E+03</totfact>
</mgrwt>
</event>
<event>
 4    1  0.7245070E-001  0.2202567E+03  0.7546771E-02  0.1133692E+00
         -2   -1    0    0    0  501 -0.00000000000E+00  0.00000000000E+00  0.20448599831E+03  0.20448599831E+03  0.00000000000E+00 0. -1.
          2   -1    0    0  502    0  0.00000000000E+00 -0.00000000000E+00 -0.30948484099E+03  0.30948484099E+03  0.00000000000E+00 0.  1.
          6    1    1    2  502    0 -0.12640200479E+03 -0.51054168374E+02  0.71660487259E+02  0.23162085475E+03  0.17300000000E+03 0. -1.
         -6    1    1    2    0  501  0.12640200479E+03  0.51054168374E+02 -0.17665932994E+03  0.28234998455E+03  0.17300000000E+03 0.  1.
<mgrwt>
<rscale>  2 0.22025666E+03</rscale>
<asrwt>0</asrwt>
<pdfrwt beam="1">  1        2 0.47613053E-01 0.22025666E+03</pdfrwt>
<pdfrwt beam="2">  1       -2 0.31459384E-01 0.22025666E+03</pdfrwt>
<totfact> 0.98915313E+02</totfact>
</mgrwt>
</event>
<event>
 4    1  0.7245070E-001  0.1751055E+03  0.7546771E-02  0.1172626E+00
          2   -1    0    0  502    0  0.00000000000E+00  0.00000000000E+00  0.14280779536E+04  0.14280779536E+04  0.00000000000E+00 0. -1.
         -2   -1    0    0    0  501 -0.00000000000E+00 -0.00000000000E+00 -0.21496156010E+02  0.21496156010E+02  0.00000000000E+00 0.  1.
          6    1    1    2  502    0 -0.13220932274E+02  0.23624899053E+02  0.67838206069E+03  0.70061697751E+03  0.17300000000E+03 0. -1.
         -6    1    1    2    0  501  0.13220932274E+02 -0.23624899053E+02  0.72819973691E+03  0.74895713211E+03  0.17300000000E+03 0. -1.
<mgrwt>
<rscale>  2 0.17510548E+03</rscale>
<asrwt>0</asrwt>
<pdfrwt beam="1">  1        2 0.21970423E+00 0.17510548E+03</pdfrwt>
<pdfrwt beam="2">  1       -2 0.33071020E-02 0.17510548E+03</pdfrwt>
<totfact> 0.54082773E+03</totfact>
</mgrwt>
</event>
<event>
 4    1  0.7245070E-001  0.2192554E+03  0.7546771E-02  0.1134439E+00
         -1   -1    0    0    0  501 -0.00000000000E+00  0.00000000000E+00  0.30340956057E+03  0.30340956057E+03  0.00000000000E+00 0.  1.
          1   -1    0    0  502    0  0.00000000000E+00 -0.00000000000E+00 -0.20661086732E+03  0.20661086732E+03  0.00000000000E+00 0. -1.
          6    1    1    2  502    0  0.54212313551E+02  0.12330842127E+03  0.17152891821E+03  0.27837943796E+03  0.17300000000E+03 0.  1.
         -6    1    1    2    0  501 -0.54212313551E+02 -0.12330842127E+03 -0.74730224961E+02  0.23164098994E+03  0.17300000000E+03 0. -1.
<mgrwt>
<rscale>  2 0.21925543E+03</rscale>
<asrwt>0</asrwt>
<pdfrwt beam="1">  1        1 0.31786287E-01 0.21925543E+03</pdfrwt>
<pdfrwt beam="2">  1       -1 0.46678394E-01 0.21925543E+03</pdfrwt>
<totfact> 0.65814805E+02</totfact>
</mgrwt>
</event>
<event>
 4    1  0.7245070E-001  0.1892358E+03  0.7546771E-02  0.1159152E+00
          1   -1    0    0  502    0  0.00000000000E+00  0.00000000000E+00  0.20747674290E+03  0.20747674290E+03  0.00000000000E+00 0.  1.
         -1   -1    0    0    0  501 -0.00000000000E+00 -0.00000000000E+00 -0.24078074716E+03  0.24078074716E+03  0.00000000000E+00 0. -1.
          6    1    1    2  502    0 -0.76652634240E+02 -0.23613312755E+01  0.10261544185E+03  0.21526758030E+03  0.17300000000E+03 0.  1.
         -6    1    1    2    0  501  0.76652634240E+02  0.23613312755E+01 -0.13591944611E+03  0.23298990976E+03  0.17300000000E+03 0. -1.
<mgrwt>
<rscale>  2 0.18923584E+03</rscale>
<asrwt>0</asrwt>
<pdfrwt beam="1">  1        1 0.31919499E-01 0.18923584E+03</pdfrwt>
<pdfrwt beam="2">  1       -1 0.37043192E-01 0.18923584E+03</pdfrwt>
<totfact> 0.98742907E+02</totfact>
</mgrwt>
</event>
<event>
 4    1  0.7245070E-001  0.2208722E+03  0.7546771E-02  0.1133234E+00
          2   -1    0    0  502    0  0.00000000000E+00  0.00000000000E+00  0.10377131775E+04  0.10377131775E+04  0.00000000000E+00 0.  1.
         -2   -1    0    0    0  501 -0.00000000000E+00 -0.00000000000E+00 -0.48194346211E+02  0.48194346211E+02  0.00000000000E+00 0. -1.
          6    1    1    2  502    0 -0.52180176992E+02  0.12701482739E+03  0.57981719592E+03  0.62046153622E+03  0.17300000000E+03 0.  1.
         -6    1    1    2    0  501  0.52180176992E+02 -0.12701482739E+03  0.40970163539E+03  0.46544598751E+03  0.17300000000E+03 0. -1.
<mgrwt>
<rscale>  2 0.22087222E+03</rscale>
<asrwt>0</asrwt>
<pdfrwt beam="1">  1        2 0.15964816E+00 0.22087222E+03</pdfrwt>
<pdfrwt beam="2">  1       -2 0.74145156E-02 0.22087222E+03</pdfrwt>
<totfact> 0.26422717E+03</totfact>
</mgrwt>
</event>
<event>
 4    1  0.7245070E-001  0.1913851E+03  0.7546771E-02  0.1157218E+00
         -1   -1    0    0    0  501 -0.00000000000E+00  0.00000000000E+00  0.36052992559E+02  0.36052992559E+02  0.00000000000E+00 0.  1.
          1   -1    0    0  502    0  0.00000000000E+00 -0.00000000000E+00 -0.11875234706E+04  0.11875234706E+04  0.00000000000E+00 0. -1.
          6    1    1    2  502    0  0.51496723067E+02 -0.63618699870E+02 -0.80827519439E+03  0.83062448876E+03  0.17300000000E+03 0. -1.
         -6    1    1    2    0  501 -0.51496723067E+02  0.63618699870E+02 -0.34319528361E+03  0.39295197435E+03  0.17300000000E+03 0.  1.
<mgrwt>
<rscale>  2 0.19138509E+03</rscale>
<asrwt>0</asrwt>
<pdfrwt beam="1">  1        1 0.18269590E+00 0.19138509E+03</pdfrwt>
<pdfrwt beam="2">  1       -1 0.55466147E-02 0.19138509E+03</pdfrwt>
<totfact> 0.17572434E+03</totfact>
</mgrwt>
</event>
<event>
 4    1  0.7245070E-001  0.1809617E+03  0.7546771E-02  0.1166876E+00
          2   -1    0    0  502    0  0.00000000000E+00  0.00000000000E+00  0.17564229227E+04  0.17564229227E+04  0.00000000000E+00 0.  1.
         -2   -1    0    0    0  501 -0.00000000000E+00 -0.00000000000E+00 -0.19129267789E+02  0.19129267789E+02  0.00000000000E+00 0. -1.
          6    1    1    2  502    0 -0.49108788060E+01  0.52858633635E+02  0.72728168554E+03  0.74945700477E+03  0.17300000000E+03 0. -1.
         -6    1    1    2    0  501  0.49108788060E+01 -0.52858633635E+02  0.10100119694E+04  0.10260951857E+04  0.17300000000E+03 0.  1.
<mgrwt>
<rscale>  2 0.18096174E+03</rscale>
<asrwt>0</asrwt>
<pdfrwt beam="1">  1        2 0.27021879E+00 0.18096174E+03</pdfrwt>
<pdfrwt beam="2">  1       -2 0.29429656E-02 0.18096174E+03</pdfrwt>
<totfact> 0.43316927E+03</totfact>
</mgrwt>
</event>
<event>
 4    1  0.7245070E-001  0.2549520E+03  0.7546771E-02  0.1110215E+00
         -1   -1    0    0    0  501 -0.00000000000E+00  0.00000000000E+00  0.57426252874E+02  0.57426252874E+02  0.00000000000E+00 0.  1.
          1   -1    0    0  502    0  0.00000000000E+00 -0.00000000000E+00 -0.11885588167E+04  0.11885588167E+04  0.00000000000E+00 0. -1.
          6    1    1    2  502    0  0.92527495373E+02  0.16281949217E+03 -0.70159262345E+03  0.74648022996E+03  0.17300000000E+03 0.  1.
         -6    1    1    2    0  501 -0.92527495373E+02 -0.16281949217E+03 -0.42953994041E+03  0.49950483966E+03  0.17300000000E+03 0. -1.
<mgrwt>
<rscale>  2 0.25495200E+03</rscale>
<asrwt>0</asrwt>
<pdfrwt beam="1">  1        1 0.18285520E+00 0.25495200E+03</pdfrwt>
<pdfrwt beam="2">  1       -1 0.88348084E-02 0.25495200E+03</pdfrwt>
<totfact> 0.86398502E+02</totfact>
</mgrwt>
</event>
<event>
 4    1  0.7245070E-001  0.1737787E+03  0.7546771E-02  0.1173964E+00
         -2   -1    0    0    0  501 -0.00000000000E+00  0.00000000000E+00  0.12206769103E+02  0.12206769103E+02  0.00000000000E+00 0. -1.
          2   -1    0    0  502    0  0.00000000000E+00 -0.00000000000E+00 -0.25639715185E+04  0.25639715185E+04  0.00000000000E+00 0.  1.
          6    1    1    2  502    0  0.14751917973E+02 -0.72406310372E+01 -0.15172287993E+04  0.15271484129E+04  0.17300000000E+03 0.  1.
         -6    1    1    2    0  501 -0.14751917973E+02  0.72406310372E+01 -0.10345359501E+04  0.10490298747E+04  0.17300000000E+03 0.  1.
<mgrwt>
<rscale>  2 0.17377873E+03</rscale>
<asrwt>0</asrwt>
<pdfrwt beam="1">  1        2 0.39445735E+00 0.17377873E+03</pdfrwt>
<pdfrwt beam="2">  1       -2 0.18779636E-02 0.17377873E+03</pdfrwt>
<totfact> 0.31571344E+03</totfact>
</mgrwt>
</event>
<event>
 4    1  0.7245070E-001  0.2451059E+03  0.7546771E-02  0.1116437E+00
          1   -1    0    0  502    0  0.00000000000E+00  0.00000000000E+00  0.78245511639E+03  0.78245511639E+03  0.00000000000E+00 0. -1.
         -1   -1    0    0    0  501 -0.00000000000E+00 -0.00000000000E+00 -0.97585229421E+02  0.97585229421E+02  0.00000000000E+00 0.  1.
          6    1    1    2  502    0 -0.25262827952E+02  0.17178385802E+03  0.54560831680E+03  0.59813488421E+03  0.17300000000E+03 0. -1.
         -6    1    1    2    0  501  0.25262827952E+02 -0.17178385802E+03  0.13926157017E+03  0.28190546160E+03  0.17300000000E+03 0.  1.
<mgrwt>
<rscale>  2 0.24510590E+03</rscale>
<asrwt>0</asrwt>
<pdfrwt beam="1">  1        1 0.12037771E+00 0.24510590E+03</pdfrwt>
<pdfrwt beam="2">  1       -1 0.15013113E-01 0.24510590E+03</pdfrwt>
<totfact> 0.76839149E+02</totfact>
</mgrwt>
</event>
<event>
 4    1  0.7245070E-001  0.1920316E+03  0.7546771E-02  0.1156642E+00
          2   -1    0    0  502    0  0.00000000000E+00  0.00000000000E+00  0.15298477970E+04  0.15298477970E+04  0.00000000000E+00 0. -1.
         -2   -1    0    0    0  501 -0.00000000000E+00 -0.00000000000E+00 -0.25115013804E+02  0.25115013804E+02  0.00000000000E+00 0.  1.
          6    1    1    2  502    0  0.24520161699E+02 -0.79661172306E+02  0.59640933387E+03  0.62656223493E+03  0.17300000000E+03 0. -1.
         -6    1    1    2    0  501 -0.24520161699E+02  0.79661172306E+02  0.90832344927E+03  0.92840057583E+03  0.17300000000E+03 0. -1.
<mgrwt>
<rscale>  2 0.19203161E+03</rscale>
<asrwt>0</asrwt>
<pdfrwt beam="1">  1        2 0.23536113E+00 0.19203161E+03</pdfrwt>
<pdfrwt beam="2">  1       -2 0.38638495E-02 0.19203161E+03</pdfrwt>
<totfact> 0.37949305E+03</totfact>
</mgrwt>
</event>
<event>
 4    1  0.7245070E-001  0.2087075E+03  0.7546771E-02  0.1142594E+00
         -1   -1    0    0    0  501 -0.00000000000E+00  0.00000000000E+00  0.18644704608E+03  0.18644704608E+03  0.00000000000E+00 0.  1.
          1   -1    0    0  502    0  0.00000000000E+00 -0.00000000000E+00 -0.25566778821E+03  0.25566778821E+03  0.00000000000E+00 0. -1.
          6    1    1    2  502    0 -0.11313362985E+03 -0.28820170066E+02 -0.99517667227E+02  0.23121977964E+03  0.17300000000E+03 0.  1.
         -6    1    1    2    0  501  0.11313362985E+03  0.28820170066E+02  0.30296925095E+02  0.21089505465E+03  0.17300000000E+03 0. -1.
<mgrwt>
<rscale>  2 0.20870750E+03</rscale>
<asrwt>0</asrwt>
<pdfrwt beam="1">  1        1 0.39333506E-01 0.20870750E+03</pdfrwt>
<pdfrwt beam="2">  1       -1 0.28684161E-01 0.20870750E+03</pdfrwt>
<totfact> 0.11803302E+03</totfact>
</mgrwt>
</event>
<event>
 4    1  0.7245070E-001  0.5538132E+03  0.7546771E-02  0.1000615E+00
         -3   -1    0    0    0  501 -0.00000000000E+00  0.00000000000E+00  0.62916516401E+03  0.62916516401E+03  0.00000000000E+00 0. -1.
          3   -1    0    0  502    0  0.00000000000E+00 -0.00000000000E+00 -0.60880613495E+03  0.60880613495E+03  0.00000000000E+00 0.  1.
          6    1    1    2  502    0 -0.47441527941E+03 -0.22739876184E+03 -0.26613770714E+03  0.61444148085E+03  0.17300000000E+03 0.  1.
         -6    1    1    2    0  501  0.47441527941E+03  0.22739876184E+03  0.28649673619E+03  0.62352981811E+03  0.17300000000E+03 0. -1.
<mgrwt>
<rscale>  2 0.55381319E+03</rscale>
<asrwt>0</asrwt>
<pdfrwt beam="1">  1        3 0.93662483E-01 0.55381319E+03</pdfrwt>
<pdfrwt beam="2">  1       -3 0.96794640E-01 0.55381319E+03</pdfrwt>
<totfact> 0.25084655E+00</totfact>
</mgrwt>
</event>
<event>
 4    1  0.7245070E-001  0.2146225E+03  0.7546771E-02  0.1137957E+00
         -2   -1    0    0    0  501 -0.00000000000E+00  0.00000000000E+00  0.63542959760E+02  0.63542959760E+02  0.00000000000E+00 0. -1.
          2   -1    0    0  502    0  0.00000000000E+00 -0.00000000000E+00 -0.88295233518E+03  0.88295233518E+03  0.00000000000E+00 0.  1.
          6    1    1    2  502    0 -0.54177259298E+02 -0.11488538847E+03 -0.20948411710E+03  0.29991069208E+03  0.17300000000E+03 0. -1.
         -6    1    1    2    0  501  0.54177259298E+02  0.11488538847E+03 -0.60992525832E+03  0.64658460285E+03  0.17300000000E+03 0.  1.
<mgrwt>
<rscale>  2 0.21462252E+03</rscale>
<asrwt>0</asrwt>
<pdfrwt beam="1">  1        2 0.13583883E+00 0.21462252E+03</pdfrwt>
<pdfrwt beam="2">  1       -2 0.97758394E-02 0.21462252E+03</pdfrwt>
<totfact> 0.21368784E+03</totfact>
</mgrwt>
</event>
<event>
 4    1  0.7245070E-001  0.1731862E+03  0.7546771E-02  0.1174565E+00
         -2   -1    0    0    0  501 -0.00000000000E+00  0.00000000000E+00  0.24195634409E+03  0.24195634409E+03  0.00000000000E+00 0.  1.
          2   -1    0    0  502    0  0.00000000000E+00 -0.00000000000E+00 -0.19872997753E+03  0.19872997753E+03  0.00000000000E+00 0. -1.
          6    1    1    2  502    0  0.14027663522E+01  0.79062739313E+01 -0.11353950374E+03  0.20708620387E+03  0.17300000000E+03 0. -1.
         -6    1    1    2    0  501 -0.14027663522E+01 -0.79062739313E+01  0.15676587030E+03  0.23360011775E+03  0.17300000000E+03 0.  1.
<mgrwt>
<rscale>  2 0.17318625E+03</rscale>
<asrwt>0</asrwt>
<pdfrwt beam="1">  1        2 0.30573843E-01 0.17318625E+03</pdfrwt>
<pdfrwt beam="2">  1       -2 0.37224053E-01 0.17318625E+03</pdfrwt>
<totfact> 0.11627236E+03</totfact>
</mgrwt>
</event>
<event>
 4    1  0.7245070E-001  0.2034991E+03  0.7546771E-02  0.1146820E+00
          2   -1    0    0  502    0  0.00000000000E+00  0.00000000000E+00  0.31886437624E+04  0.31886437624E+04  0.00000000000E+00 0. -1.
         -2   -1    0    0    0  501 -0.00000000000E+00 -0.00000000000E+00 -0.20316337852E+02  0.20316337852E+02  0.00000000000E+00 0.  1.
          6    1    1    2  502    0  0.91571231906E+02  0.55655876925E+02  0.62047860762E+03  0.65299737339E+03  0.17300000000E+03 0.  1.
         -6    1    1    2    0  501 -0.91571231906E+02 -0.55655876925E+02  0.25478488169E+04  0.25559627269E+04  0.17300000000E+03 0. -1.
<mgrwt>
<rscale>  2 0.20349906E+03</rscale>
<asrwt>0</asrwt>
<pdfrwt beam="1">  1        2 0.49056018E+00 0.20349906E+03</pdfrwt>
<pdfrwt beam="2">  1       -2 0.31255930E-02 0.20349906E+03</pdfrwt>
<totfact> 0.64973415E+02</totfact>
</mgrwt>
</event>
<event>
 4    1  0.7245070E-001  0.1750990E+03  0.7546771E-02  0.1172632E+00
         -2   -1    0    0    0  501 -0.00000000000E+00  0.00000000000E+00  0.36242595933E+02  0.36242595933E+02  0.00000000000E+00 0. -1.
          2   -1    0    0  502    0  0.00000000000E+00 -0.00000000000E+00 -0.84690509506E+03  0.84690509506E+03  0.00000000000E+00 0.  1.
          6    1    1    2  502    0 -0.21231289295E+02  0.16730355230E+02 -0.42010685821E+03  0.45513673192E+03  0.17300000000E+03 0.  1.
         -6    1    1    2    0  501  0.21231289295E+02 -0.16730355230E+02 -0.39055564092E+03  0.42801095907E+03  0.17300000000E+03 0. -1.
<mgrwt>
<rscale>  2 0.17509904E+03</rscale>
<asrwt>0</asrwt>
<pdfrwt beam="1">  1        2 0.13029309E+00 0.17509904E+03</pdfrwt>
<pdfrwt beam="2">  1       -2 0.55757843E-02 0.17509904E+03</pdfrwt>
<totfact> 0.53596123E+03</totfact>
</mgrwt>
</event>
<event>
 4    1  0.7245070E-001  0.2004842E+03  0.7546771E-02  0.1149331E+00
         -1   -1    0    0    0  501 -0.00000000000E+00  0.00000000000E+00  0.10982267494E+03  0.10982267494E+03  0.00000000000E+00 0.  1.
          1   -1    0    0  502    0  0.00000000000E+00 -0.00000000000E+00 -0.36614659680E+03  0.36614659680E+03  0.00000000000E+00 0. -1.
          6    1    1    2  502    0 -0.96602280890E+02 -0.30543644660E+02 -0.13309591103E+03  0.24064171799E+03  0.17300000000E+03 0. -1.
         -6    1    1    2    0  501  0.96602280890E+02  0.30543644660E+02 -0.12322801083E+03  0.23532755375E+03  0.17300000000E+03 0.  1.
<mgrwt>
<rscale>  2 0.20048420E+03</rscale>
<asrwt>0</asrwt>
<pdfrwt beam="1">  1        1 0.56330246E-01 0.20048420E+03</pdfrwt>
<pdfrwt beam="2">  1       -1 0.16895796E-01 0.20048420E+03</pdfrwt>
<totfact> 0.17882289E+03</totfact>
</mgrwt>
</event>
<event>
 4    1  0.7245070E-001  0.1896235E+03  0.7546771E-02  0.1158801E+00
          2   -1    0    0  502    0  0.00000000000E+00  0.00000000000E+00  0.24427470092E+04  0.24427470092E+04  0.00000000000E+00 0.  1.
         -2   -1    0    0    0  501 -0.00000000000E+00 -0.00000000000E+00 -0.21300316149E+02  0.21300316149E+02  0.00000000000E+00 0. -1.
          6    1    1    2  502    0  0.63858244666E+02 -0.44161021605E+02  0.18955042327E+04  0.19049654504E+04  0.17300000000E+03 0.  1.
         -6    1    1    2    0  501 -0.63858244666E+02  0.44161021605E+02  0.52594246044E+03  0.55908187498E+03  0.17300000000E+03 0. -1.
<mgrwt>
<rscale>  2 0.18962350E+03</rscale>
<asrwt>0</asrwt>
<pdfrwt beam="1">  1        2 0.37580701E+00 0.18962350E+03</pdfrwt>
<pdfrwt beam="2">  1       -2 0.32769736E-02 0.18962350E+03</pdfrwt>
<totfact> 0.16151313E+03</totfact>
</mgrwt>
</event>
<event>
 4    1  0.7245070E-001  0.5860484E+03  0.7546771E-02  0.9934782E-01
          2   -1    0    0  502    0  0.00000000000E+00  0.00000000000E+00  0.86693476902E+03  0.86693476902E+03  0.00000000000E+00 0. -1.
         -2   -1    0    0    0  501 -0.00000000000E+00 -0.00000000000E+00 -0.53154661812E+03  0.53154661812E+03  0.00000000000E+00 0.  1.
          6    1    1    2  502    0 -0.55834858053E+03 -0.42077688358E+02 -0.18518789549E+03  0.61461144301E+03  0.17300000000E+03 0.  1.
         -6    1    1    2    0  501  0.55834858053E+03  0.42077688358E+02  0.52057604639E+03  0.78386994413E+03  0.17300000000E+03 0. -1.
<mgrwt>
<rscale>  2 0.58604835E+03</rscale>
<asrwt>0</asrwt>
<pdfrwt beam="1">  1        2 0.13337458E+00 0.58604835E+03</pdfrwt>
<pdfrwt beam="2">  1       -2 0.81776403E-01 0.58604835E+03</pdfrwt>
<totfact> 0.41877892E+01</totfact>
</mgrwt>
</event>
<event>
 4    1  0.7245070E-001  0.3411003E+03  0.7546771E-02  0.1066328E+00
          2   -1    0    0  502    0  0.00000000000E+00  0.00000000000E+00  0.54501493739E+03  0.54501493739E+03  0.00000000000E+00 0.  1.
         -2   -1    0    0    0  501 -0.00000000000E+00 -0.00000000000E+00 -0.24251690869E+03  0.24251690869E+03  0.00000000000E+00 0. -1.
          6    1    1    2  502    0 -0.25446838349E+03  0.14719467711E+03  0.14995656388E+02  0.34142978909E+03  0.17300000000E+03 0. -1.
         -6    1    1    2    0  501  0.25446838349E+03 -0.14719467711E+03  0.28750237231E+03  0.44610205699E+03  0.17300000000E+03 0. -1.
<mgrwt>
<rscale>  2 0.34110032E+03</rscale>
<asrwt>0</asrwt>
<pdfrwt beam="1">  1        2 0.83848451E-01 0.34110032E+03</pdfrwt>
<pdfrwt beam="2">  1       -2 0.37310294E-01 0.34110032E+03</pdfrwt>
<totfact> 0.38520222E+02</totfact>
</mgrwt>
</event>
<event>
 4    1  0.7245070E-001  0.2062881E+03  0.7546771E-02  0.1144540E+00
         -2   -1    0    0    0  501 -0.00000000000E+00  0.00000000000E+00  0.15949017311E+02  0.15949017311E+02  0.00000000000E+00 0.  1.
          2   -1    0    0  502    0  0.00000000000E+00 -0.00000000000E+00 -0.27417316242E+04  0.27417316242E+04  0.00000000000E+00 0. -1.
          6    1    1    2  502    0  0.54587683114E+02  0.98213939525E+02 -0.11370475966E+04  0.11556089434E+04  0.17300000000E+03 0.  1.
         -6    1    1    2    0  501 -0.54587683114E+02 -0.98213939525E+02 -0.15887350103E+04  0.16020716981E+04  0.17300000000E+03 0. -1.
<mgrwt>
<rscale>  2 0.20628813E+03</rscale>
<asrwt>0</asrwt>
<pdfrwt beam="1">  1        2 0.42180456E+00 0.20628813E+03</pdfrwt>
<pdfrwt beam="2">  1       -2 0.24536967E-02 0.20628813E+03</pdfrwt>
<totfact> 0.16948504E+03</totfact>
</mgrwt>
</event>
<event>
 4    1  0.7245070E-001  0.1927440E+03  0.7546771E-02  0.1156009E+00
          1   -1    0    0  502    0  0.00000000000E+00  0.00000000000E+00  0.55110621383E+02  0.55110621383E+02  0.00000000000E+00 0. -1.
         -1   -1    0    0    0  501 -0.00000000000E+00 -0.00000000000E+00 -0.67411234127E+03  0.67411234127E+03  0.00000000000E+00 0.  1.
          6    1    1    2  502    0  0.42605529308E+02  0.73525589500E+02 -0.30815448391E+03  0.36346860854E+03  0.17300000000E+03 0.  1.
         -6    1    1    2    0  501 -0.42605529308E+02 -0.73525589500E+02 -0.31084723598E+03  0.36575435412E+03  0.17300000000E+03 0. -1.
<mgrwt>
<rscale>  2 0.19274398E+03</rscale>
<asrwt>0</asrwt>
<pdfrwt beam="1">  1        1 0.84785575E-02 0.19274398E+03</pdfrwt>
<pdfrwt beam="2">  1       -1 0.10370959E+00 0.19274398E+03</pdfrwt>
<totfact> 0.74260786E+02</totfact>
</mgrwt>
</event>
<event>
 4    1  0.7245070E-001  0.2567648E+03  0.7546771E-02  0.1109103E+00
          1   -1    0    0  502    0  0.00000000000E+00  0.00000000000E+00  0.35127369551E+03  0.35127369551E+03  0.00000000000E+00 0.  1.
         -1   -1    0    0    0  501 -0.00000000000E+00 -0.00000000000E+00 -0.49352911320E+03  0.49352911320E+03  0.00000000000E+00 0. -1.
          6    1    1    2  502    0 -0.17217048765E+03 -0.79727484640E+02 -0.40364968410E+03  0.47839441479E+03  0.17300000000E+03 0. -1.
         -6    1    1    2    0  501  0.17217048765E+03  0.79727484640E+02  0.26139426641E+03  0.36640839392E+03  0.17300000000E+03 0.  1.
<mgrwt>
<rscale>  2 0.25676477E+03</rscale>
<asrwt>0</asrwt>
<pdfrwt beam="1">  1        1 0.54042107E-01 0.25676477E+03</pdfrwt>
<pdfrwt beam="2">  1       -1 0.75927556E-01 0.25676477E+03</pdfrwt>
<totfact> 0.13180097E+02</totfact>
</mgrwt>
</event>
<event>
 4    1  0.7245070E-001  0.1730469E+03  0.7546771E-02  0.1174707E+00
          2   -1    0    0  502    0  0.00000000000E+00  0.00000000000E+00  0.78382801487E+03  0.78382801487E+03  0.00000000000E+00 0.  1.
         -2   -1    0    0    0  501 -0.00000000000E+00 -0.00000000000E+00 -0.48886385406E+02  0.48886385406E+02  0.00000000000E+00 0. -1.
          6    1    1    2  502    0 -0.21470072316E+01 -0.34063825921E+01  0.17284063249E+03  0.24457942948E+03  0.17300000000E+03 0. -1.
         -6    1    1    2    0  501  0.21470072316E+01  0.34063825921E+01  0.56210099697E+03  0.58813497080E+03  0.17300000000E+03 0.  1.
<mgrwt>
<rscale>  2 0.17304685E+03</rscale>
<asrwt>0</asrwt>
<pdfrwt beam="1">  1        2 0.12058892E+00 0.17304685E+03</pdfrwt>
<pdfrwt beam="2">  1       -2 0.75209829E-02 0.17304685E+03</pdfrwt>
<totfact> 0.37351882E+03</totfact>
</mgrwt>
</event>
<event>
 4    1  0.7245070E-001  0.2048141E+03  0.7546771E-02  0.1145740E+00
         -2   -1    0    0    0  501 -0.00000000000E+00  0.00000000000E+00  0.41113266233E+02  0.41113266233E+02  0.00000000000E+00 0. -1.
          2   -1    0    0  502    0  0.00000000000E+00 -0.00000000000E+00 -0.10443951041E+04  0.10443951041E+04  0.00000000000E+00 0.  1.
          6    1    1    2  502    0  0.99431858735E+02  0.46185652876E+02 -0.41924072192E+03  0.46659574792E+03  0.17300000000E+03 0. -1.
         -6    1    1    2    0  501 -0.99431858735E+02 -0.46185652876E+02 -0.58404111595E+03  0.61891262241E+03  0.17300000000E+03 0.  1.
<mgrwt>
<rscale>  2 0.20481408E+03</rscale>
<asrwt>0</asrwt>
<pdfrwt beam="1">  1        2 0.16067617E+00 0.20481408E+03</pdfrwt>
<pdfrwt beam="2">  1       -2 0.63251179E-02 0.20481408E+03</pdfrwt>
<totfact> 0.33425947E+03</totfact>
</mgrwt>
</event>
<event>
 4    1  0.7245070E-001  0.2109108E+03  0.7546771E-02  0.1140847E+00
          2   -1    0    0  502    0  0.00000000000E+00  0.00000000000E+00  0.16174094246E+04  0.16174094246E+04  0.00000000000E+00 0. -1.
         -2   -1    0    0    0  501 -0.00000000000E+00 -0.00000000000E+00 -0.27583612684E+02  0.27583612684E+02  0.00000000000E+00 0.  1.
          6    1    1    2  502    0 -0.11464607377E+03  0.37558344303E+02  0.83942137787E+03  0.86551233445E+03  0.17300000000E+03 0.  1.
         -6    1    1    2    0  501  0.11464607377E+03 -0.37558344303E+02  0.75040443407E+03  0.77948070286E+03  0.17300000000E+03 0.  1.
<mgrwt>
<rscale>  2 0.21091077E+03</rscale>
<asrwt>0</asrwt>
<pdfrwt beam="1">  1        2 0.24883214E+00 0.21091077E+03</pdfrwt>
<pdfrwt beam="2">  1       -2 0.42436340E-02 0.21091077E+03</pdfrwt>
<totfact> 0.29671088E+03</totfact>
</mgrwt>
</event>
<event>
 4    1  0.7245070E-001  0.1731717E+03  0.7546771E-02  0.1174580E+00
          2   -1    0    0  502    0  0.00000000000E+00  0.00000000000E+00  0.21612746644E+04  0.21612746644E+04  0.00000000000E+00 0. -1.
         -2   -1    0    0    0  501 -0.00000000000E+00 -0.00000000000E+00 -0.18258674857E+02  0.18258674857E+02  0.00000000000E+00 0.  1.
          6    1    1    2  502    0 -0.66719382003E+01  0.38638028779E+01  0.53755786994E+03  0.56476269996E+03  0.17300000000E+03 0.  1.
         -6    1    1    2    0  501  0.66719382003E+01 -0.38638028779E+01  0.16054581196E+04  0.16147706393E+04  0.17300000000E+03 0. -1.
<mgrwt>
<rscale>  2 0.17317172E+03</rscale>
<asrwt>0</asrwt>
<pdfrwt beam="1">  1        2 0.33250359E+00 0.17317172E+03</pdfrwt>
<pdfrwt beam="2">  1       -2 0.28090286E-02 0.17317172E+03</pdfrwt>
<totfact> 0.28631254E+03</totfact>
</mgrwt>
</event>
<event>
 4    1  0.7245070E-001  0.1736543E+03  0.7546771E-02  0.1174090E+00
         -2   -1    0    0    0  501 -0.00000000000E+00  0.00000000000E+00  0.79257604998E+02  0.79257604998E+02  0.00000000000E+00 0. -1.
          2   -1    0    0  502    0  0.00000000000E+00 -0.00000000000E+00 -0.45311759532E+03  0.45311759532E+03  0.00000000000E+00 0.  1.
          6    1    1    2  502    0  0.11730349971E+02 -0.94454166331E+01 -0.29350797459E+03  0.34103188730E+03  0.17300000000E+03 0.  1.
         -6    1    1    2    0  501 -0.11730349971E+02  0.94454166331E+01 -0.80352015735E+02  0.19134331302E+03  0.17300000000E+03 0. -1.
<mgrwt>
<rscale>  2 0.17365430E+03</rscale>
<asrwt>0</asrwt>
<pdfrwt beam="1">  1        2 0.69710399E-01 0.17365430E+03</pdfrwt>
<pdfrwt beam="2">  1       -2 0.12193478E-01 0.17365430E+03</pdfrwt>
<totfact> 0.32846296E+03</totfact>
</mgrwt>
</event>
<event>
 4    1  0.7245070E-001  0.2058680E+03  0.7546771E-02  0.1144881E+00
          2   -1    0    0  502    0  0.00000000000E+00  0.00000000000E+00  0.86440983774E+03  0.86440983774E+03  0.00000000000E+00 0.  1.
         -2   -1    0    0    0  501 -0.00000000000E+00 -0.00000000000E+00 -0.60218260525E+02  0.60218260525E+02  0.00000000000E+00 0. -1.
          6    1    1    2  502    0  0.14306462296E+02 -0.11067042948E+03  0.60137553135E+03  0.63563680552E+03  0.17300000000E+03 0.  1.
         -6    1    1    2    0  501 -0.14306462296E+02  0.11067042948E+03  0.20281604587E+03  0.28899129275E+03  0.17300000000E+03 0. -1.
<mgrwt>
<rscale>  2 0.20586796E+03</rscale>
<asrwt>0</asrwt>
<pdfrwt beam="1">  1        2 0.13298612E+00 0.20586796E+03</pdfrwt>
<pdfrwt beam="2">  1       -2 0.92643484E-02 0.20586796E+03</pdfrwt>
<totfact> 0.23907207E+03</totfact>
</mgrwt>
</event>
<event>
 4    1  0.7245070E-001  0.1762746E+03  0.7546771E-02  0.1171458E+00
         -2   -1    0    0    0  501 -0.00000000000E+00  0.00000000000E+00  0.29868486383E+02  0.29868486383E+02  0.00000000000E+00 0. -1.
          2   -1    0    0  502    0  0.00000000000E+00 -0.00000000000E+00 -0.14417295238E+04  0.14417295238E+04  0.00000000000E+00 0.  1.
          6    1    1    2  502    0  0.22644833893E+01 -0.33743381548E+02 -0.31768016315E+03  0.36330900036E+03  0.17300000000E+03 0. -1.
         -6    1    1    2    0  501 -0.22644833893E+01  0.33743381548E+02 -0.10941808742E+04  0.11082890098E+04  0.17300000000E+03 0.  1.
<mgrwt>
<rscale>  2 0.17627463E+03</rscale>
<asrwt>0</asrwt>
<pdfrwt beam="1">  1        2 0.22180453E+00 0.17627463E+03</pdfrwt>
<pdfrwt beam="2">  1       -2 0.45951520E-02 0.17627463E+03</pdfrwt>
<totfact> 0.32539276E+03</totfact>
</mgrwt>
</event>
<event>
 4    1  0.7245070E-001  0.2421297E+03  0.7546771E-02  0.1118382E+00
          2   -1    0    0  502    0  0.00000000000E+00  0.00000000000E+00  0.15725820745E+04  0.15725820745E+04  0.00000000000E+00 0. -1.
         -2   -1    0    0    0  501 -0.00000000000E+00 -0.00000000000E+00 -0.37359802405E+02  0.37359802405E+02  0.00000000000E+00 0.  1.
          6    1    1    2  502    0  0.36953743265E+02 -0.16532458840E+03  0.73054689201E+03  0.76962689668E+03  0.17300000000E+03 0.  1.
         -6    1    1    2    0  501 -0.36953743265E+02  0.16532458840E+03  0.80467538007E+03  0.84031498020E+03  0.17300000000E+03 0.  1.
<mgrwt>
<rscale>  2 0.24212971E+03</rscale>
<asrwt>0</asrwt>
<pdfrwt beam="1">  1        2 0.24193565E+00 0.24212971E+03</pdfrwt>
<pdfrwt beam="2">  1       -2 0.57476631E-02 0.24212971E+03</pdfrwt>
<totfact> 0.19753495E+03</totfact>
</mgrwt>
</event>
<event>
 4    1  0.7245070E-001  0.2186307E+03  0.7546771E-02  0.1134908E+00
         -2   -1    0    0    0  501 -0.00000000000E+00  0.00000000000E+00  0.84877076525E+02  0.84877076525E+02  0.00000000000E+00 0.  1.
          2   -1    0    0  502    0  0.00000000000E+00 -0.00000000000E+00 -0.58872991887E+03  0.58872991887E+03  0.00000000000E+00 0. -1.
          6    1    1    2  502    0 -0.11973343269E+03 -0.59449935574E+02 -0.18173538056E+03  0.28430114015E+03  0.17300000000E+03 0.  1.
         -6    1    1    2    0  501  0.11973343269E+03  0.59449935574E+02 -0.32211746179E+03  0.38930585525E+03  0.17300000000E+03 0. -1.
<mgrwt>
<rscale>  2 0.21863072E+03</rscale>
<asrwt>0</asrwt>
<pdfrwt beam="1">  1        2 0.90573831E-01 0.21863072E+03</pdfrwt>
<pdfrwt beam="2">  1       -2 0.13058012E-01 0.21863072E+03</pdfrwt>
<totfact> 0.22077532E+03</totfact>
</mgrwt>
</event>
<event>
 4    1  0.7245070E-001  0.4211261E+03  0.7546771E-02  0.1036700E+00
          1   -1    0    0  502    0  0.00000000000E+00  0.00000000000E+00  0.17635829060E+03  0.17635829060E+03  0.00000000000E+00 0.  1.
         -1   -1    0    0    0  501 -0.00000000000E+00 -0.00000000000E+00 -0.10578473714E+04  0.10578473714E+04  0.00000000000E+00 0. -1.
          6    1    1    2  502    0 -0.51272500875E+02  0.38051190818E+03 -0.57787943625E+03  0.71504672886E+03  0.17300000000E+03 0. -1.
         -6    1    1    2    0  501  0.51272500875E+02 -0.38051190818E+03 -0.30360964459E+03  0.51915893318E+03  0.17300000000E+03 0.  1.
<mgrwt>
<rscale>  2 0.42112609E+03</rscale>
<asrwt>0</asrwt>
<pdfrwt beam="1">  1        1 0.27132044E-01 0.42112609E+03</pdfrwt>
<pdfrwt beam="2">  1       -1 0.16274575E+00 0.42112609E+03</pdfrwt>
<totfact> 0.51458323E+01</totfact>
</mgrwt>
</event>
<event>
 4    1  0.7245070E-001  0.1735949E+03  0.7546771E-02  0.1174150E+00
         -2   -1    0    0    0  501 -0.00000000000E+00  0.00000000000E+00  0.31085869200E+02  0.31085869200E+02  0.00000000000E+00 0.  1.
          2   -1    0    0  502    0  0.00000000000E+00 -0.00000000000E+00 -0.99097015081E+03  0.99097015081E+03  0.00000000000E+00 0. -1.
          6    1    1    2  502    0 -0.14271453933E+02  0.15893056744E+01 -0.40457882375E+03  0.44024904874E+03  0.17300000000E+03 0.  1.
         -6    1    1    2    0  501  0.14271453933E+02 -0.15893056744E+01 -0.55530545786E+03  0.58180697127E+03  0.17300000000E+03 0. -1.
<mgrwt>
<rscale>  2 0.17359493E+03</rscale>
<asrwt>0</asrwt>
<pdfrwt beam="1">  1        2 0.15245694E+00 0.17359493E+03</pdfrwt>
<pdfrwt beam="2">  1       -2 0.47824417E-02 0.17359493E+03</pdfrwt>
<totfact> 0.54820063E+03</totfact>
</mgrwt>
</event>
<event>
 4    1  0.7245070E-001  0.1965917E+03  0.7546771E-02  0.1152647E+00
          1   -1    0    0  502    0  0.00000000000E+00  0.00000000000E+00  0.26201063893E+04  0.26201063893E+04  0.00000000000E+00 0.  1.
         -1   -1    0    0    0  501 -0.00000000000E+00 -0.00000000000E+00 -0.26554300533E+02  0.26554300533E+02  0.00000000000E+00 0. -1.
          6    1    1    2  502    0 -0.71428828791E+02  0.60143235363E+02  0.21790610759E+04  0.21879112090E+04  0.17300000000E+03 0.  1.
         -6    1    1    2    0  501  0.71428828791E+02 -0.60143235363E+02  0.41449101291E+03  0.45874948079E+03  0.17300000000E+03 0. -1.
<mgrwt>
<rscale>  2 0.19659167E+03</rscale>
<asrwt>0</asrwt>
<pdfrwt beam="1">  1        1 0.40309309E+00 0.19659167E+03</pdfrwt>
<pdfrwt beam="2">  1       -1 0.40852791E-02 0.19659167E+03</pdfrwt>
<totfact> 0.31960057E+02</totfact>
</mgrwt>
</event>
<event>
 4    1  0.7245070E-001  0.1764704E+03  0.7546771E-02  0.1171263E+00
         -2   -1    0    0    0  501 -0.00000000000E+00  0.00000000000E+00  0.51447219838E+03  0.51447219838E+03  0.00000000000E+00 0.  1.
          2   -1    0    0  502    0  0.00000000000E+00 -0.00000000000E+00 -0.18909220122E+03  0.18909220122E+03  0.00000000000E+00 0. -1.
          6    1    1    2  502    0  0.34364865991E+02 -0.56457384043E+01 -0.12737212475E+03  0.21763611038E+03  0.17300000000E+03 0. -1.
         -6    1    1    2    0  501 -0.34364865991E+02  0.56457384043E+01  0.45275212190E+03  0.48592828922E+03  0.17300000000E+03 0.  1.
<mgrwt>
<rscale>  2 0.17647045E+03</rscale>
<asrwt>0</asrwt>
<pdfrwt beam="1">  1        2 0.29091108E-01 0.17647045E+03</pdfrwt>
<pdfrwt beam="2">  1       -2 0.79149568E-01 0.17647045E+03</pdfrwt>
<totfact> 0.26645814E+02</totfact>
</mgrwt>
</event>
<event>
 4    1  0.7245070E-001  0.1743621E+03  0.7546771E-02  0.1173374E+00
         -1   -1    0    0    0  501 -0.00000000000E+00  0.00000000000E+00  0.53868673595E+02  0.53868673595E+02  0.00000000000E+00 0.  1.
          1   -1    0    0  502    0  0.00000000000E+00 -0.00000000000E+00 -0.56594829142E+03  0.56594829142E+03  0.00000000000E+00 0. -1.
          6    1    1    2  502    0  0.10247103468E+02 -0.19187163893E+02 -0.23970160745E+03  0.29641020732E+03  0.17300000000E+03 0.  1.
         -6    1    1    2    0  501 -0.10247103468E+02  0.19187163893E+02 -0.27237801037E+03  0.32340675770E+03  0.17300000000E+03 0. -1.
<mgrwt>
<rscale>  2 0.17436212E+03</rscale>
<asrwt>0</asrwt>
<pdfrwt beam="1">  1        1 0.87068966E-01 0.17436212E+03</pdfrwt>
<pdfrwt beam="2">  1       -1 0.82874885E-02 0.17436212E+03</pdfrwt>
<totfact> 0.30609846E+03</totfact>
</mgrwt>
</event>
<event>
 4    1  0.7245070E-001  0.1921484E+03  0.7546771E-02  0.1156538E+00
         -2   -1    0    0    0  501 -0.00000000000E+00  0.00000000000E+00  0.13262140213E+03  0.13262140213E+03  0.00000000000E+00 0. -1.
          2   -1    0    0  502    0  0.00000000000E+00 -0.00000000000E+00 -0.42272244758E+03  0.42272244758E+03  0.00000000000E+00 0.  1.
          6    1    1    2  502    0  0.37649941437E+02 -0.74662488331E+02 -0.30729886041E+03  0.36242736495E+03  0.17300000000E+03 0.  1.
         -6    1    1    2    0  501 -0.37649941437E+02  0.74662488331E+02  0.17197814963E+02  0.19291648476E+03  0.17300000000E+03 0. -1.
<mgrwt>
<rscale>  2 0.19214839E+03</rscale>
<asrwt>0</asrwt>
<pdfrwt beam="1">  1        2 0.65034222E-01 0.19214839E+03</pdfrwt>
<pdfrwt beam="2">  1       -2 0.20403293E-01 0.19214839E+03</pdfrwt>
<totfact> 0.15150727E+03</totfact>
</mgrwt>
</event>
<event>
 4    1  0.7245070E-001  0.2205714E+03  0.7546771E-02  0.1133458E+00
          1   -1    0    0  502    0  0.00000000000E+00  0.00000000000E+00  0.29146643438E+03  0.29146643438E+03  0.00000000000E+00 0. -1.
         -1   -1    0    0    0  501 -0.00000000000E+00 -0.00000000000E+00 -0.20777220918E+03  0.20777220918E+03  0.00000000000E+00 0.  1.
          6    1    1    2  502    0 -0.62025524324E+02  0.12196541335E+03  0.15253229855E+03  0.26817499851E+03  0.17300000000E+03 0. -1.
         -6    1    1    2    0  501  0.62025524324E+02 -0.12196541335E+03 -0.68838073355E+02  0.23106364505E+03  0.17300000000E+03 0.  1.
<mgrwt>
<rscale>  2 0.22057137E+03</rscale>
<asrwt>0</asrwt>
<pdfrwt beam="1">  1        1 0.44840990E-01 0.22057137E+03</pdfrwt>
<pdfrwt beam="2">  1       -1 0.31964955E-01 0.22057137E+03</pdfrwt>
<totfact> 0.83359357E+02</totfact>
</mgrwt>
</event>
<event>
 4    1  0.7245070E-001  0.1802914E+03  0.7546771E-02  0.1167521E+00
          2   -1    0    0  502    0  0.00000000000E+00  0.00000000000E+00  0.35795966643E+03  0.35795966643E+03  0.00000000000E+00 0.  1.
         -2   -1    0    0    0  501 -0.00000000000E+00 -0.00000000000E+00 -0.90850521408E+02  0.90850521408E+02  0.00000000000E+00 0. -1.
          6    1    1    2  502    0  0.33305511023E+02  0.38297776017E+02  0.12860113543E+03  0.22145705847E+03  0.17300000000E+03 0.  1.
         -6    1    1    2    0  501 -0.33305511023E+02 -0.38297776017E+02  0.13850800959E+03  0.22735312937E+03  0.17300000000E+03 0.  1.
<mgrwt>
<rscale>  2 0.18029137E+03</rscale>
<asrwt>0</asrwt>
<pdfrwt beam="1">  1        2 0.55070717E-01 0.18029137E+03</pdfrwt>
<pdfrwt beam="2">  1       -2 0.13977004E-01 0.18029137E+03</pdfrwt>
<totfact> 0.34017329E+03</totfact>
</mgrwt>
</event>
<event>
 4    1  0.7245070E-001  0.2926791E+03  0.7546771E-02  0.1088959E+00
          1   -1    0    0  502    0  0.00000000000E+00  0.00000000000E+00  0.78675242722E+03  0.78675242722E+03  0.00000000000E+00 0.  1.
         -1   -1    0    0    0  501 -0.00000000000E+00 -0.00000000000E+00 -0.12138051936E+03  0.12138051936E+03  0.00000000000E+00 0. -1.
          6    1    1    2  502    0  0.23558662596E+03 -0.15198541688E+02  0.47840661026E+03  0.56083325395E+03  0.17300000000E+03 0.  1.
         -6    1    1    2    0  501 -0.23558662596E+03  0.15198541688E+02  0.18696529760E+03  0.34729969264E+03  0.17300000000E+03 0. -1.
<mgrwt>
<rscale>  2 0.29267910E+03</rscale>
<asrwt>0</asrwt>
<pdfrwt beam="1">  1        1 0.12103883E+00 0.29267910E+03</pdfrwt>
<pdfrwt beam="2">  1       -1 0.18673927E-01 0.29267910E+03</pdfrwt>
<totfact> 0.53526210E+02</totfact>
</mgrwt>
</event>
<event>
 4    1  0.7245070E-001  0.1987611E+03  0.7546771E-02  0.1150788E+00
          2   -1    0    0  502    0  0.00000000000E+00  0.00000000000E+00  0.28155784231E+03  0.28155784231E+03  0.00000000000E+00 0.  1.
         -2   -1    0    0    0  501 -0.00000000000E+00 -0.00000000000E+00 -0.14033359460E+03  0.14033359460E+03  0.00000000000E+00 0. -1.
          6    1    1    2  502    0 -0.94775408277E+02 -0.24384509585E+02  0.68003638277E+02  0.21007255209E+03  0.17300000000E+03 0.  1.
         -6    1    1    2    0  501  0.94775408277E+02  0.24384509585E+02  0.73220609438E+02  0.21181888482E+03  0.17300000000E+03 0.  1.
<mgrwt>
<rscale>  2 0.19876112E+03</rscale>
<asrwt>0</asrwt>
<pdfrwt beam="1">  1        2 0.43316591E-01 0.19876112E+03</pdfrwt>
<pdfrwt beam="2">  1       -2 0.21589784E-01 0.19876112E+03</pdfrwt>
<totfact> 0.21310514E+03</totfact>
</mgrwt>
</event>
<event>
 4    1  0.7245070E-001  0.2175345E+03  0.7546771E-02  0.1135735E+00
         -3   -1    0    0    0  501 -0.00000000000E+00  0.00000000000E+00  0.55929848642E+02  0.55929848642E+02  0.00000000000E+00 0.  1.
          3   -1    0    0  502    0  0.00000000000E+00 -0.00000000000E+00 -0.93745507924E+03  0.93745507924E+03  0.00000000000E+00 0. -1.
          6    1    1    2  502    0  0.71103859717E+01 -0.13168788227E+03 -0.59583009009E+03  0.63429863013E+03  0.17300000000E+03 0. -1.
         -6    1    1    2    0  501 -0.71103859717E+01  0.13168788227E+03 -0.28569514051E+03  0.35908629775E+03  0.17300000000E+03 0.  1.
<mgrwt>
<rscale>  2 0.21753449E+03</rscale>
<asrwt>0</asrwt>
<pdfrwt beam="1">  1        3 0.14422385E+00 0.21753449E+03</pdfrwt>
<pdfrwt beam="2">  1       -3 0.86045929E-02 0.21753449E+03</pdfrwt>
<totfact> 0.88294399E+01</totfact>
</mgrwt>
</event>
<event>
 4    1  0.7245070E-001  0.1977850E+03  0.7546771E-02  0.1151621E+00
         -2   -1    0    0    0  501 -0.00000000000E+00  0.00000000000E+00  0.40903585817E+02  0.40903585817E+02  0.00000000000E+00 0.  1.
          2   -1    0    0  502    0  0.00000000000E+00 -0.00000000000E+00 -0.16707945650E+04  0.16707945650E+04  0.00000000000E+00 0. -1.
          6    1    1    2  502    0  0.52621973607E+02 -0.80130185424E+02 -0.13745924802E+04  0.13887488633E+04  0.17300000000E+03 0. -1.
         -6    1    1    2    0  501 -0.52621973607E+02  0.80130185424E+02 -0.25529849901E+03  0.32294928753E+03  0.17300000000E+03 0.  1.
<mgrwt>
<rscale>  2 0.19778503E+03</rscale>
<asrwt>0</asrwt>
<pdfrwt beam="1">  1        2 0.25704527E+00 0.19778503E+03</pdfrwt>
<pdfrwt beam="2">  1       -2 0.62928605E-02 0.19778503E+03</pdfrwt>
<totfact> 0.15296064E+03</totfact>
</mgrwt>
</event>
<event>
 4    1  0.7245070E-001  0.2365117E+03  0.7546771E-02  0.1122139E+00
          4   -1    0    0  502    0  0.00000000000E+00  0.00000000000E+00  0.23931357969E+03  0.23931357969E+03  0.00000000000E+00 0. -1.
         -4   -1    0    0    0  501 -0.00000000000E+00 -0.00000000000E+00 -0.26337464652E+03  0.26337464652E+03  0.00000000000E+00 0.  1.
          6    1    1    2  502    0 -0.11243871182E+03  0.11561290024E+03  0.72276089325E+02  0.24730879423E+03  0.17300000000E+03 0. -1.
         -6    1    1    2    0  501  0.11243871182E+03 -0.11561290024E+03 -0.96337156153E+02  0.25537943197E+03  0.17300000000E+03 0.  1.
<mgrwt>
<rscale>  2 0.23651175E+03</rscale>
<asrwt>0</asrwt>
<pdfrwt beam="1">  1        4 0.36817474E-01 0.23651175E+03</pdfrwt>
<pdfrwt beam="2">  1       -4 0.40519176E-01 0.23651175E+03</pdfrwt>
<totfact> 0.77028504E+01</totfact>
</mgrwt>
</event>
<event>
 4    1  0.7245070E-001  0.1910648E+03  0.7546771E-02  0.1157504E+00
          1   -1    0    0  502    0  0.00000000000E+00  0.00000000000E+00  0.72617799301E+03  0.72617799301E+03  0.00000000000E+00 0. -1.
         -1   -1    0    0    0  501 -0.00000000000E+00 -0.00000000000E+00 -0.55683208164E+02  0.55683208164E+02  0.00000000000E+00 0.  1.
          6    1    1    2  502    0 -0.80244739901E+02  0.11727451137E+02  0.45712435186E+03  0.49544770103E+03  0.17300000000E+03 0. -1.
         -6    1    1    2    0  501  0.80244739901E+02 -0.11727451137E+02  0.21337043298E+03  0.28641350014E+03  0.17300000000E+03 0. -1.
<mgrwt>
<rscale>  2 0.19106478E+03</rscale>
<asrwt>0</asrwt>
<pdfrwt beam="1">  1        1 0.11171968E+00 0.19106478E+03</pdfrwt>
<pdfrwt beam="2">  1       -1 0.85666479E-02 0.19106478E+03</pdfrwt>
<totfact> 0.20549677E+03</totfact>
</mgrwt>
</event>
<event>
 4    1  0.7245070E-001  0.2565115E+03  0.7546771E-02  0.1109257E+00
         -2   -1    0    0    0  501 -0.00000000000E+00  0.00000000000E+00  0.86292226053E+03  0.86292226053E+03  0.00000000000E+00 0. -1.
          2   -1    0    0  502    0  0.00000000000E+00 -0.00000000000E+00 -0.79075329934E+02  0.79075329934E+02  0.00000000000E+00 0.  1.
          6    1    1    2  502    0 -0.18898784759E+03  0.12358727457E+02  0.30289986256E+03  0.39692124082E+03  0.17300000000E+03 0.  1.
         -6    1    1    2    0  501  0.18898784759E+03 -0.12358727457E+02  0.48094706804E+03  0.54507634964E+03  0.17300000000E+03 0. -1.
<mgrwt>
<rscale>  2 0.25651149E+03</rscale>
<asrwt>0</asrwt>
<pdfrwt beam="1">  1        2 0.12165436E-01 0.25651149E+03</pdfrwt>
<pdfrwt beam="2">  1       -2 0.13275726E+00 0.25651149E+03</pdfrwt>
<totfact> 0.21776942E+02</totfact>
</mgrwt>
</event>
<event>
 4    1  0.7245070E-001  0.1862819E+03  0.7546771E-02  0.1161858E+00
         -2   -1    0    0    0  501 -0.00000000000E+00  0.00000000000E+00  0.22146630863E+03  0.22146630863E+03  0.00000000000E+00 0. -1.
          2   -1    0    0  502    0  0.00000000000E+00 -0.00000000000E+00 -0.15928237551E+03  0.15928237551E+03  0.00000000000E+00 0.  1.
          6    1    1    2  502    0 -0.53301919606E+02 -0.43941262534E+02  0.55392198389E+02  0.19434305964E+03  0.17300000000E+03 0. -1.
         -6    1    1    2    0  501  0.53301919606E+02  0.43941262534E+02  0.67917347285E+01  0.18640562451E+03  0.17300000000E+03 0. -1.
<mgrwt>
<rscale>  2 0.18628185E+03</rscale>
<asrwt>0</asrwt>
<pdfrwt beam="1">  1        2 0.24504981E-01 0.18628185E+03</pdfrwt>
<pdfrwt beam="2">  1       -2 0.34071740E-01 0.18628185E+03</pdfrwt>
<totfact> 0.17534098E+03</totfact>
</mgrwt>
</event>
<event>
 4    1  0.7245070E-001  0.3356727E+03  0.7546771E-02  0.1068654E+00
          1   -1    0    0  502    0  0.00000000000E+00  0.00000000000E+00  0.82202514547E+03  0.82202514547E+03  0.00000000000E+00 0.  1.
         -1   -1    0    0    0  501 -0.00000000000E+00 -0.00000000000E+00 -0.15778544990E+03  0.15778544990E+03  0.00000000000E+00 0. -1.
          6    1    1    2  502    0 -0.56458783937E+02  0.28206310094E+03  0.50962482503E+03  0.61024064883E+03  0.17300000000E+03 0.  1.
         -6    1    1    2    0  501  0.56458783937E+02 -0.28206310094E+03  0.15461487054E+03  0.36956994654E+03  0.17300000000E+03 0.  1.
<mgrwt>
<rscale>  2 0.33567274E+03</rscale>
<asrwt>0</asrwt>
<pdfrwt beam="1">  1        1 0.12646540E+00 0.33567274E+03</pdfrwt>
<pdfrwt beam="2">  1       -1 0.24274685E-01 0.33567274E+03</pdfrwt>
<totfact> 0.32334731E+02</totfact>
</mgrwt>
</event>
<event>
 4    1  0.7245070E-001  0.1735696E+03  0.7546771E-02  0.1174176E+00
         -2   -1    0    0    0  501 -0.00000000000E+00  0.00000000000E+00  0.25345496584E+03  0.25345496584E+03  0.00000000000E+00 0. -1.
          2   -1    0    0  502    0  0.00000000000E+00 -0.00000000000E+00 -0.14453170179E+03  0.14453170179E+03  0.00000000000E+00 0.  1.
          6    1    1    2  502    0 -0.13994223203E+02  0.12551278648E+01  0.13832244240E+03  0.22194483932E+03  0.17300000000E+03 0. -1.
         -6    1    1    2    0  501  0.13994223203E+02 -0.12551278648E+01 -0.29399178353E+02  0.17604182832E+03  0.17300000000E+03 0.  1.
<mgrwt>
<rscale>  2 0.17356962E+03</rscale>
<asrwt>0</asrwt>
<pdfrwt beam="1">  1        2 0.22235646E-01 0.17356962E+03</pdfrwt>
<pdfrwt beam="2">  1       -2 0.38993072E-01 0.17356962E+03</pdfrwt>
<totfact> 0.15153680E+03</totfact>
</mgrwt>
</event>
<event>
 4    1  0.7245070E-001  0.2120671E+03  0.7546771E-02  0.1139939E+00
         -2   -1    0    0    0  501 -0.00000000000E+00  0.00000000000E+00  0.20538539760E+03  0.20538539760E+03  0.00000000000E+00 0. -1.
          2   -1    0    0  502    0  0.00000000000E+00 -0.00000000000E+00 -0.82051524477E+03  0.82051524477E+03  0.00000000000E+00 0.  1.
          6    1    1    2  502    0  0.51523268687E+01  0.12254343028E+03  0.13164034080E+03  0.24960292086E+03  0.17300000000E+03 0. -1.
         -6    1    1    2    0  501 -0.51523268687E+01 -0.12254343028E+03 -0.74677018797E+03  0.77629772151E+03  0.17300000000E+03 0.  1.
<mgrwt>
<rscale>  2 0.21206706E+03</rscale>
<asrwt>0</asrwt>
<pdfrwt beam="1">  1        2 0.12623311E+00 0.21206706E+03</pdfrwt>
<pdfrwt beam="2">  1       -2 0.31597754E-01 0.21206706E+03</pdfrwt>
<totfact> 0.32370441E+02</totfact>
</mgrwt>
</event>
<event>
 4    1  0.7245070E-001  0.1900172E+03  0.7546771E-02  0.1158446E+00
         -2   -1    0    0    0  501 -0.00000000000E+00  0.00000000000E+00  0.15504115998E+04  0.15504115998E+04  0.00000000000E+00 0. -1.
          2   -1    0    0  502    0  0.00000000000E+00 -0.00000000000E+00 -0.27232418800E+02  0.27232418800E+02  0.00000000000E+00 0.  1.
          6    1    1    2  502    0 -0.44466676345E+02 -0.64809306336E+02  0.46139142966E+03  0.49898755782E+03  0.17300000000E+03 0.  1.
         -6    1    1    2    0  501  0.44466676345E+02  0.64809306336E+02  0.10617877513E+04  0.10786564608E+04  0.17300000000E+03 0. -1.
<mgrwt>
<rscale>  2 0.19001719E+03</rscale>
<asrwt>0</asrwt>
<pdfrwt beam="1">  1        2 0.41896041E-02 0.19001719E+03</pdfrwt>
<pdfrwt beam="2">  1       -2 0.23852479E+00 0.19001719E+03</pdfrwt>
<totfact> 0.16690963E+02</totfact>
</mgrwt>
</event>
<event>
 4    1  0.7245070E-001  0.2494254E+03  0.7546771E-02  0.1113668E+00
         -1   -1    0    0    0  501 -0.00000000000E+00  0.00000000000E+00  0.73271479864E+03  0.73271479864E+03  0.00000000000E+00 0. -1.
          1   -1    0    0  502    0  0.00000000000E+00 -0.00000000000E+00 -0.89277604460E+02  0.89277604460E+02  0.00000000000E+00 0.  1.
          6    1    1    2  502    0 -0.63290195747E+02  0.16816178604E+03  0.23078825354E+03  0.33981797059E+03  0.17300000000E+03 0.  1.
         -6    1    1    2    0  501  0.63290195747E+02 -0.16816178604E+03  0.41264894064E+03  0.48217443252E+03  0.17300000000E+03 0. -1.
<mgrwt>
<rscale>  2 0.24942541E+03</rscale>
<asrwt>0</asrwt>
<pdfrwt beam="1">  1        1 0.13735017E-01 0.24942541E+03</pdfrwt>
<pdfrwt beam="2">  1       -1 0.11272535E+00 0.24942541E+03</pdfrwt>
<totfact> 0.32208725E+02</totfact>
</mgrwt>
</event>
<event>
 4    1  0.7245070E-001  0.1882307E+03  0.7546771E-02  0.1160067E+00
          1   -1    0    0  502    0  0.00000000000E+00  0.00000000000E+00  0.13790209490E+04  0.13790209490E+04  0.00000000000E+00 0.  1.
         -1   -1    0    0    0  501 -0.00000000000E+00 -0.00000000000E+00 -0.25737089858E+02  0.25737089858E+02  0.00000000000E+00 0. -1.
          6    1    1    2  502    0 -0.70329373014E+02  0.23570951982E+02  0.64748139517E+03  0.67428700682E+03  0.17300000000E+03 0. -1.
         -6    1    1    2    0  501  0.70329373014E+02 -0.23570951982E+02  0.70580246395E+03  0.73047103201E+03  0.17300000000E+03 0. -1.
<mgrwt>
<rscale>  2 0.18823074E+03</rscale>
<asrwt>0</asrwt>
<pdfrwt beam="1">  1        1 0.21215701E+00 0.18823074E+03</pdfrwt>
<pdfrwt beam="2">  1       -1 0.39595534E-02 0.18823074E+03</pdfrwt>
<totfact> 0.21504779E+03</totfact>
</mgrwt>
</event>
<event>
 4    1  0.7245070E-001  0.1916991E+03  0.7546771E-02  0.1156938E+00
         -2   -1    0    0    0  501 -0.00000000000E+00  0.00000000000E+00  0.42228590074E+02  0.42228590074E+02  0.00000000000E+00 0. -1.
          2   -1    0    0  502    0  0.00000000000E+00 -0.00000000000E+00 -0.96201406743E+03  0.96201406743E+03  0.00000000000E+00 0.  1.
          6    1    1    2  502    0  0.81262693855E+02 -0.14694119133E+02 -0.30479550964E+03  0.36006783423E+03  0.17300000000E+03 0. -1.
         -6    1    1    2    0  501 -0.81262693855E+02  0.14694119133E+02 -0.61498996771E+03  0.64417482327E+03  0.17300000000E+03 0. -1.
<mgrwt>
<rscale>  2 0.19169909E+03</rscale>
<asrwt>0</asrwt>
<pdfrwt beam="1">  1        2 0.14800214E+00 0.19169909E+03</pdfrwt>
<pdfrwt beam="2">  1       -2 0.64967074E-02 0.19169909E+03</pdfrwt>
<totfact> 0.35939473E+03</totfact>
</mgrwt>
</event>
<event>
 4    1  0.7245070E-001  0.2006823E+03  0.7546771E-02  0.1149165E+00
         -3   -1    0    0    0  501 -0.00000000000E+00  0.00000000000E+00  0.85922982802E+03  0.85922982802E+03  0.00000000000E+00 0.  1.
          3   -1    0    0  502    0  0.00000000000E+00 -0.00000000000E+00 -0.23102589623E+03  0.23102589623E+03  0.00000000000E+00 0. -1.
          6    1    1    2  502    0  0.89748644374E+02  0.47849467442E+02 -0.17259550988E+03  0.26469340893E+03  0.17300000000E+03 0. -1.
         -6    1    1    2    0  501 -0.89748644374E+02 -0.47849467442E+02  0.80079944167E+03  0.82556231532E+03  0.17300000000E+03 0.  1.
<mgrwt>
<rscale>  2 0.20068231E+03</rscale>
<asrwt>0</asrwt>
<pdfrwt beam="1">  1        3 0.35542446E-01 0.20068231E+03</pdfrwt>
<pdfrwt beam="2">  1       -3 0.13218920E+00 0.20068231E+03</pdfrwt>
<totfact> 0.89242185E+00</totfact>
</mgrwt>
</event>
<event>
 4    1  0.7245070E-001  0.1733164E+03  0.7546771E-02  0.1174433E+00
          2   -1    0    0  502    0  0.00000000000E+00  0.00000000000E+00  0.34462715457E+03  0.34462715457E+03  0.00000000000E+00 0.  1.
         -2   -1    0    0    0  501 -0.00000000000E+00 -0.00000000000E+00 -0.96494565560E+02  0.96494565560E+02  0.00000000000E+00 0. -1.
          6    1    1    2  502    0 -0.15774730443E+01 -0.10347627373E+02  0.19265712820E+03  0.25914345614E+03  0.17300000000E+03 0.  1.
         -6    1    1    2    0  501  0.15774730443E+01  0.10347627373E+02  0.55475460813E+02  0.18197826399E+03  0.17300000000E+03 0. -1.
<mgrwt>
<rscale>  2 0.17331636E+03</rscale>
<asrwt>0</asrwt>
<pdfrwt beam="1">  1        2 0.53019561E-01 0.17331636E+03</pdfrwt>
<pdfrwt beam="2">  1       -2 0.14845318E-01 0.17331636E+03</pdfrwt>
<totfact> 0.32050023E+03</totfact>
</mgrwt>
</event>
<event>
 4    1  0.7245070E-001  0.1999843E+03  0.7546771E-02  0.1149752E+00
          4   -1    0    0  502    0  0.00000000000E+00  0.00000000000E+00  0.22344874575E+03  0.22344874575E+03  0.00000000000E+00 0.  1.
         -4   -1    0    0    0  501 -0.00000000000E+00 -0.00000000000E+00 -0.18931974131E+03  0.18931974131E+03  0.00000000000E+00 0. -1.
          6    1    1    2  502    0 -0.61512901966E+00 -0.10032117821E+03  0.65287312586E+02  0.21037145806E+03  0.17300000000E+03 0. -1.
         -6    1    1    2    0  501  0.61512901966E+00  0.10032117821E+03 -0.31158308142E+02  0.20239702900E+03  0.17300000000E+03 0. -1.
<mgrwt>
<rscale>  2 0.19998429E+03</rscale>
<asrwt>0</asrwt>
<pdfrwt beam="1">  1        4 0.34376730E-01 0.19998429E+03</pdfrwt>
<pdfrwt beam="2">  1       -4 0.29126114E-01 0.19998429E+03</pdfrwt>
<totfact> 0.16362997E+02</totfact>
</mgrwt>
</event>
<event>
 4    1  0.7245070E-001  0.2397480E+03  0.7546771E-02  0.1119961E+00
          2   -1    0    0  502    0  0.00000000000E+00  0.00000000000E+00  0.98231271965E+03  0.98231271965E+03  0.00000000000E+00 0. -1.
         -2   -1    0    0    0  501 -0.00000000000E+00 -0.00000000000E+00 -0.13894178054E+03  0.13894178054E+03  0.00000000000E+00 0.  1.
          6    1    1    2  502    0  0.45908572412E+02 -0.15950704238E+03  0.84822637452E+03  0.88145735917E+03  0.17300000000E+03 0. -1.
         -6    1    1    2    0  501 -0.45908572412E+02  0.15950704238E+03 -0.48554354057E+01  0.23979714102E+03  0.17300000000E+03 0.  1.
<mgrwt>
<rscale>  2 0.23974798E+03</rscale>
<asrwt>0</asrwt>
<pdfrwt beam="1">  1        2 0.15112503E+00 0.23974798E+03</pdfrwt>
<pdfrwt beam="2">  1       -2 0.21375659E-01 0.23974798E+03</pdfrwt>
<totfact> 0.50836199E+02</totfact>
</mgrwt>
</event>
<event>
 4    1  0.7245070E-001  0.1989184E+03  0.7546771E-02  0.1150655E+00
          1   -1    0    0  502    0  0.00000000000E+00  0.00000000000E+00  0.14745859547E+04  0.14745859547E+04  0.00000000000E+00 0.  1.
         -1   -1    0    0    0  501 -0.00000000000E+00 -0.00000000000E+00 -0.28258842857E+02  0.28258842857E+02  0.00000000000E+00 0. -1.
          6    1    1    2  502    0 -0.89793862032E+02 -0.39706373917E+02  0.55441397812E+03  0.58901900897E+03  0.17300000000E+03 0. -1.
         -6    1    1    2    0  501  0.89793862032E+02  0.39706373917E+02  0.89191313376E+03  0.91382578863E+03  0.17300000000E+03 0.  1.
<mgrwt>
<rscale>  2 0.19891841E+03</rscale>
<asrwt>0</asrwt>
<pdfrwt beam="1">  1        1 0.22685932E+00 0.19891841E+03</pdfrwt>
<pdfrwt beam="2">  1       -1 0.43475154E-02 0.19891841E+03</pdfrwt>
<totfact> 0.16181492E+03</totfact>
</mgrwt>
</event>
<event>
 4    1  0.7245070E-001  0.1804103E+03  0.7546771E-02  0.1167407E+00
         -2   -1    0    0    0  501 -0.00000000000E+00  0.00000000000E+00  0.35519523826E+02  0.35519523826E+02  0.00000000000E+00 0.  1.
          2   -1    0    0  502    0  0.00000000000E+00 -0.00000000000E+00 -0.91689022598E+03  0.91689022598E+03  0.00000000000E+00 0. -1.
          6    1    1    2  502    0  0.50488845832E+02  0.83518399274E+01 -0.45237586136E+03  0.48702340470E+03  0.17300000000E+03 0. -1.
         -6    1    1    2    0  501 -0.50488845832E+02 -0.83518399274E+01 -0.42899484080E+03  0.46538634511E+03  0.17300000000E+03 0.  1.
<mgrwt>
<rscale>  2 0.18041030E+03</rscale>
<asrwt>0</asrwt>
<pdfrwt beam="1">  1        2 0.14106006E+00 0.18041030E+03</pdfrwt>
<pdfrwt beam="2">  1       -2 0.54645412E-02 0.18041030E+03</pdfrwt>
<totfact> 0.49859065E+03</totfact>
</mgrwt>
</event>
<event>
 4    1  0.7245070E-001  0.3985713E+03  0.7546771E-02  0.1044275E+00
          2   -1    0    0  502    0  0.00000000000E+00  0.00000000000E+00  0.27640922150E+04  0.27640922150E+04  0.00000000000E+00 0.  1.
         -2   -1    0    0    0  501 -0.00000000000E+00 -0.00000000000E+00 -0.59124579775E+02  0.59124579775E+02  0.00000000000E+00 0. -1.
          6    1    1    2  502    0  0.34941162818E+03 -0.82714165208E+02  0.15884522071E+04  0.16376933575E+04  0.17300000000E+03 0. -1.
         -6    1    1    2    0  501 -0.34941162818E+03  0.82714165208E+02  0.11165154282E+04  0.11855234373E+04  0.17300000000E+03 0.  1.
<mgrwt>
<rscale>  2 0.39857135E+03</rscale>
<asrwt>0</asrwt>
<pdfrwt beam="1">  1        2 0.42524486E+00 0.39857135E+03</pdfrwt>
<pdfrwt beam="2">  1       -2 0.90960913E-02 0.39857135E+03</pdfrwt>
<totfact> 0.21416930E+02</totfact>
</mgrwt>
</event>
<event>
 4    1  0.7245070E-001  0.1778401E+03  0.7546771E-02  0.1169910E+00
         -1   -1    0    0    0  501 -0.00000000000E+00  0.00000000000E+00  0.19581387592E+03  0.19581387592E+03  0.00000000000E+00 0.  1.
          1   -1    0    0  502    0  0.00000000000E+00 -0.00000000000E+00 -0.36646802269E+03  0.36646802269E+03  0.00000000000E+00 0. -1.
          6    1    1    2  502    0 -0.85529868265E+01  0.40310843394E+02 -0.29557510205E+03  0.34495182074E+03  0.17300000000E+03 0. -1.
         -6    1    1    2    0  501  0.85529868265E+01 -0.40310843394E+02  0.12492095528E+03  0.21733007787E+03  0.17300000000E+03 0.  1.
<mgrwt>
<rscale>  2 0.17784015E+03</rscale>
<asrwt>0</asrwt>
<pdfrwt beam="1">  1        1 0.56379695E-01 0.17784015E+03</pdfrwt>
<pdfrwt beam="2">  1       -1 0.30125212E-01 0.17784015E+03</pdfrwt>
<totfact> 0.69080386E+02</totfact>
</mgrwt>
</event>
<event>
 4    1  0.7245070E-001  0.1807721E+03  0.7546771E-02  0.1167058E+00
         -2   -1    0    0    0  501 -0.00000000000E+00  0.00000000000E+00  0.15740345214E+03  0.15740345214E+03  0.00000000000E+00 0. -1.
          2   -1    0    0  502    0  0.00000000000E+00 -0.00000000000E+00 -0.21309670650E+03  0.21309670650E+03  0.00000000000E+00 0.  1.
          6    1    1    2  502    0 -0.30007722485E+01 -0.52350274403E+02  0.18782159194E+01  0.18078186734E+03  0.17300000000E+03 0. -1.
         -6    1    1    2    0  501  0.30007722485E+01  0.52350274403E+02 -0.57571470286E+02  0.18971829130E+03  0.17300000000E+03 0.  1.
<mgrwt>
<rscale>  2 0.18077211E+03</rscale>
<asrwt>0</asrwt>
<pdfrwt beam="1">  1        2 0.32784109E-01 0.18077211E+03</pdfrwt>
<pdfrwt beam="2">  1       -2 0.24215916E-01 0.18077211E+03</pdfrwt>
<totfact> 0.23496853E+03</totfact>
</mgrwt>
</event>
<event>
 4    1  0.7245070E-001  0.2446346E+03  0.7546771E-02  0.1116743E+00
          1   -1    0    0  502    0  0.00000000000E+00  0.00000000000E+00  0.76151973346E+03  0.76151973346E+03  0.00000000000E+00 0.  1.
         -1   -1    0    0    0  501 -0.00000000000E+00 -0.00000000000E+00 -0.85125933326E+02  0.85125933326E+02  0.00000000000E+00 0. -1.
          6    1    1    2  502    0 -0.76496149000E+02  0.15513028662E+03  0.22087698736E+03  0.32959476662E+03  0.17300000000E+03 0. -1.
         -6    1    1    2    0  501  0.76496149000E+02 -0.15513028662E+03  0.45551681278E+03  0.51705090017E+03  0.17300000000E+03 0.  1.
<mgrwt>
<rscale>  2 0.24463456E+03</rscale>
<asrwt>0</asrwt>
<pdfrwt beam="1">  1        1 0.11715688E+00 0.24463456E+03</pdfrwt>
<pdfrwt beam="2">  1       -1 0.13096298E-01 0.24463456E+03</pdfrwt>
<totfact> 0.99377650E+02</totfact>
</mgrwt>
</event>
<event>
 4    1  0.7245070E-001  0.2240763E+03  0.7546771E-02  0.1130880E+00
         -2   -1    0    0    0  501 -0.00000000000E+00  0.00000000000E+00  0.49216056476E+02  0.49216056476E+02  0.00000000000E+00 0.  1.
          2   -1    0    0  502    0  0.00000000000E+00 -0.00000000000E+00 -0.20499263991E+04  0.20499263991E+04  0.00000000000E+00 0. -1.
          6    1    1    2  502    0  0.43662294643E+02  0.13555359595E+03 -0.25647341219E+03  0.34057126201E+03  0.17300000000E+03 0.  1.
         -6    1    1    2    0  501 -0.43662294643E+02 -0.13555359595E+03 -0.17442369304E+04  0.17585711935E+04  0.17300000000E+03 0. -1.
<mgrwt>
<rscale>  2 0.22407627E+03</rscale>
<asrwt>0</asrwt>
<pdfrwt beam="1">  1        2 0.31537328E+00 0.22407627E+03</pdfrwt>
<pdfrwt beam="2">  1       -2 0.75717013E-02 0.22407627E+03</pdfrwt>
<totfact> 0.72689497E+02</totfact>
</mgrwt>
</event>
<event>
 4    1  0.7245070E-001  0.2109428E+03  0.7546771E-02  0.1140822E+00
          1   -1    0    0  502    0  0.00000000000E+00  0.00000000000E+00  0.18983192560E+03  0.18983192560E+03  0.00000000000E+00 0.  1.
         -1   -1    0    0    0  501 -0.00000000000E+00 -0.00000000000E+00 -0.23833260227E+03  0.23833260227E+03  0.00000000000E+00 0. -1.
          6    1    1    2  502    0  0.40058220677E+02  0.11385609048E+03 -0.51745184229E+02  0.21719676442E+03  0.17300000000E+03 0. -1.
         -6    1    1    2    0  501 -0.40058220677E+02 -0.11385609048E+03  0.32445075550E+01  0.21096776345E+03  0.17300000000E+03 0. -1.
<mgrwt>
<rscale>  2 0.21094281E+03</rscale>
<asrwt>0</asrwt>
<pdfrwt beam="1">  1        1 0.29204912E-01 0.21094281E+03</pdfrwt>
<pdfrwt beam="2">  1       -1 0.36666554E-01 0.21094281E+03</pdfrwt>
<totfact> 0.11258163E+03</totfact>
</mgrwt>
</event>
<event>
 4    1  0.7245070E-001  0.2299273E+03  0.7546771E-02  0.1126691E+00
          2   -1    0    0  502    0  0.00000000000E+00  0.00000000000E+00  0.18848736891E+04  0.18848736891E+04  0.00000000000E+00 0.  1.
         -2   -1    0    0    0  501 -0.00000000000E+00 -0.00000000000E+00 -0.30767084521E+02  0.30767084521E+02  0.00000000000E+00 0. -1.
          6    1    1    2  502    0  0.74841891507E+02 -0.13166722182E+03  0.64230051412E+03  0.68221442118E+03  0.17300000000E+03 0. -1.
         -6    1    1    2    0  501 -0.74841891507E+02  0.13166722182E+03  0.12118060905E+04  0.12334263525E+04  0.17300000000E+03 0.  1.
<mgrwt>
<rscale>  2 0.22992731E+03</rscale>
<asrwt>0</asrwt>
<pdfrwt beam="1">  1        2 0.28998048E+00 0.22992731E+03</pdfrwt>
<pdfrwt beam="2">  1       -2 0.47333991E-02 0.22992731E+03</pdfrwt>
<totfact> 0.18225005E+03</totfact>
</mgrwt>
</event>
<event>
 4    1  0.7245070E-001  0.3961873E+03  0.7546771E-02  0.1045108E+00
          2   -1    0    0  502    0  0.00000000000E+00  0.00000000000E+00  0.36470474029E+03  0.36470474029E+03  0.00000000000E+00 0.  1.
         -2   -1    0    0    0  501 -0.00000000000E+00 -0.00000000000E+00 -0.47290043769E+03  0.47290043769E+03  0.00000000000E+00 0. -1.
          6    1    1    2  502    0 -0.31823492132E+03  0.16050521264E+03 -0.17966749746E+03  0.43502275581E+03  0.17300000000E+03 0. -1.
         -6    1    1    2    0  501  0.31823492132E+03 -0.16050521264E+03  0.71471800051E+02  0.40258242216E+03  0.17300000000E+03 0.  1.
<mgrwt>
<rscale>  2 0.39618731E+03</rscale>
<asrwt>0</asrwt>
<pdfrwt beam="1">  1        2 0.56108422E-01 0.39618731E+03</pdfrwt>
<pdfrwt beam="2">  1       -2 0.72753913E-01 0.39618731E+03</pdfrwt>
<totfact> 0.15490284E+02</totfact>
</mgrwt>
</event>
<event>
 4    1  0.7245070E-001  0.2056812E+03  0.7546771E-02  0.1145032E+00
          2   -1    0    0  502    0  0.00000000000E+00  0.00000000000E+00  0.79494437102E+03  0.79494437102E+03  0.00000000000E+00 0.  1.
         -2   -1    0    0    0  501 -0.00000000000E+00 -0.00000000000E+00 -0.53217356182E+02  0.53217356182E+02  0.00000000000E+00 0. -1.
          6    1    1    2  502    0 -0.84887131105E+02  0.71902127141E+02  0.37150507361E+03  0.42464192049E+03  0.17300000000E+03 0.  1.
         -6    1    1    2    0  501  0.84887131105E+02 -0.71902127141E+02  0.37022194122E+03  0.42351980671E+03  0.17300000000E+03 0. -1.
<mgrwt>
<rscale>  2 0.20568116E+03</rscale>
<asrwt>0</asrwt>
<pdfrwt beam="1">  1        2 0.12229913E+00 0.20568116E+03</pdfrwt>
<pdfrwt beam="2">  1       -2 0.81872862E-02 0.20568116E+03</pdfrwt>
<totfact> 0.32319141E+03</totfact>
</mgrwt>
</event>
<event>
 4    1  0.7245070E-001  0.2283984E+03  0.7546771E-02  0.1127772E+00
         -1   -1    0    0    0  501 -0.00000000000E+00  0.00000000000E+00  0.48588845925E+03  0.48588845925E+03  0.00000000000E+00 0. -1.
          1   -1    0    0  502    0  0.00000000000E+00 -0.00000000000E+00 -0.30113854383E+03  0.30113854383E+03  0.00000000000E+00 0.  1.
          6    1    1    2  502    0 -0.90696250961E+02 -0.11836815498E+03  0.40804063255E+03  0.46761414421E+03  0.17300000000E+03 0. -1.
         -6    1    1    2    0  501  0.90696250961E+02  0.11836815498E+03 -0.22329071714E+03  0.31941285887E+03  0.17300000000E+03 0.  1.
<mgrwt>
<rscale>  2 0.22839840E+03</rscale>
<asrwt>0</asrwt>
<pdfrwt beam="1">  1        1 0.46329007E-01 0.22839840E+03</pdfrwt>
<pdfrwt beam="2">  1       -1 0.74752071E-01 0.22839840E+03</pdfrwt>
<totfact> 0.16600593E+02</totfact>
</mgrwt>
</event>
<event>
 4    1  0.7245070E-001  0.1837536E+03  0.7546771E-02  0.1164219E+00
         -1   -1    0    0    0  501 -0.00000000000E+00  0.00000000000E+00  0.37923063143E+02  0.37923063143E+02  0.00000000000E+00 0.  1.
          1   -1    0    0  502    0  0.00000000000E+00 -0.00000000000E+00 -0.89338096890E+03  0.89338096890E+03  0.00000000000E+00 0. -1.
          6    1    1    2  502    0  0.15873584679E+02  0.59870032248E+02 -0.45478175518E+03  0.49050161702E+03  0.17300000000E+03 0.  1.
         -6    1    1    2    0  501 -0.15873584679E+02 -0.59870032248E+02 -0.40067615058E+03  0.44080241503E+03  0.17300000000E+03 0. -1.
<mgrwt>
<rscale>  2 0.18375362E+03</rscale>
<asrwt>0</asrwt>
<pdfrwt beam="1">  1        1 0.13744324E+00 0.18375362E+03</pdfrwt>
<pdfrwt beam="2">  1       -1 0.58343168E-02 0.18375362E+03</pdfrwt>
<totfact> 0.26725452E+03</totfact>
</mgrwt>
</event>
<event>
 4    1  0.7245070E-001  0.1913572E+03  0.7546771E-02  0.1157243E+00
         -1   -1    0    0    0  501 -0.00000000000E+00  0.00000000000E+00  0.28536535035E+02  0.28536535035E+02  0.00000000000E+00 0.  1.
          1   -1    0    0  502    0  0.00000000000E+00 -0.00000000000E+00 -0.13654146266E+04  0.13654146266E+04  0.00000000000E+00 0. -1.
          6    1    1    2  502    0  0.43535304093E+02  0.69233270686E+02 -0.83948284470E+03  0.86101626873E+03  0.17300000000E+03 0. -1.
         -6    1    1    2    0  501 -0.43535304093E+02 -0.69233270686E+02 -0.49739524687E+03  0.53293489291E+03  0.17300000000E+03 0.  1.
<mgrwt>
<rscale>  2 0.19135718E+03</rscale>
<asrwt>0</asrwt>
<pdfrwt beam="1">  1        1 0.21006383E+00 0.19135718E+03</pdfrwt>
<pdfrwt beam="2">  1       -1 0.43902353E-02 0.19135718E+03</pdfrwt>
<totfact> 0.18843715E+03</totfact>
</mgrwt>
</event>
<event>
 4    1  0.7245070E-001  0.1744745E+03  0.7546771E-02  0.1173260E+00
         -1   -1    0    0    0  501 -0.00000000000E+00  0.00000000000E+00  0.69177800669E+02  0.69177800669E+02  0.00000000000E+00 0. -1.
          1   -1    0    0  502    0  0.00000000000E+00 -0.00000000000E+00 -0.44448298630E+03  0.44448298630E+03  0.00000000000E+00 0.  1.
          6    1    1    2  502    0  0.48160918566E+01 -0.22116910039E+02 -0.16198963180E+03  0.23807980440E+03  0.17300000000E+03 0. -1.
         -6    1    1    2    0  501 -0.48160918566E+01  0.22116910039E+02 -0.21331555383E+03  0.27558098257E+03  0.17300000000E+03 0. -1.
<mgrwt>
<rscale>  2 0.17447450E+03</rscale>
<asrwt>0</asrwt>
<pdfrwt beam="1">  1        1 0.68381997E-01 0.17447450E+03</pdfrwt>
<pdfrwt beam="2">  1       -1 0.10642739E-01 0.17447450E+03</pdfrwt>
<totfact> 0.28698811E+03</totfact>
</mgrwt>
</event>
<event>
 4    1  0.7245070E-001  0.2683977E+03  0.7546771E-02  0.1102200E+00
         -1   -1    0    0    0  501 -0.00000000000E+00  0.00000000000E+00  0.17309019022E+03  0.17309019022E+03  0.00000000000E+00 0.  1.
          1   -1    0    0  502    0  0.00000000000E+00 -0.00000000000E+00 -0.41856872013E+03  0.41856872013E+03  0.00000000000E+00 0. -1.
          6    1    1    2  502    0  0.20284095192E+03  0.31046711696E+02 -0.10040940394E+03  0.28656482422E+03  0.17300000000E+03 0. -1.
         -6    1    1    2    0  501 -0.20284095192E+03 -0.31046711696E+02 -0.14506912597E+03  0.30509408613E+03  0.17300000000E+03 0.  1.
<mgrwt>
<rscale>  2 0.26839775E+03</rscale>
<asrwt>0</asrwt>
<pdfrwt beam="1">  1        1 0.64395187E-01 0.26839775E+03</pdfrwt>
<pdfrwt beam="2">  1       -1 0.26629260E-01 0.26839775E+03</pdfrwt>
<totfact> 0.71749377E+02</totfact>
</mgrwt>
</event>
<event>
 4    1  0.7245070E-001  0.1893343E+03  0.7546771E-02  0.1159063E+00
          1   -1    0    0  502    0  0.00000000000E+00  0.00000000000E+00  0.46455758535E+03  0.46455758535E+03  0.00000000000E+00 0. -1.
         -1   -1    0    0    0  501 -0.00000000000E+00 -0.00000000000E+00 -0.94303714651E+02  0.94303714651E+02  0.00000000000E+00 0.  1.
          6    1    1    2  502    0  0.43692858997E+02 -0.63319978884E+02  0.66002322067E+02  0.20050883315E+03  0.17300000000E+03 0.  1.
         -6    1    1    2    0  501 -0.43692858997E+02  0.63319978884E+02  0.30425154863E+03  0.35835246685E+03  0.17300000000E+03 0. -1.
<mgrwt>
<rscale>  2 0.18933432E+03</rscale>
<asrwt>0</asrwt>
<pdfrwt beam="1">  1        1 0.71470396E-01 0.18933432E+03</pdfrwt>
<pdfrwt beam="2">  1       -1 0.14508264E-01 0.18933432E+03</pdfrwt>
<totfact> 0.16762622E+03</totfact>
</mgrwt>
</event>
<event>
 4    1  0.7245070E-001  0.1872517E+03  0.7546771E-02  0.1160964E+00
         -1   -1    0    0    0  501 -0.00000000000E+00  0.00000000000E+00  0.18360285870E+02  0.18360285870E+02  0.00000000000E+00 0. -1.
          1   -1    0    0  502    0  0.00000000000E+00 -0.00000000000E+00 -0.19970273754E+04  0.19970273754E+04  0.00000000000E+00 0.  1.
          6    1    1    2  502    0  0.66447395782E+02  0.26813358041E+02 -0.12000187084E+04  0.12145402888E+04  0.17300000000E+03 0.  1.
         -6    1    1    2    0  501 -0.66447395782E+02 -0.26813358041E+02 -0.77864838110E+03  0.80084737246E+03  0.17300000000E+03 0. -1.
<mgrwt>
<rscale>  2 0.18725174E+03</rscale>
<asrwt>0</asrwt>
<pdfrwt beam="1">  1        1 0.30723482E+00 0.18725174E+03</pdfrwt>
<pdfrwt beam="2">  1       -1 0.28246609E-02 0.18725174E+03</pdfrwt>
<totfact> 0.14047378E+03</totfact>
</mgrwt>
</event>
<event>
 4    1  0.7245070E-001  0.1735799E+03  0.7546771E-02  0.1174165E+00
         -2   -1    0    0    0  501 -0.00000000000E+00  0.00000000000E+00  0.68615677246E+03  0.68615677246E+03  0.00000000000E+00 0.  1.
          2   -1    0    0  502    0  0.00000000000E+00 -0.00000000000E+00 -0.52146749971E+02  0.52146749971E+02  0.00000000000E+00 0. -1.
          6    1    1    2  502    0 -0.84220602195E+01 -0.11403836139E+02  0.46370740163E+03  0.49513082403E+03  0.17300000000E+03 0.  1.
         -6    1    1    2    0  501  0.84220602195E+01  0.11403836139E+02  0.17030262086E+03  0.24317269841E+03  0.17300000000E+03 0. -1.
<mgrwt>
<rscale>  2 0.17357989E+03</rscale>
<asrwt>0</asrwt>
<pdfrwt beam="1">  1        2 0.80225774E-02 0.17357989E+03</pdfrwt>
<pdfrwt beam="2">  1       -2 0.10556257E+00 0.17357989E+03</pdfrwt>
<totfact> 0.63221787E+02</totfact>
</mgrwt>
</event>
<event>
 4    1  0.7245070E-001  0.3318912E+03  0.7546771E-02  0.1070303E+00
          2   -1    0    0  502    0  0.00000000000E+00  0.00000000000E+00  0.96169596620E+03  0.96169596620E+03  0.00000000000E+00 0. -1.
         -2   -1    0    0    0  501 -0.00000000000E+00 -0.00000000000E+00 -0.12770794559E+03  0.12770794559E+03  0.00000000000E+00 0.  1.
          6    1    1    2  502    0  0.18977346505E+03 -0.21025882609E+03  0.59190804556E+03  0.67860656966E+03  0.17300000000E+03 0. -1.
         -6    1    1    2    0  501 -0.18977346505E+03  0.21025882609E+03  0.24207997505E+03  0.41079734213E+03  0.17300000000E+03 0.  1.
<mgrwt>
<rscale>  2 0.33189116E+03</rscale>
<asrwt>0</asrwt>
<pdfrwt beam="1">  1        2 0.14795322E+00 0.33189116E+03</pdfrwt>
<pdfrwt beam="2">  1       -2 0.19647377E-01 0.33189116E+03</pdfrwt>
<totfact> 0.60141664E+02</totfact>
</mgrwt>
</event>
<event>
 4    1  0.7245070E-001  0.1992686E+03  0.7546771E-02  0.1150358E+00
         -2   -1    0    0    0  501 -0.00000000000E+00  0.00000000000E+00  0.11481652472E+03  0.11481652472E+03  0.00000000000E+00 0. -1.
          2   -1    0    0  502    0  0.00000000000E+00 -0.00000000000E+00 -0.34664729805E+03  0.34664729805E+03  0.00000000000E+00 0.  1.
          6    1    1    2  502    0  0.91308221343E+02  0.37970708654E+02 -0.10476976994E+03  0.22513256249E+03  0.17300000000E+03 0.  1.
         -6    1    1    2    0  501 -0.91308221343E+02 -0.37970708654E+02 -0.12706100339E+03  0.23633126028E+03  0.17300000000E+03 0.  1.
<mgrwt>
<rscale>  2 0.19926858E+03</rscale>
<asrwt>0</asrwt>
<pdfrwt beam="1">  1        2 0.53330353E-01 0.19926858E+03</pdfrwt>
<pdfrwt beam="2">  1       -2 0.17664081E-01 0.19926858E+03</pdfrwt>
<totfact> 0.23987335E+03</totfact>
</mgrwt>
</event>
<event>
 4    1  0.7245070E-001  0.1739987E+03  0.7546771E-02  0.1173741E+00
          1   -1    0    0  502    0  0.00000000000E+00  0.00000000000E+00  0.60273897572E+03  0.60273897572E+03  0.00000000000E+00 0. -1.
         -1   -1    0    0    0  501 -0.00000000000E+00 -0.00000000000E+00 -0.56233163905E+02  0.56233163905E+02  0.00000000000E+00 0.  1.
          6    1    1    2  502    0  0.14751614492E+02 -0.11355474495E+02  0.38090741088E+03  0.41876725349E+03  0.17300000000E+03 0. -1.
         -6    1    1    2    0  501 -0.14751614492E+02  0.11355474495E+02  0.16559840093E+03  0.24020488613E+03  0.17300000000E+03 0.  1.
<mgrwt>
<rscale>  2 0.17399873E+03</rscale>
<asrwt>0</asrwt>
<pdfrwt beam="1">  1        1 0.92729069E-01 0.17399873E+03</pdfrwt>
<pdfrwt beam="2">  1       -1 0.86512564E-02 0.17399873E+03</pdfrwt>
<totfact> 0.26310682E+03</totfact>
</mgrwt>
</event>
<event>
 4    1  0.7245070E-001  0.2497269E+03  0.7546771E-02  0.1113478E+00
          2   -1    0    0  502    0  0.00000000000E+00  0.00000000000E+00  0.99651795027E+03  0.99651795027E+03  0.00000000000E+00 0.  1.
         -2   -1    0    0    0  501 -0.00000000000E+00 -0.00000000000E+00 -0.10388441656E+03  0.10388441656E+03  0.00000000000E+00 0. -1.
          6    1    1    2  502    0 -0.42887633114E+02  0.17491476939E+03  0.99390640250E+02  0.26877876589E+03  0.17300000000E+03 0. -1.
         -6    1    1    2    0  501  0.42887633114E+02 -0.17491476939E+03  0.79324289346E+03  0.83162360095E+03  0.17300000000E+03 0.  1.
<mgrwt>
<rscale>  2 0.24972690E+03</rscale>
<asrwt>0</asrwt>
<pdfrwt beam="1">  1        2 0.15331045E+00 0.24972690E+03</pdfrwt>
<pdfrwt beam="2">  1       -2 0.15982219E-01 0.24972690E+03</pdfrwt>
<totfact> 0.81548601E+02</totfact>
</mgrwt>
</event>
<event>
 4    1  0.7245070E-001  0.2017141E+03  0.7546771E-02  0.1148301E+00
         -2   -1    0    0    0  501 -0.00000000000E+00  0.00000000000E+00  0.28462563756E+02  0.28462563756E+02  0.00000000000E+00 0. -1.
          2   -1    0    0  502    0  0.00000000000E+00 -0.00000000000E+00 -0.17494012652E+04  0.17494012652E+04  0.00000000000E+00 0.  1.
          6    1    1    2  502    0 -0.12327950637E+02 -0.10299314595E+03 -0.12405712155E+04  0.12568633606E+04  0.17300000000E+03 0. -1.
         -6    1    1    2    0  501  0.12327950637E+02  0.10299314595E+03 -0.48036748597E+03  0.52100046839E+03  0.17300000000E+03 0. -1.
<mgrwt>
<rscale>  2 0.20171407E+03</rscale>
<asrwt>0</asrwt>
<pdfrwt beam="1">  1        2 0.26913876E+00 0.20171407E+03</pdfrwt>
<pdfrwt beam="2">  1       -2 0.43788544E-02 0.20171407E+03</pdfrwt>
<totfact> 0.24149641E+03</totfact>
</mgrwt>
</event>
<event>
 4    1  0.7245070E-001  0.2182603E+03  0.7546771E-02  0.1135187E+00
          1   -1    0    0  502    0  0.00000000000E+00  0.00000000000E+00  0.50462878433E+03  0.50462878433E+03  0.00000000000E+00 0.  1.
         -1   -1    0    0    0  501 -0.00000000000E+00 -0.00000000000E+00 -0.97044786350E+02  0.97044786350E+02  0.00000000000E+00 0. -1.
          6    1    1    2  502    0 -0.10221635111E+03  0.85207761105E+02  0.15413911435E+03  0.26720106953E+03  0.17300000000E+03 0. -1.
         -6    1    1    2    0  501  0.10221635111E+03 -0.85207761105E+02  0.25344488363E+03  0.33447250115E+03  0.17300000000E+03 0. -1.
<mgrwt>
<rscale>  2 0.21826027E+03</rscale>
<asrwt>0</asrwt>
<pdfrwt beam="1">  1        1 0.77635196E-01 0.21826027E+03</pdfrwt>
<pdfrwt beam="2">  1       -1 0.14929967E-01 0.21826027E+03</pdfrwt>
<totfact> 0.14402613E+03</totfact>
</mgrwt>
</event>
<event>
 4    1  0.7245070E-001  0.2466311E+03  0.7546771E-02  0.1115453E+00
         -1   -1    0    0    0  501 -0.00000000000E+00  0.00000000000E+00  0.39452134239E+02  0.39452134239E+02  0.00000000000E+00 0.  1.
          1   -1    0    0  502    0  0.00000000000E+00 -0.00000000000E+00 -0.24094182880E+04  0.24094182880E+04  0.00000000000E+00 0. -1.
          6    1    1    2  502    0  0.16340089602E+03  0.64792251763E+02 -0.19197450480E+04  0.19355226524E+04  0.17300000000E+03 0. -1.
         -6    1    1    2    0  501 -0.16340089602E+03 -0.64792251763E+02 -0.45022110577E+03  0.51334776983E+03  0.17300000000E+03 0.  1.
<mgrwt>
<rscale>  2 0.24663108E+03</rscale>
<asrwt>0</asrwt>
<pdfrwt beam="1">  1        1 0.37067982E+00 0.24663108E+03</pdfrwt>
<pdfrwt beam="2">  1       -1 0.60695577E-02 0.24663108E+03</pdfrwt>
<totfact> 0.24047835E+02</totfact>
</mgrwt>
</event>
<event>
 4    1  0.7245070E-001  0.2126475E+03  0.7546771E-02  0.1139486E+00
         -1   -1    0    0    0  501 -0.00000000000E+00  0.00000000000E+00  0.92724894370E+02  0.92724894370E+02  0.00000000000E+00 0.  1.
          1   -1    0    0  502    0  0.00000000000E+00 -0.00000000000E+00 -0.49098190956E+03  0.49098190956E+03  0.00000000000E+00 0. -1.
          6    1    1    2  502    0  0.38086090633E+02 -0.11764108539E+03 -0.22310547348E+03  0.30821263369E+03  0.17300000000E+03 0. -1.
         -6    1    1    2    0  501 -0.38086090633E+02  0.11764108539E+03 -0.17515154172E+03  0.27549417024E+03  0.17300000000E+03 0. -1.
<mgrwt>
<rscale>  2 0.21264754E+03</rscale>
<asrwt>0</asrwt>
<pdfrwt beam="1">  1        1 0.75535679E-01 0.21264754E+03</pdfrwt>
<pdfrwt beam="2">  1       -1 0.14265368E-01 0.21264754E+03</pdfrwt>
<totfact> 0.16044037E+03</totfact>
</mgrwt>
</event>
<event>
 4    1  0.7245070E-001  0.2714667E+03  0.7546771E-02  0.1100443E+00
          1   -1    0    0  502    0  0.00000000000E+00  0.00000000000E+00  0.42201644682E+03  0.42201644682E+03  0.00000000000E+00 0.  1.
         -1   -1    0    0    0  501 -0.00000000000E+00 -0.00000000000E+00 -0.17554066684E+03  0.17554066684E+03  0.00000000000E+00 0. -1.
          6    1    1    2  502    0 -0.78657953129E+02  0.19385075826E+03  0.14482884705E+03  0.30768422937E+03  0.17300000000E+03 0.  1.
         -6    1    1    2    0  501  0.78657953129E+02 -0.19385075826E+03  0.10164693294E+03  0.28987288429E+03  0.17300000000E+03 0. -1.
<mgrwt>
<rscale>  2 0.27146674E+03</rscale>
<asrwt>0</asrwt>
<pdfrwt beam="1">  1        1 0.64925607E-01 0.27146674E+03</pdfrwt>
<pdfrwt beam="2">  1       -1 0.27006257E-01 0.27146674E+03</pdfrwt>
<totfact> 0.69327494E+02</totfact>
</mgrwt>
</event>
<event>
 4    1  0.7245070E-001  0.2496075E+03  0.7546771E-02  0.1113553E+00
          2   -1    0    0  502    0  0.00000000000E+00  0.00000000000E+00  0.42806059420E+03  0.42806059420E+03  0.00000000000E+00 0.  1.
         -2   -1    0    0    0  501 -0.00000000000E+00 -0.00000000000E+00 -0.16360981279E+03  0.16360981279E+03  0.00000000000E+00 0. -1.
          6    1    1    2  502    0  0.33764639231E+02  0.17673382600E+03  0.33935040239E+02  0.25190371786E+03  0.17300000000E+03 0. -1.
         -6    1    1    2    0  501 -0.33764639231E+02 -0.17673382600E+03  0.23051574118E+03  0.33976668913E+03  0.17300000000E+03 0.  1.
<mgrwt>
<rscale>  2 0.24960748E+03</rscale>
<asrwt>0</asrwt>
<pdfrwt beam="1">  1        2 0.65855476E-01 0.24960748E+03</pdfrwt>
<pdfrwt beam="2">  1       -2 0.25170741E-01 0.24960748E+03</pdfrwt>
<totfact> 0.10409692E+03</totfact>
</mgrwt>
</event>
<event>
 4    1  0.7245070E-001  0.1861446E+03  0.7546771E-02  0.1161985E+00
          2   -1    0    0  502    0  0.00000000000E+00  0.00000000000E+00  0.30834295849E+04  0.30834295849E+04  0.00000000000E+00 0. -1.
         -2   -1    0    0    0  501 -0.00000000000E+00 -0.00000000000E+00 -0.18879212885E+02  0.18879212885E+02  0.00000000000E+00 0.  1.
          6    1    1    2  502    0 -0.65927660157E+02 -0.19347920666E+02  0.54540354040E+03  0.57629403978E+03  0.17300000000E+03 0.  1.
         -6    1    1    2    0  501  0.65927660157E+02  0.19347920666E+02  0.25191468316E+04  0.25260147580E+04  0.17300000000E+03 0. -1.
<mgrwt>
<rscale>  2 0.18614456E+03</rscale>
<asrwt>0</asrwt>
<pdfrwt beam="1">  1        2 0.47437338E+00 0.18614456E+03</pdfrwt>
<pdfrwt beam="2">  1       -2 0.29044967E-02 0.18614456E+03</pdfrwt>
<totfact> 0.84249504E+02</totfact>
</mgrwt>
</event>
<event>
 4    1  0.7245070E-001  0.1905308E+03  0.7546771E-02  0.1157983E+00
          2   -1    0    0  502    0  0.00000000000E+00  0.00000000000E+00  0.24426513067E+03  0.24426513067E+03  0.00000000000E+00 0. -1.
         -2   -1    0    0    0  501 -0.00000000000E+00 -0.00000000000E+00 -0.23183983282E+03  0.23183983282E+03  0.00000000000E+00 0.  1.
          6    1    1    2  502    0  0.66591010670E+02 -0.44029906358E+02  0.14883889729E+03  0.24177471477E+03  0.17300000000E+03 0. -1.
         -6    1    1    2    0  501 -0.66591010670E+02  0.44029906358E+02 -0.13641359943E+03  0.23433024872E+03  0.17300000000E+03 0.  1.
<mgrwt>
<rscale>  2 0.19053083E+03</rscale>
<asrwt>0</asrwt>
<pdfrwt beam="1">  1        2 0.37579251E-01 0.19053083E+03</pdfrwt>
<pdfrwt beam="2">  1       -2 0.35667667E-01 0.19053083E+03</pdfrwt>
<totfact> 0.10093676E+03</totfact>
</mgrwt>
</event>
<event>
 4    1  0.7245070E-001  0.2944654E+03  0.7546771E-02  0.1088040E+00
          1   -1    0    0  502    0  0.00000000000E+00  0.00000000000E+00  0.15559621482E+04  0.15559621482E+04  0.00000000000E+00 0. -1.
         -1   -1    0    0    0  501 -0.00000000000E+00 -0.00000000000E+00 -0.69839476961E+02  0.69839476961E+02  0.00000000000E+00 0.  1.
          6    1    1    2  502    0  0.23481691323E+03 -0.40520539444E+02  0.37765099148E+03  0.47888429523E+03  0.17300000000E+03 0.  1.
         -6    1    1    2    0  501 -0.23481691323E+03  0.40520539444E+02  0.11084716797E+04  0.11469173299E+04  0.17300000000E+03 0. -1.
<mgrwt>
<rscale>  2 0.29446544E+03</rscale>
<asrwt>0</asrwt>
<pdfrwt beam="1">  1        1 0.23937877E+00 0.29446544E+03</pdfrwt>
<pdfrwt beam="2">  1       -1 0.10744536E-01 0.29446544E+03</pdfrwt>
<totfact> 0.35790420E+02</totfact>
</mgrwt>
</event>
<event>
 4    1  0.7245070E-001  0.2233010E+03  0.7546771E-02  0.1131446E+00
          2   -1    0    0  502    0  0.00000000000E+00  0.00000000000E+00  0.48162400272E+02  0.48162400272E+02  0.00000000000E+00 0.  1.
         -2   -1    0    0    0  501 -0.00000000000E+00 -0.00000000000E+00 -0.10888849965E+04  0.10888849965E+04  0.00000000000E+00 0. -1.
          6    1    1    2  502    0  0.13316915737E+03  0.46907333502E+02 -0.64646061608E+03  0.68394053145E+03  0.17300000000E+03 0. -1.
         -6    1    1    2    0  501 -0.13316915737E+03 -0.46907333502E+02 -0.39426198010E+03  0.45310686528E+03  0.17300000000E+03 0.  1.
<mgrwt>
<rscale>  2 0.22330097E+03</rscale>
<asrwt>0</asrwt>
<pdfrwt beam="1">  1        2 0.74096009E-02 0.22330097E+03</pdfrwt>
<pdfrwt beam="2">  1       -2 0.16752075E+00 0.22330097E+03</pdfrwt>
<totfact> 0.22202768E+02</totfact>
</mgrwt>
</event>
<event>
 4    1  0.7245070E-001  0.1756900E+03  0.7546771E-02  0.1172041E+00
          2   -1    0    0  502    0  0.00000000000E+00  0.00000000000E+00  0.46582650805E+02  0.46582650805E+02  0.00000000000E+00 0. -1.
         -2   -1    0    0    0  501 -0.00000000000E+00 -0.00000000000E+00 -0.68843549512E+03  0.68843549512E+03  0.00000000000E+00 0.  1.
          6    1    1    2  502    0  0.87921135166E+01 -0.29337416100E+02 -0.24977126473E+03  0.30537300131E+03  0.17300000000E+03 0. -1.
         -6    1    1    2    0  501 -0.87921135166E+01  0.29337416100E+02 -0.39208157958E+03  0.42964514461E+03  0.17300000000E+03 0.  1.
<mgrwt>
<rscale>  2 0.17569003E+03</rscale>
<asrwt>0</asrwt>
<pdfrwt beam="1">  1        2 0.71665615E-02 0.17569003E+03</pdfrwt>
<pdfrwt beam="2">  1       -2 0.10591316E+00 0.17569003E+03</pdfrwt>
<totfact> 0.72429831E+02</totfact>
</mgrwt>
</event>
<event>
 4    1  0.7245070E-001  0.1785311E+03  0.7546771E-02  0.1169232E+00
         -1   -1    0    0    0  501 -0.00000000000E+00  0.00000000000E+00  0.51222557985E+02  0.51222557985E+02  0.00000000000E+00 0.  1.
          1   -1    0    0  502    0  0.00000000000E+00 -0.00000000000E+00 -0.69741211151E+03  0.69741211151E+03  0.00000000000E+00 0. -1.
          6    1    1    2  502    0 -0.98123904475E+01 -0.42989252399E+02 -0.20021291142E+03  0.26825094357E+03  0.17300000000E+03 0.  1.
         -6    1    1    2    0  501  0.98123904475E+01  0.42989252399E+02 -0.44597664210E+03  0.48038372592E+03  0.17300000000E+03 0. -1.
<mgrwt>
<rscale>  2 0.17853111E+03</rscale>
<asrwt>0</asrwt>
<pdfrwt beam="1">  1        1 0.10729417E+00 0.17853111E+03</pdfrwt>
<pdfrwt beam="2">  1       -1 0.78803937E-02 0.17853111E+03</pdfrwt>
<totfact> 0.24711490E+03</totfact>
</mgrwt>
</event>
<event>
 4    1  0.7245070E-001  0.1989184E+03  0.7546771E-02  0.1150655E+00
          2   -1    0    0  502    0  0.00000000000E+00  0.00000000000E+00  0.43261068693E+02  0.43261068693E+02  0.00000000000E+00 0.  1.
         -2   -1    0    0    0  501 -0.00000000000E+00 -0.00000000000E+00 -0.91485929519E+03  0.91485929519E+03  0.00000000000E+00 0. -1.
          6    1    1    2  502    0 -0.87590903238E+02 -0.44355136456E+02 -0.42847677899E+03  0.47239908403E+03  0.17300000000E+03 0. -1.
         -6    1    1    2    0  501  0.87590903238E+02  0.44355136456E+02 -0.44312144751E+03  0.48572127985E+03  0.17300000000E+03 0.  1.
<mgrwt>
<rscale>  2 0.19891844E+03</rscale>
<asrwt>0</asrwt>
<pdfrwt beam="1">  1        2 0.66555490E-02 0.19891844E+03</pdfrwt>
<pdfrwt beam="2">  1       -2 0.14074758E+00 0.19891844E+03</pdfrwt>
<totfact> 0.40045452E+02</totfact>
</mgrwt>
</event>
<event>
 4    1  0.7245070E-001  0.5146277E+03  0.7546771E-02  0.1010030E+00
         -2   -1    0    0    0  501 -0.00000000000E+00  0.00000000000E+00  0.15324364186E+04  0.15324364186E+04  0.00000000000E+00 0. -1.
          2   -1    0    0  502    0  0.00000000000E+00 -0.00000000000E+00 -0.17387740479E+03  0.17387740479E+03  0.00000000000E+00 0.  1.
          6    1    1    2  502    0  0.40557454759E+03 -0.26537136939E+03  0.74568749973E+03  0.90603064220E+03  0.17300000000E+03 0.  1.
         -6    1    1    2    0  501 -0.40557454759E+03  0.26537136939E+03  0.61287151408E+03  0.80028318120E+03  0.17300000000E+03 0.  1.
<mgrwt>
<rscale>  2 0.51462771E+03</rscale>
<asrwt>0</asrwt>
<pdfrwt beam="1">  1        2 0.26750371E-01 0.51462771E+03</pdfrwt>
<pdfrwt beam="2">  1       -2 0.23575944E+00 0.51462771E+03</pdfrwt>
<totfact> 0.16737391E+01</totfact>
</mgrwt>
</event>
<event>
 4    1  0.7245070E-001  0.1779919E+03  0.7546771E-02  0.1169761E+00
          1   -1    0    0  502    0  0.00000000000E+00  0.00000000000E+00  0.97442397465E+02  0.97442397465E+02  0.00000000000E+00 0. -1.
         -1   -1    0    0    0  501 -0.00000000000E+00 -0.00000000000E+00 -0.60529431667E+03  0.60529431667E+03  0.00000000000E+00 0.  1.
          6    1    1    2  502    0  0.30096429686E+02 -0.29091350463E+02 -0.49297582509E+03  0.52412428476E+03  0.17300000000E+03 0.  1.
         -6    1    1    2    0  501 -0.30096429686E+02  0.29091350463E+02 -0.14876094115E+02  0.17861242938E+03  0.17300000000E+03 0. -1.
<mgrwt>
<rscale>  2 0.17799186E+03</rscale>
<asrwt>0</asrwt>
<pdfrwt beam="1">  1        1 0.14991138E-01 0.17799186E+03</pdfrwt>
<pdfrwt beam="2">  1       -1 0.93122201E-01 0.17799186E+03</pdfrwt>
<totfact> 0.44134326E+02</totfact>
</mgrwt>
</event>
<event>
 4    1  0.7245070E-001  0.1979496E+03  0.7546771E-02  0.1151481E+00
          1   -1    0    0  502    0  0.00000000000E+00  0.00000000000E+00  0.81464446327E+03  0.81464446327E+03  0.00000000000E+00 0. -1.
         -1   -1    0    0    0  501 -0.00000000000E+00 -0.00000000000E+00 -0.72451191021E+02  0.72451191021E+02  0.00000000000E+00 0.  1.
          6    1    1    2  502    0 -0.84570076025E+02  0.45857833177E+02  0.11394947360E+03  0.22840429321E+03  0.17300000000E+03 0.  1.
         -6    1    1    2    0  501  0.84570076025E+02 -0.45857833177E+02  0.62824379866E+03  0.65869136109E+03  0.17300000000E+03 0. -1.
<mgrwt>
<rscale>  2 0.19794959E+03</rscale>
<asrwt>0</asrwt>
<pdfrwt beam="1">  1        1 0.12532991E+00 0.19794959E+03</pdfrwt>
<pdfrwt beam="2">  1       -1 0.11146338E-01 0.19794959E+03</pdfrwt>
<totfact> 0.11537383E+03</totfact>
</mgrwt>
</event>
<event>
 4    1  0.7245070E-001  0.1824954E+03  0.7546771E-02  0.1165410E+00
          2   -1    0    0  502    0  0.00000000000E+00  0.00000000000E+00  0.35008736934E+03  0.35008736934E+03  0.00000000000E+00 0.  1.
         -2   -1    0    0    0  501 -0.00000000000E+00 -0.00000000000E+00 -0.11308964488E+03  0.11308964488E+03  0.00000000000E+00 0. -1.
          6    1    1    2  502    0 -0.56034400617E+02  0.15352651803E+02  0.21078334267E+03  0.27880849255E+03  0.17300000000E+03 0.  1.
         -6    1    1    2    0  501  0.56034400617E+02 -0.15352651803E+02  0.26214381795E+02  0.18436852167E+03  0.17300000000E+03 0. -1.
<mgrwt>
<rscale>  2 0.18249536E+03</rscale>
<asrwt>0</asrwt>
<pdfrwt beam="1">  1        2 0.53859595E-01 0.18249536E+03</pdfrwt>
<pdfrwt beam="2">  1       -2 0.17398407E-01 0.18249536E+03</pdfrwt>
<totfact> 0.24274663E+03</totfact>
</mgrwt>
</event>
<event>
 4    1  0.7245070E-001  0.2773227E+03  0.7546771E-02  0.1097160E+00
          2   -1    0    0  502    0  0.00000000000E+00  0.00000000000E+00  0.39805965322E+03  0.39805965322E+03  0.00000000000E+00 0.  1.
         -2   -1    0    0    0  501 -0.00000000000E+00 -0.00000000000E+00 -0.36584909909E+03  0.36584909909E+03  0.00000000000E+00 0. -1.
          6    1    1    2  502    0  0.20127260309E+03 -0.80425245850E+02  0.27848722110E+03  0.39301782815E+03  0.17300000000E+03 0.  1.
         -6    1    1    2    0  501 -0.20127260309E+03  0.80425245850E+02 -0.24627666697E+03  0.37089092416E+03  0.17300000000E+03 0. -1.
<mgrwt>
<rscale>  2 0.27732270E+03</rscale>
<asrwt>0</asrwt>
<pdfrwt beam="1">  1        2 0.61239947E-01 0.27732270E+03</pdfrwt>
<pdfrwt beam="2">  1       -2 0.56284477E-01 0.27732270E+03</pdfrwt>
<totfact> 0.24409060E+02</totfact>
</mgrwt>
</event>
<event>
 4    1  0.7245070E-001  0.2836356E+03  0.7546771E-02  0.1093720E+00
         -1   -1    0    0    0  501 -0.00000000000E+00  0.00000000000E+00  0.10565122045E+03  0.10565122045E+03  0.00000000000E+00 0.  1.
          1   -1    0    0  502    0  0.00000000000E+00 -0.00000000000E+00 -0.76976346175E+03  0.76976346175E+03  0.00000000000E+00 0. -1.
          6    1    1    2  502    0 -0.97645726642E+01  0.22455473044E+03 -0.37751679660E+03  0.47219498680E+03  0.17300000000E+03 0.  1.
         -6    1    1    2    0  501  0.97645726642E+01 -0.22455473044E+03 -0.28659544470E+03  0.40321969541E+03  0.17300000000E+03 0.  1.
<mgrwt>
<rscale>  2 0.28363564E+03</rscale>
<asrwt>0</asrwt>
<pdfrwt beam="1">  1        1 0.11842515E+00 0.28363564E+03</pdfrwt>
<pdfrwt beam="2">  1       -1 0.16254034E-01 0.28363564E+03</pdfrwt>
<totfact> 0.69280623E+02</totfact>
</mgrwt>
</event>
<event>
 4    1  0.7245070E-001  0.2334247E+03  0.7546771E-02  0.1124252E+00
         -2   -1    0    0    0  501 -0.00000000000E+00  0.00000000000E+00  0.97491354875E+02  0.97491354875E+02  0.00000000000E+00 0.  1.
          2   -1    0    0  502    0  0.00000000000E+00 -0.00000000000E+00 -0.85859075156E+03  0.85859075156E+03  0.00000000000E+00 0. -1.
          6    1    1    2  502    0 -0.12861555528E+03 -0.89532875832E+02 -0.66298232567E+03  0.70287456994E+03  0.17300000000E+03 0. -1.
         -6    1    1    2    0  501  0.12861555528E+03  0.89532875832E+02 -0.98117071014E+02  0.25320753650E+03  0.17300000000E+03 0.  1.
<mgrwt>
<rscale>  2 0.23342471E+03</rscale>
<asrwt>0</asrwt>
<pdfrwt beam="1">  1        2 0.13209088E+00 0.23342471E+03</pdfrwt>
<pdfrwt beam="2">  1       -2 0.14998670E-01 0.23342471E+03</pdfrwt>
<totfact> 0.11097861E+03</totfact>
</mgrwt>
</event>
<event>
 4    1  0.7245070E-001  0.1796406E+03  0.7546771E-02  0.1168151E+00
          1   -1    0    0  502    0  0.00000000000E+00  0.00000000000E+00  0.45455345316E+03  0.45455345316E+03  0.00000000000E+00 0. -1.
         -1   -1    0    0    0  501 -0.00000000000E+00 -0.00000000000E+00 -0.97281721648E+02  0.97281721648E+02  0.00000000000E+00 0.  1.
          6    1    1    2  502    0  0.19036127387E+02 -0.44490259888E+02  0.32206480605E+03  0.36877702838E+03  0.17300000000E+03 0. -1.
         -6    1    1    2    0  501 -0.19036127387E+02  0.44490259888E+02  0.35206925463E+02  0.18305814642E+03  0.17300000000E+03 0.  1.
<mgrwt>
<rscale>  2 0.17964063E+03</rscale>
<asrwt>0</asrwt>
<pdfrwt beam="1">  1        1 0.69931299E-01 0.17964063E+03</pdfrwt>
<pdfrwt beam="2">  1       -1 0.14966419E-01 0.17964063E+03</pdfrwt>
<totfact> 0.16400402E+03</totfact>
</mgrwt>
</event>
<event>
 4    1  0.7245070E-001  0.4152635E+03  0.7546771E-02  0.1038619E+00
          1   -1    0    0  502    0  0.00000000000E+00  0.00000000000E+00  0.63375795400E+03  0.63375795400E+03  0.00000000000E+00 0. -1.
         -1   -1    0    0    0  501 -0.00000000000E+00 -0.00000000000E+00 -0.32558512645E+03  0.32558512645E+03  0.00000000000E+00 0.  1.
          6    1    1    2  502    0 -0.87886122625E+02  0.36713865876E+03  0.34850579241E+03  0.54212549530E+03  0.17300000000E+03 0. -1.
         -6    1    1    2    0  501  0.87886122625E+02 -0.36713865876E+03 -0.40332964862E+02  0.41721758515E+03  0.17300000000E+03 0.  1.
<mgrwt>
<rscale>  2 0.41526349E+03</rscale>
<asrwt>0</asrwt>
<pdfrwt beam="1">  1        1 0.97501224E-01 0.41526349E+03</pdfrwt>
<pdfrwt beam="2">  1       -1 0.50090019E-01 0.41526349E+03</pdfrwt>
<totfact> 0.13224062E+02</totfact>
</mgrwt>
</event>
<event>
 4    1  0.7245070E-001  0.3835146E+03  0.7546771E-02  0.1049642E+00
          2   -1    0    0  502    0  0.00000000000E+00  0.00000000000E+00  0.26960591788E+03  0.26960591788E+03  0.00000000000E+00 0. -1.
         -2   -1    0    0    0  501 -0.00000000000E+00 -0.00000000000E+00 -0.58113849712E+03  0.58113849712E+03  0.00000000000E+00 0.  1.
          6    1    1    2  502    0  0.28462446385E+03 -0.19011412147E+03 -0.50501020348E+02  0.38682530638E+03  0.17300000000E+03 0.  1.
         -6    1    1    2    0  501 -0.28462446385E+03  0.19011412147E+03 -0.26103155888E+03  0.46391910861E+03  0.17300000000E+03 0. -1.
<mgrwt>
<rscale>  2 0.38351462E+03</rscale>
<asrwt>0</asrwt>
<pdfrwt beam="1">  1        2 0.41477833E-01 0.38351462E+03</pdfrwt>
<pdfrwt beam="2">  1       -2 0.89405923E-01 0.38351462E+03</pdfrwt>
<totfact> 0.13629564E+02</totfact>
</mgrwt>
</event>
<event>
 4    1  0.7245070E-001  0.1744087E+03  0.7546771E-02  0.1173327E+00
         -2   -1    0    0    0  501 -0.00000000000E+00  0.00000000000E+00  0.52371276813E+02  0.52371276813E+02  0.00000000000E+00 0. -1.
          2   -1    0    0  502    0  0.00000000000E+00 -0.00000000000E+00 -0.71937104296E+03  0.71937104296E+03  0.00000000000E+00 0.  1.
          6    1    1    2  502    0 -0.21705998377E+02 -0.42715672324E+01 -0.50284294292E+03  0.53223060970E+03  0.17300000000E+03 0.  1.
         -6    1    1    2    0  501  0.21705998377E+02  0.42715672324E+01 -0.16415682322E+03  0.23951171007E+03  0.17300000000E+03 0. -1.
<mgrwt>
<rscale>  2 0.17440871E+03</rscale>
<asrwt>0</asrwt>
<pdfrwt beam="1">  1        2 0.11067246E+00 0.17440871E+03</pdfrwt>
<pdfrwt beam="2">  1       -2 0.80571203E-02 0.17440871E+03</pdfrwt>
<totfact> 0.37308314E+03</totfact>
</mgrwt>
</event>
<event>
 4    1  0.7245070E-001  0.1818823E+03  0.7546771E-02  0.1165994E+00
          2   -1    0    0  502    0  0.00000000000E+00  0.00000000000E+00  0.70161850383E+03  0.70161850383E+03  0.00000000000E+00 0.  1.
         -2   -1    0    0    0  501 -0.00000000000E+00 -0.00000000000E+00 -0.47494316941E+02  0.47494316941E+02  0.00000000000E+00 0. -1.
          6    1    1    2  502    0  0.29148453403E+02  0.47984776253E+02  0.35896297176E+03  0.40241220929E+03  0.17300000000E+03 0.  1.
         -6    1    1    2    0  501 -0.29148453403E+02 -0.47984776253E+02  0.29516121513E+03  0.34670061148E+03  0.17300000000E+03 0. -1.
<mgrwt>
<rscale>  2 0.18188230E+03</rscale>
<asrwt>0</asrwt>
<pdfrwt beam="1">  1        2 0.10794130E+00 0.18188230E+03</pdfrwt>
<pdfrwt beam="2">  1       -2 0.73068185E-02 0.18188230E+03</pdfrwt>
<totfact> 0.44806278E+03</totfact>
</mgrwt>
</event>
<event>
 4    1  0.7245070E-001  0.1898330E+03  0.7546771E-02  0.1158612E+00
          3   -1    0    0  502    0  0.00000000000E+00  0.00000000000E+00  0.12722461636E+03  0.12722461636E+03  0.00000000000E+00 0.  1.
         -3   -1    0    0    0  501 -0.00000000000E+00 -0.00000000000E+00 -0.29538230711E+03  0.29538230711E+03  0.00000000000E+00 0. -1.
          6    1    1    2  502    0  0.76582276267E+02 -0.15579978204E+02 -0.41257847681E+02  0.19426474398E+03  0.17300000000E+03 0.  1.
         -6    1    1    2    0  501 -0.76582276267E+02  0.15579978204E+02 -0.12689984307E+03  0.22834217948E+03  0.17300000000E+03 0. -1.
<mgrwt>
<rscale>  2 0.18983303E+03</rscale>
<asrwt>0</asrwt>
<pdfrwt beam="1">  1        3 0.19573018E-01 0.18983303E+03</pdfrwt>
<pdfrwt beam="2">  1       -3 0.45443431E-01 0.18983303E+03</pdfrwt>
<totfact> 0.27372717E+02</totfact>
</mgrwt>
</event>
<event>
 4    1  0.7245070E-001  0.2370781E+03  0.7546771E-02  0.1121755E+00
         -1   -1    0    0    0  501 -0.00000000000E+00  0.00000000000E+00  0.56037302851E+03  0.56037302851E+03  0.00000000000E+00 0.  1.
          1   -1    0    0  502    0  0.00000000000E+00 -0.00000000000E+00 -0.10096376946E+03  0.10096376946E+03  0.00000000000E+00 0. -1.
          6    1    1    2  502    0  0.10238910171E+03 -0.12567219540E+03  0.20291542899E+03  0.31205880882E+03  0.17300000000E+03 0. -1.
         -6    1    1    2    0  501 -0.10238910171E+03  0.12567219540E+03  0.25649383006E+03  0.34927798915E+03  0.17300000000E+03 0.  1.
<mgrwt>
<rscale>  2 0.23707811E+03</rscale>
<asrwt>0</asrwt>
<pdfrwt beam="1">  1        1 0.15532888E-01 0.23707811E+03</pdfrwt>
<pdfrwt beam="2">  1       -1 0.86211233E-01 0.23707811E+03</pdfrwt>
<totfact> 0.49681462E+02</totfact>
</mgrwt>
</event>
<event>
 4    1  0.7245070E-001  0.1992588E+03  0.7546771E-02  0.1150366E+00
          2   -1    0    0  502    0  0.00000000000E+00  0.00000000000E+00  0.17630456390E+04  0.17630456390E+04  0.00000000000E+00 0.  1.
         -2   -1    0    0    0  501 -0.00000000000E+00 -0.00000000000E+00 -0.23387130992E+02  0.23387130992E+02  0.00000000000E+00 0. -1.
          6    1    1    2  502    0 -0.92938781462E+02  0.33725860083E+02  0.69785112920E+03  0.72574117237E+03  0.17300000000E+03 0. -1.
         -6    1    1    2    0  501  0.92938781462E+02 -0.33725860083E+02  0.10418073788E+04  0.10606915976E+04  0.17300000000E+03 0.  1.
<mgrwt>
<rscale>  2 0.19925875E+03</rscale>
<asrwt>0</asrwt>
<pdfrwt beam="1">  1        2 0.27123769E+00 0.19925875E+03</pdfrwt>
<pdfrwt beam="2">  1       -2 0.35980215E-02 0.19925875E+03</pdfrwt>
<totfact> 0.31897399E+03</totfact>
</mgrwt>
</event>
<event>
 4    1  0.7245070E-001  0.1800296E+03  0.7546771E-02  0.1167774E+00
          2   -1    0    0  502    0  0.00000000000E+00  0.00000000000E+00  0.63301040382E+03  0.63301040382E+03  0.00000000000E+00 0.  1.
         -2   -1    0    0    0  501 -0.00000000000E+00 -0.00000000000E+00 -0.73498336166E+02  0.73498336166E+02  0.00000000000E+00 0. -1.
          6    1    1    2  502    0  0.49150971460E+02  0.81145423071E+01  0.85185599850E+02  0.19916638826E+03  0.17300000000E+03 0. -1.
         -6    1    1    2    0  501 -0.49150971460E+02 -0.81145423071E+01  0.47432646781E+03  0.50734235172E+03  0.17300000000E+03 0.  1.
<mgrwt>
<rscale>  2 0.18002962E+03</rscale>
<asrwt>0</asrwt>
<pdfrwt beam="1">  1        2 0.97386212E-01 0.18002962E+03</pdfrwt>
<pdfrwt beam="2">  1       -2 0.11307437E-01 0.18002962E+03</pdfrwt>
<totfact> 0.25482622E+03</totfact>
</mgrwt>
</event>
<event>
 4    1  0.7245070E-001  0.2592064E+03  0.7546771E-02  0.1107621E+00
          2   -1    0    0  502    0  0.00000000000E+00  0.00000000000E+00  0.88762138737E+03  0.88762138737E+03  0.00000000000E+00 0. -1.
         -2   -1    0    0    0  501 -0.00000000000E+00 -0.00000000000E+00 -0.99212403755E+02  0.99212403755E+02  0.00000000000E+00 0.  1.
          6    1    1    2  502    0 -0.18462250677E+03  0.56333778625E+02  0.63443673519E+03  0.68534512151E+03  0.17300000000E+03 0. -1.
         -6    1    1    2    0  501  0.18462250677E+03 -0.56333778625E+02  0.15397224842E+03  0.30148866961E+03  0.17300000000E+03 0.  1.
<mgrwt>
<rscale>  2 0.25920641E+03</rscale>
<asrwt>0</asrwt>
<pdfrwt beam="1">  1        2 0.13655713E+00 0.25920641E+03</pdfrwt>
<pdfrwt beam="2">  1       -2 0.15263447E-01 0.25920641E+03</pdfrwt>
<totfact> 0.10312772E+03</totfact>
</mgrwt>
</event>
<event>
 4    1  0.7245070E-001  0.1772391E+03  0.7546771E-02  0.1170502E+00
          2   -1    0    0  502    0  0.00000000000E+00  0.00000000000E+00  0.19387588648E+04  0.19387588648E+04  0.00000000000E+00 0. -1.
         -2   -1    0    0    0  501 -0.00000000000E+00 -0.00000000000E+00 -0.40176255325E+02  0.40176255325E+02  0.00000000000E+00 0.  1.
          6    1    1    2  502    0 -0.38222335690E+02 -0.48745540698E+01  0.18496229063E+03  0.25617329521E+03  0.17300000000E+03 0.  1.
         -6    1    1    2    0  501  0.38222335690E+02  0.48745540698E+01  0.17136203188E+04  0.17227618249E+04  0.17300000000E+03 0. -1.
<mgrwt>
<rscale>  2 0.17723913E+03</rscale>
<asrwt>0</asrwt>
<pdfrwt beam="1">  1        2 0.29827052E+00 0.17723913E+03</pdfrwt>
<pdfrwt beam="2">  1       -2 0.61809639E-02 0.17723913E+03</pdfrwt>
<totfact> 0.11443317E+03</totfact>
</mgrwt>
</event>
<event>
 4    1  0.7245070E-001  0.2466658E+03  0.7546771E-02  0.1115430E+00
         -3   -1    0    0    0  501 -0.00000000000E+00  0.00000000000E+00  0.43569479816E+03  0.43569479816E+03  0.00000000000E+00 0. -1.
          3   -1    0    0  502    0  0.00000000000E+00 -0.00000000000E+00 -0.16012127469E+03  0.16012127469E+03  0.00000000000E+00 0.  1.
          6    1    1    2  502    0 -0.16873096057E+03  0.49445534133E+02  0.31262349250E+02  0.24863895990E+03  0.17300000000E+03 0.  1.
         -6    1    1    2    0  501  0.16873096057E+03 -0.49445534133E+02  0.24431117423E+03  0.34717711295E+03  0.17300000000E+03 0. -1.
<mgrwt>
<rscale>  2 0.24666576E+03</rscale>
<asrwt>0</asrwt>
<pdfrwt beam="1">  1        3 0.24634042E-01 0.24666576E+03</pdfrwt>
<pdfrwt beam="2">  1       -3 0.67029968E-01 0.24666576E+03</pdfrwt>
<totfact> 0.83647321E+01</totfact>
</mgrwt>
</event>
<event>
 4    1  0.7245070E-001  0.1764373E+03  0.7546771E-02  0.1171296E+00
          2   -1    0    0  502    0  0.00000000000E+00  0.00000000000E+00  0.11361515249E+04  0.11361515249E+04  0.00000000000E+00 0.  1.
         -2   -1    0    0    0  501 -0.00000000000E+00 -0.00000000000E+00 -0.10650853444E+03  0.10650853444E+03  0.00000000000E+00 0. -1.
          6    1    1    2  502    0 -0.28577006197E+02  0.19607639135E+02 -0.20658053924E+02  0.17764250614E+03  0.17300000000E+03 0. -1.
         -6    1    1    2    0  501  0.28577006197E+02 -0.19607639135E+02  0.10503010443E+04  0.10650175532E+04  0.17300000000E+03 0.  1.
<mgrwt>
<rscale>  2 0.17643725E+03</rscale>
<asrwt>0</asrwt>
<pdfrwt beam="1">  1        2 0.17479253E+00 0.17643725E+03</pdfrwt>
<pdfrwt beam="2">  1       -2 0.16385929E-01 0.17643725E+03</pdfrwt>
<totfact> 0.65038485E+02</totfact>
</mgrwt>
</event>
<event>
 4    1  0.7245070E-001  0.2331569E+03  0.7546771E-02  0.1124437E+00
         -1   -1    0    0    0  501 -0.00000000000E+00  0.00000000000E+00  0.11011807628E+03  0.11011807628E+03  0.00000000000E+00 0. -1.
          1   -1    0    0  502    0  0.00000000000E+00 -0.00000000000E+00 -0.67089760512E+03  0.67089760512E+03  0.00000000000E+00 0.  1.
          6    1    1    2  502    0 -0.56884484904E+02 -0.14559293601E+03 -0.48109817686E+03  0.53461911995E+03  0.17300000000E+03 0.  1.
         -6    1    1    2    0  501  0.56884484904E+02  0.14559293601E+03 -0.79681351982E+02  0.24639656144E+03  0.17300000000E+03 0. -1.
<mgrwt>
<rscale>  2 0.23315692E+03</rscale>
<asrwt>0</asrwt>
<pdfrwt beam="1">  1        1 0.10321502E+00 0.23315692E+03</pdfrwt>
<pdfrwt beam="2">  1       -1 0.16941242E-01 0.23315692E+03</pdfrwt>
<totfact> 0.79572239E+02</totfact>
</mgrwt>
</event>
<event>
 4    1  0.7245070E-001  0.1948488E+03  0.7546771E-02  0.1154159E+00
         -2   -1    0    0    0  501 -0.00000000000E+00  0.00000000000E+00  0.47906517620E+02  0.47906517620E+02  0.00000000000E+00 0. -1.
          2   -1    0    0  502    0  0.00000000000E+00 -0.00000000000E+00 -0.27482923885E+04  0.27482923885E+04  0.00000000000E+00 0.  1.
          6    1    1    2  502    0 -0.39877171695E+02 -0.80292417098E+02 -0.25296106217E+04  0.25371038525E+04  0.17300000000E+03 0.  1.
         -6    1    1    2    0  501  0.39877171695E+02  0.80292417098E+02 -0.17077524917E+03  0.25909505359E+03  0.17300000000E+03 0. -1.
<mgrwt>
<rscale>  2 0.19484882E+03</rscale>
<asrwt>0</asrwt>
<pdfrwt beam="1">  1        2 0.42281436E+00 0.19484882E+03</pdfrwt>
<pdfrwt beam="2">  1       -2 0.73702309E-02 0.19484882E+03</pdfrwt>
<totfact> 0.32129805E+02</totfact>
</mgrwt>
</event>
<event>
 4    1  0.7245070E-001  0.2973234E+03  0.7546771E-02  0.1086586E+00
         -2   -1    0    0    0  501 -0.00000000000E+00  0.00000000000E+00  0.56995339961E+03  0.56995339961E+03  0.00000000000E+00 0. -1.
          2   -1    0    0  502    0  0.00000000000E+00 -0.00000000000E+00 -0.15699915963E+03  0.15699915963E+03  0.00000000000E+00 0.  1.
          6    1    1    2  502    0  0.22860963967E+03 -0.78802701663E+02  0.16652729483E+03  0.34078229570E+03  0.17300000000E+03 0.  1.
         -6    1    1    2    0  501 -0.22860963967E+03  0.78802701663E+02  0.24642694515E+03  0.38617026353E+03  0.17300000000E+03 0. -1.
<mgrwt>
<rscale>  2 0.29732345E+03</rscale>
<asrwt>0</asrwt>
<pdfrwt beam="1">  1        2 0.24153717E-01 0.29732345E+03</pdfrwt>
<pdfrwt beam="2">  1       -2 0.87685137E-01 0.29732345E+03</pdfrwt>
<totfact> 0.26041051E+02</totfact>
</mgrwt>
</event>
<event>
 4    1  0.7245070E-001  0.1742341E+03  0.7546771E-02  0.1173503E+00
          1   -1    0    0  502    0  0.00000000000E+00  0.00000000000E+00  0.11333807766E+03  0.11333807766E+03  0.00000000000E+00 0.  1.
         -1   -1    0    0    0  501 -0.00000000000E+00 -0.00000000000E+00 -0.26805466826E+03  0.26805466826E+03  0.00000000000E+00 0. -1.
          6    1    1    2  502    0  0.63146743285E+01  0.19714314754E+02 -0.82636119506E+02  0.19283738633E+03  0.17300000000E+03 0. -1.
         -6    1    1    2    0  501 -0.63146743285E+01 -0.19714314754E+02 -0.72080471091E+02  0.18855535959E+03  0.17300000000E+03 0. -1.
<mgrwt>
<rscale>  2 0.17423412E+03</rscale>
<asrwt>0</asrwt>
<pdfrwt beam="1">  1        1 0.17436627E-01 0.17423412E+03</pdfrwt>
<pdfrwt beam="2">  1       -1 0.41239179E-01 0.17423412E+03</pdfrwt>
<totfact> 0.17591624E+03</totfact>
</mgrwt>
</event>
<event>
 4    1  0.7245070E-001  0.2816185E+03  0.7546771E-02  0.1094808E+00
         -2   -1    0    0    0  501 -0.00000000000E+00  0.00000000000E+00  0.40344343794E+02  0.40344343794E+02  0.00000000000E+00 0.  1.
          2   -1    0    0  502    0  0.00000000000E+00 -0.00000000000E+00 -0.19745839085E+04  0.19745839085E+04  0.00000000000E+00 0. -1.
          6    1    1    2  502    0  0.28869632684E+02  0.22033280439E+03 -0.10343061153E+04  0.10719599528E+04  0.17300000000E+03 0. -1.
         -6    1    1    2    0  501 -0.28869632684E+02 -0.22033280439E+03 -0.89993344939E+03  0.94296829943E+03  0.17300000000E+03 0.  1.
<mgrwt>
<rscale>  2 0.28161854E+03</rscale>
<asrwt>0</asrwt>
<pdfrwt beam="1">  1        2 0.30378218E+00 0.28161854E+03</pdfrwt>
<pdfrwt beam="2">  1       -2 0.62068213E-02 0.28161854E+03</pdfrwt>
<totfact> 0.10750815E+03</totfact>
</mgrwt>
</event>
<event>
 4    1  0.7245070E-001  0.2426419E+03  0.7546771E-02  0.1118045E+00
          2   -1    0    0  502    0  0.00000000000E+00  0.00000000000E+00  0.55815864006E+03  0.55815864006E+03  0.00000000000E+00 0. -1.
         -2   -1    0    0    0  501 -0.00000000000E+00 -0.00000000000E+00 -0.16237165565E+03  0.16237165565E+03  0.00000000000E+00 0.  1.
          6    1    1    2  502    0  0.38412276013E+02  0.16574249814E+03  0.41114296782E+03  0.47740299394E+03  0.17300000000E+03 0. -1.
         -6    1    1    2    0  501 -0.38412276013E+02 -0.16574249814E+03 -0.15355983414E+02  0.24312730177E+03  0.17300000000E+03 0.  1.
<mgrwt>
<rscale>  2 0.24264187E+03</rscale>
<asrwt>0</asrwt>
<pdfrwt beam="1">  1        2 0.85870559E-01 0.24264187E+03</pdfrwt>
<pdfrwt beam="2">  1       -2 0.24980255E-01 0.24264187E+03</pdfrwt>
<totfact> 0.78392774E+02</totfact>
</mgrwt>
</event>
<event>
 4    1  0.7245070E-001  0.2237468E+03  0.7546771E-02  0.1131120E+00
         -1   -1    0    0    0  501 -0.00000000000E+00  0.00000000000E+00  0.20107702266E+03  0.20107702266E+03  0.00000000000E+00 0. -1.
          1   -1    0    0  502    0  0.00000000000E+00 -0.00000000000E+00 -0.31622501703E+03  0.31622501703E+03  0.00000000000E+00 0.  1.
          6    1    1    2  502    0 -0.40045869363E+02 -0.13612483431E+03  0.61706781185E+02  0.23209991170E+03  0.17300000000E+03 0. -1.
         -6    1    1    2    0  501  0.40045869363E+02  0.13612483431E+03 -0.17685477556E+03  0.28520212798E+03  0.17300000000E+03 0.  1.
<mgrwt>
<rscale>  2 0.22374683E+03</rscale>
<asrwt>0</asrwt>
<pdfrwt beam="1">  1        1 0.48650002E-01 0.22374683E+03</pdfrwt>
<pdfrwt beam="2">  1       -1 0.30934927E-01 0.22374683E+03</pdfrwt>
<totfact> 0.79579177E+02</totfact>
</mgrwt>
</event>
<event>
 4    1  0.7245070E-001  0.1756209E+03  0.7546771E-02  0.1172110E+00
          2   -1    0    0  502    0  0.00000000000E+00  0.00000000000E+00  0.14707956929E+03  0.14707956929E+03  0.00000000000E+00 0. -1.
         -2   -1    0    0    0  501 -0.00000000000E+00 -0.00000000000E+00 -0.22471044032E+03  0.22471044032E+03  0.00000000000E+00 0.  1.
          6    1    1    2  502    0  0.53618762475E+01  0.29748151392E+02  0.92288066254E+01  0.17586322270E+03  0.17300000000E+03 0. -1.
         -6    1    1    2    0  501 -0.53618762475E+01 -0.29748151392E+02 -0.86859677653E+02  0.19592678691E+03  0.17300000000E+03 0. -1.
<mgrwt>
<rscale>  2 0.17562090E+03</rscale>
<asrwt>0</asrwt>
<pdfrwt beam="1">  1        2 0.22627626E-01 0.17562090E+03</pdfrwt>
<pdfrwt beam="2">  1       -2 0.34570837E-01 0.17562090E+03</pdfrwt>
<totfact> 0.18621926E+03</totfact>
</mgrwt>
</event>
<event>
 4    1  0.7245070E-001  0.1886195E+03  0.7546771E-02  0.1159712E+00
         -2   -1    0    0    0  501 -0.00000000000E+00  0.00000000000E+00  0.41794410025E+03  0.41794410025E+03  0.00000000000E+00 0.  1.
          2   -1    0    0  502    0  0.00000000000E+00 -0.00000000000E+00 -0.88483288014E+02  0.88483288014E+02  0.00000000000E+00 0. -1.
          6    1    1    2  502    0  0.35771035806E+02  0.66096615228E+02  0.11539705785E+03  0.22111944851E+03  0.17300000000E+03 0. -1.
         -6    1    1    2    0  501 -0.35771035806E+02 -0.66096615228E+02  0.21406375438E+03  0.28530793976E+03  0.17300000000E+03 0.  1.
<mgrwt>
<rscale>  2 0.18861954E+03</rscale>
<asrwt>0</asrwt>
<pdfrwt beam="1">  1        2 0.13612814E-01 0.18861954E+03</pdfrwt>
<pdfrwt beam="2">  1       -2 0.64299091E-01 0.18861954E+03</pdfrwt>
<totfact> 0.99159601E+02</totfact>
</mgrwt>
</event>
<event>
 4    1  0.7245070E-001  0.2221441E+03  0.7546771E-02  0.1132295E+00
         -2   -1    0    0    0  501 -0.00000000000E+00  0.00000000000E+00  0.92883773777E+02  0.92883773777E+02  0.00000000000E+00 0.  1.
          2   -1    0    0  502    0  0.00000000000E+00 -0.00000000000E+00 -0.57430274435E+03  0.57430274435E+03  0.00000000000E+00 0. -1.
          6    1    1    2  502    0 -0.11645319436E+03 -0.76535226515E+02 -0.14941216102E+03  0.26771623267E+03  0.17300000000E+03 0.  1.
         -6    1    1    2    0  501  0.11645319436E+03  0.76535226515E+02 -0.33200680955E+03  0.39947028546E+03  0.17300000000E+03 0. -1.
<mgrwt>
<rscale>  2 0.22214407E+03</rscale>
<asrwt>0</asrwt>
<pdfrwt beam="1">  1        2 0.88354268E-01 0.22214407E+03</pdfrwt>
<pdfrwt beam="2">  1       -2 0.14289811E-01 0.22214407E+03</pdfrwt>
<totfact> 0.19608759E+03</totfact>
</mgrwt>
</event>
<event>
 4    1  0.7245070E-001  0.1921073E+03  0.7546771E-02  0.1156574E+00
          2   -1    0    0  502    0  0.00000000000E+00  0.00000000000E+00  0.15113708647E+03  0.15113708647E+03  0.00000000000E+00 0.  1.
         -2   -1    0    0    0  501 -0.00000000000E+00 -0.00000000000E+00 -0.28674367431E+03  0.28674367431E+03  0.00000000000E+00 0. -1.
          6    1    1    2  502    0  0.52145313393E+02 -0.65246261914E+02  0.16545675050E+02  0.19281848398E+03  0.17300000000E+03 0.  1.
         -6    1    1    2    0  501 -0.52145313393E+02  0.65246261914E+02 -0.15215226289E+03  0.24506227679E+03  0.17300000000E+03 0. -1.
<mgrwt>
<rscale>  2 0.19210728E+03</rscale>
<asrwt>0</asrwt>
<pdfrwt beam="1">  1        2 0.23251860E-01 0.19210728E+03</pdfrwt>
<pdfrwt beam="2">  1       -2 0.44114411E-01 0.19210728E+03</pdfrwt>
<totfact> 0.11410501E+03</totfact>
</mgrwt>
</event>
<event>
 4    1  0.7245070E-001  0.1940903E+03  0.7546771E-02  0.1154823E+00
         -2   -1    0    0    0  501 -0.00000000000E+00  0.00000000000E+00  0.31428145301E+03  0.31428145301E+03  0.00000000000E+00 0. -1.
          2   -1    0    0  502    0  0.00000000000E+00 -0.00000000000E+00 -0.12094689423E+03  0.12094689423E+03  0.00000000000E+00 0.  1.
          6    1    1    2  502    0  0.19303230497E+01  0.87967739580E+02  0.11725801293E+03  0.22676086732E+03  0.17300000000E+03 0.  1.
         -6    1    1    2    0  501 -0.19303230497E+01 -0.87967739580E+02  0.76076545851E+02  0.20846747992E+03  0.17300000000E+03 0.  1.
<mgrwt>
<rscale>  2 0.19409031E+03</rscale>
<asrwt>0</asrwt>
<pdfrwt beam="1">  1        2 0.18607215E-01 0.19409031E+03</pdfrwt>
<pdfrwt beam="2">  1       -2 0.48350992E-01 0.19409031E+03</pdfrwt>
<totfact> 0.12286556E+03</totfact>
</mgrwt>
</event>
<event>
 4    1  0.7245070E-001  0.2349077E+03  0.7546771E-02  0.1123232E+00
         -1   -1    0    0    0  501 -0.00000000000E+00  0.00000000000E+00  0.16925093546E+03  0.16925093546E+03  0.00000000000E+00 0. -1.
          1   -1    0    0  502    0  0.00000000000E+00 -0.00000000000E+00 -0.32810408909E+03  0.32810408909E+03  0.00000000000E+00 0.  1.
          6    1    1    2  502    0  0.12223710005E+03 -0.10154166344E+03 -0.99177569137E+02  0.25498589816E+03  0.17300000000E+03 0. -1.
         -6    1    1    2    0  501 -0.12223710005E+03  0.10154166344E+03 -0.59675584484E+02  0.24236912639E+03  0.17300000000E+03 0. -1.
<mgrwt>
<rscale>  2 0.23490768E+03</rscale>
<asrwt>0</asrwt>
<pdfrwt beam="1">  1        1 0.50477552E-01 0.23490768E+03</pdfrwt>
<pdfrwt beam="2">  1       -1 0.26038606E-01 0.23490768E+03</pdfrwt>
<totfact> 0.10166127E+03</totfact>
</mgrwt>
</event>
<event>
 4    1  0.7245070E-001  0.2085013E+03  0.7546771E-02  0.1142758E+00
          2   -1    0    0  502    0  0.00000000000E+00  0.00000000000E+00  0.18203427613E+04  0.18203427613E+04  0.00000000000E+00 0. -1.
         -2   -1    0    0    0  501 -0.00000000000E+00 -0.00000000000E+00 -0.26318879686E+02  0.26318879686E+02  0.00000000000E+00 0.  1.
          6    1    1    2  502    0 -0.10685156405E+03 -0.46114176825E+02  0.61603377040E+03  0.65036173036E+03  0.17300000000E+03 0.  1.
         -6    1    1    2    0  501  0.10685156405E+03  0.46114176825E+02  0.11779901112E+04  0.11962999106E+04  0.17300000000E+03 0. -1.
<mgrwt>
<rscale>  2 0.20850126E+03</rscale>
<asrwt>0</asrwt>
<pdfrwt beam="1">  1        2 0.28005263E+00 0.20850126E+03</pdfrwt>
<pdfrwt beam="2">  1       -2 0.40490598E-02 0.20850126E+03</pdfrwt>
<totfact> 0.24952208E+03</totfact>
</mgrwt>
</event>
<event>
 4    1  0.7245070E-001  0.3061954E+03  0.7546771E-02  0.1082184E+00
          2   -1    0    0  502    0  0.00000000000E+00  0.00000000000E+00  0.17062353552E+04  0.17062353552E+04  0.00000000000E+00 0. -1.
         -2   -1    0    0    0  501 -0.00000000000E+00 -0.00000000000E+00 -0.26281410405E+03  0.26281410405E+03  0.00000000000E+00 0.  1.
          6    1    1    2  502    0 -0.11675408323E+03  0.22404263606E+03 -0.15386422211E+03  0.34268034314E+03  0.17300000000E+03 0.  1.
         -6    1    1    2    0  501  0.11675408323E+03 -0.22404263606E+03  0.15972854733E+04  0.16263691161E+04  0.17300000000E+03 0. -1.
<mgrwt>
<rscale>  2 0.30619539E+03</rscale>
<asrwt>0</asrwt>
<pdfrwt beam="1">  1        2 0.26249774E+00 0.30619539E+03</pdfrwt>
<pdfrwt beam="2">  1       -2 0.40432940E-01 0.30619539E+03</pdfrwt>
<totfact> 0.62081122E+01</totfact>
</mgrwt>
</event>
<event>
 4    1  0.7245070E-001  0.3469784E+03  0.7546771E-02  0.1063862E+00
          4   -1    0    0  502    0  0.00000000000E+00  0.00000000000E+00  0.15944913651E+03  0.15944913651E+03  0.00000000000E+00 0. -1.
         -4   -1    0    0    0  501 -0.00000000000E+00 -0.00000000000E+00 -0.98903689796E+03  0.98903689796E+03  0.00000000000E+00 0.  1.
          6    1    1    2  502    0 -0.10768052116E+03  0.28083782269E+03 -0.13549181508E+03  0.37249430767E+03  0.17300000000E+03 0. -1.
         -6    1    1    2    0  501  0.10768052116E+03 -0.28083782269E+03 -0.69409594637E+03  0.77599172680E+03  0.17300000000E+03 0.  1.
<mgrwt>
<rscale>  2 0.34697835E+03</rscale>
<asrwt>0</asrwt>
<pdfrwt beam="1">  1        4 0.24530636E-01 0.34697835E+03</pdfrwt>
<pdfrwt beam="2">  1       -4 0.15215952E+00 0.34697835E+03</pdfrwt>
<totfact> 0.87356880E+00</totfact>
</mgrwt>
</event>
<event>
 4    1  0.7245070E-001  0.2099159E+03  0.7546771E-02  0.1141633E+00
         -2   -1    0    0    0  501 -0.00000000000E+00  0.00000000000E+00  0.28393592242E+02  0.28393592242E+02  0.00000000000E+00 0. -1.
          2   -1    0    0  502    0  0.00000000000E+00 -0.00000000000E+00 -0.17515883264E+04  0.17515883264E+04  0.00000000000E+00 0.  1.
          6    1    1    2  502    0  0.46649628902E+02  0.10935953878E+03 -0.56111441491E+03  0.59909438590E+03  0.17300000000E+03 0.  1.
         -6    1    1    2    0  501 -0.46649628902E+02 -0.10935953878E+03 -0.11620803193E+04  0.11808875328E+04  0.17300000000E+03 0. -1.
<mgrwt>
<rscale>  2 0.20991593E+03</rscale>
<asrwt>0</asrwt>
<pdfrwt beam="1">  1        2 0.26947510E+00 0.20991593E+03</pdfrwt>
<pdfrwt beam="2">  1       -2 0.43682454E-02 0.20991593E+03</pdfrwt>
<totfact> 0.24170074E+03</totfact>
</mgrwt>
</event>
<event>
 4    1  0.7245070E-001  0.1816623E+03  0.7546771E-02  0.1166204E+00
         -2   -1    0    0    0  501 -0.00000000000E+00  0.00000000000E+00  0.12416550230E+03  0.12416550230E+03  0.00000000000E+00 0.  1.
          2   -1    0    0  502    0  0.00000000000E+00 -0.00000000000E+00 -0.26578700492E+03  0.26578700492E+03  0.00000000000E+00 0. -1.
          6    1    1    2  502    0  0.50977494473E+02 -0.21759530971E+02 -0.70136340611E+02  0.19473132364E+03  0.17300000000E+03 0. -1.
         -6    1    1    2    0  501 -0.50977494473E+02  0.21759530971E+02 -0.71485162008E+02  0.19522118358E+03  0.17300000000E+03 0.  1.
<mgrwt>
<rscale>  2 0.18166227E+03</rscale>
<asrwt>0</asrwt>
<pdfrwt beam="1">  1        2 0.40890308E-01 0.18166227E+03</pdfrwt>
<pdfrwt beam="2">  1       -2 0.19102385E-01 0.18166227E+03</pdfrwt>
<totfact> 0.27852170E+03</totfact>
</mgrwt>
</event>
<event>
 4    1  0.7245070E-001  0.1754047E+03  0.7546771E-02  0.1172326E+00
          2   -1    0    0  502    0  0.00000000000E+00  0.00000000000E+00  0.32924387967E+04  0.32924387967E+04  0.00000000000E+00 0.  1.
         -2   -1    0    0    0  501 -0.00000000000E+00 -0.00000000000E+00 -0.93932945282E+01  0.93932945282E+01  0.00000000000E+00 0. -1.
          6    1    1    2  502    0 -0.28377658135E+02 -0.57035808908E+01  0.15227679696E+04  0.15328369487E+04  0.17300000000E+03 0.  1.
         -6    1    1    2    0  501  0.28377658135E+02  0.57035808908E+01  0.17602775327E+04  0.17689951425E+04  0.17300000000E+03 0.  1.
<mgrwt>
<rscale>  2 0.17540474E+03</rscale>
<asrwt>0</asrwt>
<pdfrwt beam="1">  1        2 0.50652813E+00 0.17540474E+03</pdfrwt>
<pdfrwt beam="2">  1       -2 0.14451249E-02 0.17540474E+03</pdfrwt>
<totfact> 0.17519639E+03</totfact>
</mgrwt>
</event>
<event>
 4    1  0.7245070E-001  0.1838480E+03  0.7546771E-02  0.1164130E+00
          1   -1    0    0  502    0  0.00000000000E+00  0.00000000000E+00  0.74142013553E+03  0.74142013553E+03  0.00000000000E+00 0. -1.
         -1   -1    0    0    0  501 -0.00000000000E+00 -0.00000000000E+00 -0.47621125130E+02  0.47621125130E+02  0.00000000000E+00 0.  1.
          6    1    1    2  502    0  0.34839398761E+02 -0.51549051483E+02  0.42841106502E+03  0.46619323145E+03  0.17300000000E+03 0. -1.
         -6    1    1    2    0  501 -0.34839398761E+02  0.51549051483E+02  0.26538794538E+03  0.32284802922E+03  0.17300000000E+03 0.  1.
<mgrwt>
<rscale>  2 0.18384800E+03</rscale>
<asrwt>0</asrwt>
<pdfrwt beam="1">  1        1 0.11406463E+00 0.18384800E+03</pdfrwt>
<pdfrwt beam="2">  1       -1 0.73263275E-02 0.18384800E+03</pdfrwt>
<totfact> 0.25259615E+03</totfact>
</mgrwt>
</event>
<event>
 4    1  0.7245070E-001  0.4938665E+03  0.7546771E-02  0.1015392E+00
          2   -1    0    0  502    0  0.00000000000E+00  0.00000000000E+00  0.10285552945E+04  0.10285552945E+04  0.00000000000E+00 0. -1.
         -2   -1    0    0    0  501 -0.00000000000E+00 -0.00000000000E+00 -0.61137785493E+03  0.61137785493E+03  0.00000000000E+00 0.  1.
          6    1    1    2  502    0 -0.31367758403E+03 -0.33997275283E+03  0.85012229049E+03  0.98316428341E+03  0.17300000000E+03 0. -1.
         -6    1    1    2    0  501  0.31367758403E+03  0.33997275283E+03 -0.43294485093E+03  0.65676886599E+03  0.17300000000E+03 0.  1.
<mgrwt>
<rscale>  2 0.49386648E+03</rscale>
<asrwt>0</asrwt>
<pdfrwt beam="1">  1        2 0.15823928E+00 0.49386648E+03</pdfrwt>
<pdfrwt beam="2">  1       -2 0.94058132E-01 0.49386648E+03</pdfrwt>
<totfact> 0.24191202E+01</totfact>
</mgrwt>
</event>
<event>
 4    1  0.7245070E-001  0.2302612E+03  0.7546771E-02  0.1126456E+00
         -2   -1    0    0    0  501 -0.00000000000E+00  0.00000000000E+00  0.20419871571E+02  0.20419871571E+02  0.00000000000E+00 0.  1.
          2   -1    0    0  502    0  0.00000000000E+00 -0.00000000000E+00 -0.26657577531E+04  0.26657577531E+04  0.00000000000E+00 0. -1.
          6    1    1    2  502    0  0.88894204867E+02 -0.12324384504E+03 -0.11061857306E+04  0.11298969403E+04  0.17300000000E+03 0.  1.
         -6    1    1    2    0  501 -0.88894204867E+02  0.12324384504E+03 -0.15391521509E+04  0.15562806844E+04  0.17300000000E+03 0. -1.
<mgrwt>
<rscale>  2 0.23026121E+03</rscale>
<asrwt>0</asrwt>
<pdfrwt beam="1">  1        2 0.41011683E+00 0.23026121E+03</pdfrwt>
<pdfrwt beam="2">  1       -2 0.31415168E-02 0.23026121E+03</pdfrwt>
<totfact> 0.12905836E+03</totfact>
</mgrwt>
</event>
<event>
 4    1  0.7245070E-001  0.1983792E+03  0.7546771E-02  0.1151114E+00
         -1   -1    0    0    0  501 -0.00000000000E+00  0.00000000000E+00  0.51091787924E+02  0.51091787924E+02  0.00000000000E+00 0. -1.
          1   -1    0    0  502    0  0.00000000000E+00 -0.00000000000E+00 -0.14641129596E+04  0.14641129596E+04  0.00000000000E+00 0.  1.
          6    1    1    2  502    0 -0.27119333517E+02 -0.93219417721E+02 -0.18497305458E+03  0.27123670292E+03  0.17300000000E+03 0. -1.
         -6    1    1    2    0  501  0.27119333517E+02  0.93219417721E+02 -0.12280481171E+04  0.12439680446E+04  0.17300000000E+03 0.  1.
<mgrwt>
<rscale>  2 0.19837923E+03</rscale>
<asrwt>0</asrwt>
<pdfrwt beam="1">  1        1 0.22524812E+00 0.19837923E+03</pdfrwt>
<pdfrwt beam="2">  1       -1 0.78602759E-02 0.19837923E+03</pdfrwt>
<totfact> 0.67519292E+02</totfact>
</mgrwt>
</event>
<event>
 4    1  0.7245070E-001  0.1782329E+03  0.7546771E-02  0.1169524E+00
          2   -1    0    0  502    0  0.00000000000E+00  0.00000000000E+00  0.87916331178E+02  0.87916331178E+02  0.00000000000E+00 0.  1.
         -2   -1    0    0    0  501 -0.00000000000E+00 -0.00000000000E+00 -0.52768417303E+03  0.52768417303E+03  0.00000000000E+00 0. -1.
          6    1    1    2  502    0 -0.42746092750E+02 -0.32785059002E+01 -0.47063015513E+02  0.18434181424E+03  0.17300000000E+03 0.  1.
         -6    1    1    2    0  501  0.42746092750E+02  0.32785059002E+01 -0.39270482633E+03  0.43125868997E+03  0.17300000000E+03 0. -1.
<mgrwt>
<rscale>  2 0.17823293E+03</rscale>
<asrwt>0</asrwt>
<pdfrwt beam="1">  1        2 0.13525590E-01 0.17823293E+03</pdfrwt>
<pdfrwt beam="2">  1       -2 0.81182178E-01 0.17823293E+03</pdfrwt>
<totfact> 0.60432086E+02</totfact>
</mgrwt>
</event>
<event>
 4    1  0.7245070E-001  0.2858944E+03  0.7546771E-02  0.1092512E+00
         -2   -1    0    0    0  501 -0.00000000000E+00  0.00000000000E+00  0.10923873032E+03  0.10923873032E+03  0.00000000000E+00 0.  1.
          2   -1    0    0  502    0  0.00000000000E+00 -0.00000000000E+00 -0.19047121913E+04  0.19047121913E+04  0.00000000000E+00 0. -1.
          6    1    1    2  502    0  0.14508737616E+03 -0.17537467531E+03 -0.16823828017E+04  0.17065015426E+04  0.17300000000E+03 0. -1.
         -6    1    1    2    0  501 -0.14508737616E+03  0.17537467531E+03 -0.11309065934E+03  0.30744937907E+03  0.17300000000E+03 0.  1.
<mgrwt>
<rscale>  2 0.28589443E+03</rscale>
<asrwt>0</asrwt>
<pdfrwt beam="1">  1        2 0.29303262E+00 0.28589443E+03</pdfrwt>
<pdfrwt beam="2">  1       -2 0.16805960E-01 0.28589443E+03</pdfrwt>
<totfact> 0.23638134E+02</totfact>
</mgrwt>
</event>
<event>
 4    1  0.7245070E-001  0.1862405E+03  0.7546771E-02  0.1161897E+00
         -2   -1    0    0    0  501 -0.00000000000E+00  0.00000000000E+00  0.78187435929E+02  0.78187435929E+02  0.00000000000E+00 0. -1.
          2   -1    0    0  502    0  0.00000000000E+00 -0.00000000000E+00 -0.61961210756E+03  0.61961210756E+03  0.00000000000E+00 0.  1.
          6    1    1    2  502    0  0.43993090125E+02  0.53114348846E+02 -0.84766230754E+02  0.20462365432E+03  0.17300000000E+03 0. -1.
         -6    1    1    2    0  501 -0.43993090125E+02 -0.53114348846E+02 -0.45665844088E+03  0.49317588917E+03  0.17300000000E+03 0.  1.
<mgrwt>
<rscale>  2 0.18624051E+03</rscale>
<asrwt>0</asrwt>
<pdfrwt beam="1">  1        2 0.95324943E-01 0.18624051E+03</pdfrwt>
<pdfrwt beam="2">  1       -2 0.12028836E-01 0.18624051E+03</pdfrwt>
<totfact> 0.23678988E+03</totfact>
</mgrwt>
</event>
<event>
 4    1  0.7245070E-001  0.2312231E+03  0.7546771E-02  0.1125782E+00
         -2   -1    0    0    0  501 -0.00000000000E+00  0.00000000000E+00  0.35153097625E+02  0.35153097625E+02  0.00000000000E+00 0. -1.
          2   -1    0    0  502    0  0.00000000000E+00 -0.00000000000E+00 -0.15474811752E+04  0.15474811752E+04  0.00000000000E+00 0.  1.
          6    1    1    2  502    0 -0.12725866546E+03 -0.85675770198E+02 -0.65243964909E+03  0.69220054987E+03  0.17300000000E+03 0.  1.
         -6    1    1    2    0  501  0.12725866546E+03  0.85675770198E+02 -0.85988842846E+03  0.89043372293E+03  0.17300000000E+03 0.  1.
<mgrwt>
<rscale>  2 0.23122306E+03</rscale>
<asrwt>0</asrwt>
<pdfrwt beam="1">  1        2 0.23807403E+00 0.23122306E+03</pdfrwt>
<pdfrwt beam="2">  1       -2 0.54081689E-02 0.23122306E+03</pdfrwt>
<totfact> 0.22362173E+03</totfact>
</mgrwt>
</event>
<event>
 4    1  0.7245070E-001  0.1897125E+03  0.7546771E-02  0.1158721E+00
          1   -1    0    0  502    0  0.00000000000E+00  0.00000000000E+00  0.14860541113E+04  0.14860541113E+04  0.00000000000E+00 0. -1.
         -1   -1    0    0    0  501 -0.00000000000E+00 -0.00000000000E+00 -0.36599401828E+02  0.36599401828E+02  0.00000000000E+00 0.  1.
          6    1    1    2  502    0  0.57911391828E+02  0.52039398840E+02  0.28193462597E+03  0.33982048445E+03  0.17300000000E+03 0.  1.
         -6    1    1    2    0  501 -0.57911391828E+02 -0.52039398840E+02  0.11675200835E+04  0.11828330287E+04  0.17300000000E+03 0. -1.
<mgrwt>
<rscale>  2 0.18971249E+03</rscale>
<asrwt>0</asrwt>
<pdfrwt beam="1">  1        1 0.22862366E+00 0.18971249E+03</pdfrwt>
<pdfrwt beam="2">  1       -1 0.56306784E-02 0.18971249E+03</pdfrwt>
<totfact> 0.10815357E+03</totfact>
</mgrwt>
</event>
<event>
 4    1  0.7245070E-001  0.1939869E+03  0.7546771E-02  0.1154914E+00
          2   -1    0    0  502    0  0.00000000000E+00  0.00000000000E+00  0.11967142338E+03  0.11967142338E+03  0.00000000000E+00 0.  1.
         -2   -1    0    0    0  501 -0.00000000000E+00 -0.00000000000E+00 -0.31445690099E+03  0.31445690099E+03  0.00000000000E+00 0. -1.
          6    1    1    2  502    0 -0.81881560880E+02 -0.31580504875E+02 -0.98249768543E+02  0.21744869583E+03  0.17300000000E+03 0. -1.
         -6    1    1    2    0  501  0.81881560880E+02  0.31580504875E+02 -0.96535709066E+02  0.21667962854E+03  0.17300000000E+03 0.  1.
<mgrwt>
<rscale>  2 0.19398690E+03</rscale>
<asrwt>0</asrwt>
<pdfrwt beam="1">  1        2 0.18410988E-01 0.19398690E+03</pdfrwt>
<pdfrwt beam="2">  1       -2 0.48377984E-01 0.19398690E+03</pdfrwt>
<totfact> 0.12423790E+03</totfact>
</mgrwt>
</event>
<event>
 4    1  0.7245070E-001  0.1925735E+03  0.7546771E-02  0.1156160E+00
          2   -1    0    0  502    0  0.00000000000E+00  0.00000000000E+00  0.99248409310E+03  0.99248409310E+03  0.00000000000E+00 0. -1.
         -2   -1    0    0    0  501 -0.00000000000E+00 -0.00000000000E+00 -0.40256771890E+02  0.40256771890E+02  0.00000000000E+00 0.  1.
          6    1    1    2  502    0 -0.74515941417E+02 -0.40036507735E+02  0.61450063248E+03  0.64396861321E+03  0.17300000000E+03 0. -1.
         -6    1    1    2    0  501  0.74515941417E+02  0.40036507735E+02  0.33772668873E+03  0.38877225178E+03  0.17300000000E+03 0.  1.
<mgrwt>
<rscale>  2 0.19257349E+03</rscale>
<asrwt>0</asrwt>
<pdfrwt beam="1">  1        2 0.15268984E+00 0.19257349E+03</pdfrwt>
<pdfrwt beam="2">  1       -2 0.61933503E-02 0.19257349E+03</pdfrwt>
<totfact> 0.37050821E+03</totfact>
</mgrwt>
</event>
<event>
 4    1  0.7245070E-001  0.1970658E+03  0.7546771E-02  0.1152239E+00
          2   -1    0    0  502    0  0.00000000000E+00  0.00000000000E+00  0.11184348337E+03  0.11184348337E+03  0.00000000000E+00 0. -1.
         -2   -1    0    0    0  501 -0.00000000000E+00 -0.00000000000E+00 -0.40454529313E+03  0.40454529313E+03  0.00000000000E+00 0.  1.
          6    1    1    2  502    0  0.77855738369E+02  0.53332861143E+02 -0.24353954558E+03  0.31328329087E+03  0.17300000000E+03 0. -1.
         -6    1    1    2    0  501 -0.77855738369E+02 -0.53332861143E+02 -0.49162264182E+02  0.20310548563E+03  0.17300000000E+03 0. -1.
<mgrwt>
<rscale>  2 0.19706575E+03</rscale>
<asrwt>0</asrwt>
<pdfrwt beam="1">  1        2 0.17206690E-01 0.19706575E+03</pdfrwt>
<pdfrwt beam="2">  1       -2 0.62237737E-01 0.19706575E+03</pdfrwt>
<totfact> 0.80611867E+02</totfact>
</mgrwt>
</event>
<event>
 4    1  0.7245070E-001  0.1754400E+03  0.7546771E-02  0.1172291E+00
          1   -1    0    0  502    0  0.00000000000E+00  0.00000000000E+00  0.14626156759E+04  0.14626156759E+04  0.00000000000E+00 0.  1.
         -1   -1    0    0    0  501 -0.00000000000E+00 -0.00000000000E+00 -0.27825496577E+02  0.27825496577E+02  0.00000000000E+00 0. -1.
          6    1    1    2  502    0  0.28987105853E+02  0.31554738225E+01  0.10852934026E+04  0.10993820897E+04  0.17300000000E+03 0.  1.
         -6    1    1    2    0  501 -0.28987105853E+02 -0.31554738225E+01  0.34949677673E+03  0.39105908284E+03  0.17300000000E+03 0. -1.
<mgrwt>
<rscale>  2 0.17544004E+03</rscale>
<asrwt>0</asrwt>
<pdfrwt beam="1">  1        1 0.22501774E+00 0.17544004E+03</pdfrwt>
<pdfrwt beam="2">  1       -1 0.42808468E-02 0.17544004E+03</pdfrwt>
<totfact> 0.16864844E+03</totfact>
</mgrwt>
</event>
<event>
 4    1  0.7245070E-001  0.1778903E+03  0.7546771E-02  0.1169861E+00
         -4   -1    0    0    0  501 -0.00000000000E+00  0.00000000000E+00  0.25636886981E+03  0.25636886981E+03  0.00000000000E+00 0.  1.
          4   -1    0    0  502    0  0.00000000000E+00 -0.00000000000E+00 -0.15705406661E+03  0.15705406661E+03  0.00000000000E+00 0. -1.
          6    1    1    2  502    0 -0.27261128040E+02 -0.31189462809E+02 -0.45980774806E+02  0.18373672291E+03  0.17300000000E+03 0. -1.
         -6    1    1    2    0  501  0.27261128040E+02  0.31189462809E+02  0.14529557800E+03  0.22968621352E+03  0.17300000000E+03 0.  1.
<mgrwt>
<rscale>  2 0.17789028E+03</rscale>
<asrwt>0</asrwt>
<pdfrwt beam="1">  1        4 0.24162164E-01 0.17789028E+03</pdfrwt>
<pdfrwt beam="2">  1       -4 0.39441365E-01 0.17789028E+03</pdfrwt>
<totfact> 0.17433256E+02</totfact>
</mgrwt>
</event>
<event>
 4    1  0.7245070E-001  0.2293889E+03  0.7546771E-02  0.1127071E+00
          2   -1    0    0  502    0  0.00000000000E+00  0.00000000000E+00  0.50192814536E+03  0.50192814536E+03  0.00000000000E+00 0.  1.
         -2   -1    0    0    0  501 -0.00000000000E+00 -0.00000000000E+00 -0.12559160085E+03  0.12559160085E+03  0.00000000000E+00 0. -1.
          6    1    1    2  502    0 -0.48608255732E+02  0.14257456742E+03  0.31572485482E+03  0.39025818858E+03  0.17300000000E+03 0.  1.
         -6    1    1    2    0  501  0.48608255732E+02 -0.14257456742E+03  0.60611689695E+02  0.23726155763E+03  0.17300000000E+03 0. -1.
<mgrwt>
<rscale>  2 0.22938891E+03</rscale>
<asrwt>0</asrwt>
<pdfrwt beam="1">  1        2 0.77219714E-01 0.22938891E+03</pdfrwt>
<pdfrwt beam="2">  1       -2 0.19321785E-01 0.22938891E+03</pdfrwt>
<totfact> 0.13798904E+03</totfact>
</mgrwt>
</event>
<event>
 4    1  0.7245070E-001  0.2366429E+03  0.7546771E-02  0.1122050E+00
          2   -1    0    0  502    0  0.00000000000E+00  0.00000000000E+00  0.11097492424E+04  0.11097492424E+04  0.00000000000E+00 0. -1.
         -2   -1    0    0    0  501 -0.00000000000E+00 -0.00000000000E+00 -0.50518159842E+02  0.50518159842E+02  0.00000000000E+00 0.  1.
          6    1    1    2  502    0 -0.77945552469E+02 -0.14140499253E+03  0.54900245762E+03  0.59783240087E+03  0.17300000000E+03 0.  1.
         -6    1    1    2    0  501  0.77945552469E+02  0.14140499253E+03  0.51022862497E+03  0.56243500140E+03  0.17300000000E+03 0.  1.
<mgrwt>
<rscale>  2 0.23664294E+03</rscale>
<asrwt>0</asrwt>
<pdfrwt beam="1">  1        2 0.17073063E+00 0.23664294E+03</pdfrwt>
<pdfrwt beam="2">  1       -2 0.77720254E-02 0.23664294E+03</pdfrwt>
<totfact> 0.22274425E+03</totfact>
</mgrwt>
</event>
<event>
 4    1  0.7245070E-001  0.1956998E+03  0.7546771E-02  0.1153419E+00
         -1   -1    0    0    0  501 -0.00000000000E+00  0.00000000000E+00  0.11021488768E+03  0.11021488768E+03  0.00000000000E+00 0.  1.
          1   -1    0    0  502    0  0.00000000000E+00 -0.00000000000E+00 -0.50267026253E+03  0.50267026253E+03  0.00000000000E+00 0. -1.
          6    1    1    2  502    0 -0.88162847213E+01 -0.91058662218E+02 -0.25961725702E+02  0.19741433089E+03  0.17300000000E+03 0.  1.
         -6    1    1    2    0  501  0.88162847213E+01  0.91058662218E+02 -0.36649364914E+03  0.41547081932E+03  0.17300000000E+03 0.  1.
<mgrwt>
<rscale>  2 0.19569979E+03</rscale>
<asrwt>0</asrwt>
<pdfrwt beam="1">  1        1 0.77333889E-01 0.19569979E+03</pdfrwt>
<pdfrwt beam="2">  1       -1 0.16956136E-01 0.19569979E+03</pdfrwt>
<totfact> 0.11809856E+03</totfact>
</mgrwt>
</event>
<event>
 4    1  0.7245070E-001  0.1820467E+03  0.7546771E-02  0.1165837E+00
         -1   -1    0    0    0  501 -0.00000000000E+00  0.00000000000E+00  0.93728085183E+02  0.93728085183E+02  0.00000000000E+00 0.  1.
          1   -1    0    0  502    0  0.00000000000E+00 -0.00000000000E+00 -0.36267159504E+03  0.36267159504E+03  0.00000000000E+00 0. -1.
          6    1    1    2  502    0  0.18189423380E+02 -0.53676416902E+02 -0.98354365692E+02  0.20691687728E+03  0.17300000000E+03 0.  1.
         -6    1    1    2    0  501 -0.18189423380E+02  0.53676416902E+02 -0.17058914416E+03  0.24948280294E+03  0.17300000000E+03 0. -1.
<mgrwt>
<rscale>  2 0.18204673E+03</rscale>
<asrwt>0</asrwt>
<pdfrwt beam="1">  1        1 0.55795630E-01 0.18204673E+03</pdfrwt>
<pdfrwt beam="2">  1       -1 0.14419706E-01 0.18204673E+03</pdfrwt>
<totfact> 0.23207651E+03</totfact>
</mgrwt>
</event>
<event>
 4    1  0.7245070E-001  0.3634827E+03  0.7546771E-02  0.1057213E+00
         -2   -1    0    0    0  501 -0.00000000000E+00  0.00000000000E+00  0.11679335579E+03  0.11679335579E+03  0.00000000000E+00 0.  1.
          2   -1    0    0  502    0  0.00000000000E+00 -0.00000000000E+00 -0.17019636780E+04  0.17019636780E+04  0.00000000000E+00 0. -1.
          6    1    1    2  502    0 -0.22025400945E+03  0.23168699031E+03 -0.26597675456E+03  0.45040351256E+03  0.17300000000E+03 0.  1.
         -6    1    1    2    0  501  0.22025400945E+03 -0.23168699031E+03 -0.13191935677E+04  0.13683535213E+04  0.17300000000E+03 0. -1.
<mgrwt>
<rscale>  2 0.36348272E+03</rscale>
<asrwt>0</asrwt>
<pdfrwt beam="1">  1        2 0.26184058E+00 0.36348272E+03</pdfrwt>
<pdfrwt beam="2">  1       -2 0.17968208E-01 0.36348272E+03</pdfrwt>
<totfact> 0.26651605E+02</totfact>
</mgrwt>
</event>
<event>
 4    1  0.7245070E-001  0.1834714E+03  0.7546771E-02  0.1164485E+00
          1   -1    0    0  502    0  0.00000000000E+00  0.00000000000E+00  0.39032463420E+03  0.39032463420E+03  0.00000000000E+00 0.  1.
         -1   -1    0    0    0  501 -0.00000000000E+00 -0.00000000000E+00 -0.86312315353E+02  0.86312315353E+02  0.00000000000E+00 0. -1.
          6    1    1    2  502    0 -0.37992244173E+01  0.60977960502E+02  0.15888610196E+03  0.24270669371E+03  0.17300000000E+03 0. -1.
         -6    1    1    2    0  501  0.37992244173E+01 -0.60977960502E+02  0.14512621688E+03  0.23393025584E+03  0.17300000000E+03 0.  1.
<mgrwt>
<rscale>  2 0.18347138E+03</rscale>
<asrwt>0</asrwt>
<pdfrwt beam="1">  1        1 0.60049943E-01 0.18347138E+03</pdfrwt>
<pdfrwt beam="2">  1       -1 0.13278818E-01 0.18347138E+03</pdfrwt>
<totfact> 0.24072431E+03</totfact>
</mgrwt>
</event>
<event>
 4    1  0.7245070E-001  0.3095042E+03  0.7546771E-02  0.1080584E+00
          1   -1    0    0  502    0  0.00000000000E+00  0.00000000000E+00  0.17176753164E+03  0.17176753164E+03  0.00000000000E+00 0. -1.
         -1   -1    0    0    0  501 -0.00000000000E+00 -0.00000000000E+00 -0.56673800636E+03  0.56673800636E+03  0.00000000000E+00 0.  1.
          6    1    1    2  502    0  0.22170042245E+03  0.12927792761E+03 -0.15082644784E+03  0.34429852926E+03  0.17300000000E+03 0. -1.
         -6    1    1    2    0  501 -0.22170042245E+03 -0.12927792761E+03 -0.24414402687E+03  0.39420700874E+03  0.17300000000E+03 0.  1.
<mgrwt>
<rscale>  2 0.30950422E+03</rscale>
<asrwt>0</asrwt>
<pdfrwt beam="1">  1        1 0.26425774E-01 0.30950422E+03</pdfrwt>
<pdfrwt beam="2">  1       -1 0.87190462E-01 0.30950422E+03</pdfrwt>
<totfact> 0.24298005E+02</totfact>
</mgrwt>
</event>
<event>
 4    1  0.7245070E-001  0.2365416E+03  0.7546771E-02  0.1122118E+00
         -1   -1    0    0    0  501 -0.00000000000E+00  0.00000000000E+00  0.58365017403E+02  0.58365017403E+02  0.00000000000E+00 0. -1.
          1   -1    0    0  502    0  0.00000000000E+00 -0.00000000000E+00 -0.95894330986E+03  0.95894330986E+03  0.00000000000E+00 0.  1.
          6    1    1    2  502    0 -0.12733962104E+01 -0.16131114450E+03 -0.45911121574E+03  0.51646395353E+03  0.17300000000E+03 0. -1.
         -6    1    1    2    0  501  0.12733962104E+01  0.16131114450E+03 -0.44146707671E+03  0.50084437373E+03  0.17300000000E+03 0. -1.
<mgrwt>
<rscale>  2 0.23654155E+03</rscale>
<asrwt>0</asrwt>
<pdfrwt beam="1">  1        1 0.14752974E+00 0.23654155E+03</pdfrwt>
<pdfrwt beam="2">  1       -1 0.89792335E-02 0.23654155E+03</pdfrwt>
<totfact> 0.12393930E+03</totfact>
</mgrwt>
</event>
<event>
 4    1  0.7245070E-001  0.1916619E+03  0.7546771E-02  0.1156971E+00
          2   -1    0    0  502    0  0.00000000000E+00  0.00000000000E+00  0.37147853389E+03  0.37147853389E+03  0.00000000000E+00 0.  1.
         -2   -1    0    0    0  501 -0.00000000000E+00 -0.00000000000E+00 -0.98901768389E+02  0.98901768389E+02  0.00000000000E+00 0. -1.
          6    1    1    2  502    0 -0.28239521703E+02 -0.77510074809E+02  0.13919245720E+03  0.23687300907E+03  0.17300000000E+03 0.  1.
         -6    1    1    2    0  501  0.28239521703E+02  0.77510074809E+02  0.13338430830E+03  0.23350729321E+03  0.17300000000E+03 0. -1.
<mgrwt>
<rscale>  2 0.19166190E+03</rscale>
<asrwt>0</asrwt>
<pdfrwt beam="1">  1        2 0.57150543E-01 0.19166190E+03</pdfrwt>
<pdfrwt beam="2">  1       -2 0.15215657E-01 0.19166190E+03</pdfrwt>
<totfact> 0.28504274E+03</totfact>
</mgrwt>
</event>
<event>
 4    1  0.7245070E-001  0.2075392E+03  0.7546771E-02  0.1143530E+00
         -1   -1    0    0    0  501 -0.00000000000E+00  0.00000000000E+00  0.14968023802E+04  0.14968023802E+04  0.00000000000E+00 0. -1.
          1   -1    0    0  502    0  0.00000000000E+00 -0.00000000000E+00 -0.31589541002E+02  0.31589541002E+02  0.00000000000E+00 0.  1.
          6    1    1    2  502    0  0.11345500500E+03 -0.16476438665E+02  0.96065773723E+03  0.98282032910E+03  0.17300000000E+03 0. -1.
         -6    1    1    2    0  501 -0.11345500500E+03  0.16476438665E+02  0.50455510202E+03  0.54557159215E+03  0.17300000000E+03 0.  1.
<mgrwt>
<rscale>  2 0.20753918E+03</rscale>
<asrwt>0</asrwt>
<pdfrwt beam="1">  1        1 0.48599305E-02 0.20753918E+03</pdfrwt>
<pdfrwt beam="2">  1       -1 0.23027724E+00 0.20753918E+03</pdfrwt>
<totfact> 0.18429287E+02</totfact>
</mgrwt>
</event>
<event>
 4    1  0.7245070E-001  0.3018315E+03  0.7546771E-02  0.1084329E+00
          2   -1    0    0  502    0  0.00000000000E+00  0.00000000000E+00  0.18700336156E+04  0.18700336156E+04  0.00000000000E+00 0.  1.
         -2   -1    0    0    0  501 -0.00000000000E+00 -0.00000000000E+00 -0.50026788626E+02  0.50026788626E+02  0.00000000000E+00 0. -1.
          6    1    1    2  502    0 -0.17205776948E+03  0.17767769404E+03  0.75465711305E+03  0.81277893506E+03  0.17300000000E+03 0. -1.
         -6    1    1    2    0  501  0.17205776948E+03 -0.17767769404E+03  0.10653497139E+04  0.11072814692E+04  0.17300000000E+03 0.  1.
<mgrwt>
<rscale>  2 0.30183147E+03</rscale>
<asrwt>0</asrwt>
<pdfrwt beam="1">  1        2 0.28769743E+00 0.30183147E+03</pdfrwt>
<pdfrwt beam="2">  1       -2 0.76964305E-02 0.30183147E+03</pdfrwt>
<totfact> 0.87125748E+02</totfact>
</mgrwt>
</event>
<event>
 4    1  0.7245070E-001  0.1745234E+03  0.7546771E-02  0.1173211E+00
         -1   -1    0    0    0  501 -0.00000000000E+00  0.00000000000E+00  0.24134535221E+02  0.24134535221E+02  0.00000000000E+00 0.  1.
          1   -1    0    0  502    0  0.00000000000E+00 -0.00000000000E+00 -0.13155448743E+04  0.13155448743E+04  0.00000000000E+00 0. -1.
          6    1    1    2  502    0  0.22088417086E+02 -0.64442519121E+01 -0.78080938962E+03  0.80007607730E+03  0.17300000000E+03 0. -1.
         -6    1    1    2    0  501 -0.22088417086E+02  0.64442519121E+01 -0.51060094944E+03  0.53960333220E+03  0.17300000000E+03 0.  1.
<mgrwt>
<rscale>  2 0.17452343E+03</rscale>
<asrwt>0</asrwt>
<pdfrwt beam="1">  1        1 0.20239156E+00 0.17452343E+03</pdfrwt>
<pdfrwt beam="2">  1       -1 0.37130047E-02 0.17452343E+03</pdfrwt>
<totfact> 0.26060431E+03</totfact>
</mgrwt>
</event>
<event>
 4    1  0.7245070E-001  0.1793900E+03  0.7546771E-02  0.1168395E+00
          2   -1    0    0  502    0  0.00000000000E+00  0.00000000000E+00  0.22636942376E+03  0.22636942376E+03  0.00000000000E+00 0. -1.
         -2   -1    0    0    0  501 -0.00000000000E+00 -0.00000000000E+00 -0.15997938770E+03  0.15997938770E+03  0.00000000000E+00 0.  1.
          6    1    1    2  502    0 -0.19922704181E+02  0.43068041631E+02  0.97665207712E+02  0.20425293914E+03  0.17300000000E+03 0. -1.
         -6    1    1    2    0  501  0.19922704181E+02 -0.43068041631E+02 -0.31275171660E+02  0.18209587232E+03  0.17300000000E+03 0.  1.
<mgrwt>
<rscale>  2 0.17939000E+03</rscale>
<asrwt>0</asrwt>
<pdfrwt beam="1">  1        2 0.34826065E-01 0.17939000E+03</pdfrwt>
<pdfrwt beam="2">  1       -2 0.24612213E-01 0.17939000E+03</pdfrwt>
<totfact> 0.21386129E+03</totfact>
</mgrwt>
</event>
<event>
 4    1  0.7245070E-001  0.1850024E+03  0.7546771E-02  0.1163048E+00
         -2   -1    0    0    0  501 -0.00000000000E+00  0.00000000000E+00  0.25094360539E+03  0.25094360539E+03  0.00000000000E+00 0.  1.
          2   -1    0    0  502    0  0.00000000000E+00 -0.00000000000E+00 -0.24147707071E+03  0.24147707071E+03  0.00000000000E+00 0. -1.
          6    1    1    2  502    0  0.65466659207E+02 -0.33151125508E+01 -0.15768903167E+03  0.24308785274E+03  0.17300000000E+03 0. -1.
         -6    1    1    2    0  501 -0.65466659207E+02  0.33151125508E+01  0.16715556636E+03  0.24933282336E+03  0.17300000000E+03 0.  1.
<mgrwt>
<rscale>  2 0.18500236E+03</rscale>
<asrwt>0</asrwt>
<pdfrwt beam="1">  1        2 0.37150319E-01 0.18500236E+03</pdfrwt>
<pdfrwt beam="2">  1       -2 0.38606709E-01 0.18500236E+03</pdfrwt>
<totfact> 0.88024702E+02</totfact>
</mgrwt>
</event>
<event>
 4    1  0.7245070E-001  0.2011571E+03  0.7546771E-02  0.1148766E+00
          1   -1    0    0  502    0  0.00000000000E+00  0.00000000000E+00  0.60083240161E+03  0.60083240161E+03  0.00000000000E+00 0.  1.
         -1   -1    0    0    0  501 -0.00000000000E+00 -0.00000000000E+00 -0.70443560171E+02  0.70443560171E+02  0.00000000000E+00 0. -1.
          6    1    1    2  502    0 -0.10259191741E+03  0.31718074551E+01  0.33556670295E+03  0.39124055773E+03  0.17300000000E+03 0.  1.
         -6    1    1    2    0  501  0.10259191741E+03 -0.31718074551E+01  0.19482213849E+03  0.28003540406E+03  0.17300000000E+03 0. -1.
<mgrwt>
<rscale>  2 0.20115706E+03</rscale>
<asrwt>0</asrwt>
<pdfrwt beam="1">  1        1 0.92435751E-01 0.20115706E+03</pdfrwt>
<pdfrwt beam="2">  1       -1 0.10837471E-01 0.20115706E+03</pdfrwt>
<totfact> 0.18759132E+03</totfact>
</mgrwt>
</event>
<event>
 4    1  0.7245070E-001  0.2023126E+03  0.7546771E-02  0.1147802E+00
         -2   -1    0    0    0  501 -0.00000000000E+00  0.00000000000E+00  0.38952928178E+02  0.38952928178E+02  0.00000000000E+00 0. -1.
          2   -1    0    0  502    0  0.00000000000E+00 -0.00000000000E+00 -0.12512714486E+04  0.12512714486E+04  0.00000000000E+00 0.  1.
          6    1    1    2  502    0 -0.29451345631E+02 -0.10066778536E+03 -0.34791936247E+03  0.40246523769E+03  0.17300000000E+03 0. -1.
         -6    1    1    2    0  501  0.29451345631E+02  0.10066778536E+03 -0.86439915800E+03  0.88775913913E+03  0.17300000000E+03 0.  1.
<mgrwt>
<rscale>  2 0.20231259E+03</rscale>
<asrwt>0</asrwt>
<pdfrwt beam="1">  1        2 0.19250330E+00 0.20231259E+03</pdfrwt>
<pdfrwt beam="2">  1       -2 0.59927582E-02 0.20231259E+03</pdfrwt>
<totfact> 0.27623814E+03</totfact>
</mgrwt>
</event>
<event>
 4    1  0.7245070E-001  0.2576351E+03  0.7546771E-02  0.1108572E+00
         -2   -1    0    0    0  501 -0.00000000000E+00  0.00000000000E+00  0.22339996844E+02  0.22339996844E+02  0.00000000000E+00 0.  1.
          2   -1    0    0  502    0  0.00000000000E+00 -0.00000000000E+00 -0.29715680432E+04  0.29715680432E+04  0.00000000000E+00 0. -1.
          6    1    1    2  502    0  0.17787673571E+03 -0.69330628319E+02 -0.14572310594E+04  0.14798304733E+04  0.17300000000E+03 0. -1.
         -6    1    1    2    0  501 -0.17787673571E+03  0.69330628319E+02 -0.14919969870E+04  0.15140775668E+04  0.17300000000E+03 0. -1.
<mgrwt>
<rscale>  2 0.25763515E+03</rscale>
<asrwt>0</asrwt>
<pdfrwt beam="1">  1        2 0.45716402E+00 0.25763515E+03</pdfrwt>
<pdfrwt beam="2">  1       -2 0.34369248E-02 0.25763515E+03</pdfrwt>
<totfact> 0.75018583E+02</totfact>
</mgrwt>
</event>
<event>
 4    1  0.7245070E-001  0.1897834E+03  0.7546771E-02  0.1158657E+00
          2   -1    0    0  502    0  0.00000000000E+00  0.00000000000E+00  0.78473250395E+03  0.78473250395E+03  0.00000000000E+00 0.  1.
         -2   -1    0    0    0  501 -0.00000000000E+00 -0.00000000000E+00 -0.45989852409E+02  0.45989852409E+02  0.00000000000E+00 0. -1.
          6    1    1    2  502    0 -0.87638773528E+01 -0.77536551513E+02  0.38792498108E+03  0.43186052530E+03  0.17300000000E+03 0.  1.
         -6    1    1    2    0  501  0.87638773528E+01  0.77536551513E+02  0.35081767046E+03  0.39886183106E+03  0.17300000000E+03 0.  1.
<mgrwt>
<rscale>  2 0.18978336E+03</rscale>
<asrwt>0</asrwt>
<pdfrwt beam="1">  1        2 0.12072807E+00 0.18978336E+03</pdfrwt>
<pdfrwt beam="2">  1       -2 0.70753625E-02 0.18978336E+03</pdfrwt>
<totfact> 0.41112622E+03</totfact>
</mgrwt>
</event>
<event>
 4    1  0.7245070E-001  0.2207720E+03  0.7546771E-02  0.1133309E+00
          3   -1    0    0  502    0  0.00000000000E+00  0.00000000000E+00  0.11143728028E+04  0.11143728028E+04  0.00000000000E+00 0. -1.
         -3   -1    0    0    0  501 -0.00000000000E+00 -0.00000000000E+00 -0.44508337390E+02  0.44508337390E+02  0.00000000000E+00 0.  1.
          6    1    1    2  502    0 -0.44639515828E+02 -0.12968652158E+03  0.45869475614E+03  0.50905909241E+03  0.17300000000E+03 0.  1.
         -6    1    1    2    0  501  0.44639515828E+02  0.12968652158E+03  0.61116970924E+03  0.64982204775E+03  0.17300000000E+03 0. -1.
<mgrwt>
<rscale>  2 0.22077201E+03</rscale>
<asrwt>0</asrwt>
<pdfrwt beam="1">  1        3 0.17144195E+00 0.22077201E+03</pdfrwt>
<pdfrwt beam="2">  1       -3 0.68474374E-02 0.22077201E+03</pdfrwt>
<totfact> 0.82632276E+01</totfact>
</mgrwt>
</event>
<event>
 4    1  0.7245070E-001  0.2207893E+03  0.7546771E-02  0.1133296E+00
         -1   -1    0    0    0  501 -0.00000000000E+00  0.00000000000E+00  0.56084275471E+02  0.56084275471E+02  0.00000000000E+00 0.  1.
          1   -1    0    0  502    0  0.00000000000E+00 -0.00000000000E+00 -0.87048680696E+03  0.87048680696E+03  0.00000000000E+00 0. -1.
          6    1    1    2  502    0 -0.64539138583E+02  0.12105210691E+03 -0.42508016665E+03  0.47900006375E+03  0.17300000000E+03 0.  1.
         -6    1    1    2    0  501  0.64539138583E+02 -0.12105210691E+03 -0.38932236483E+03  0.44757101867E+03  0.17300000000E+03 0. -1.
<mgrwt>
<rscale>  2 0.22078930E+03</rscale>
<asrwt>0</asrwt>
<pdfrwt beam="1">  1        1 0.13392105E+00 0.22078930E+03</pdfrwt>
<pdfrwt beam="2">  1       -1 0.86283501E-02 0.22078930E+03</pdfrwt>
<totfact> 0.15435361E+03</totfact>
</mgrwt>
</event>
<event>
 4    1  0.7245070E-001  0.1855207E+03  0.7546771E-02  0.1162565E+00
         -4   -1    0    0    0  501 -0.00000000000E+00  0.00000000000E+00  0.60859549620E+03  0.60859549620E+03  0.00000000000E+00 0.  1.
          4   -1    0    0  502    0  0.00000000000E+00 -0.00000000000E+00 -0.78376568168E+02  0.78376568168E+02  0.00000000000E+00 0. -1.
          6    1    1    2  502    0  0.63794722953E+02 -0.20473645418E+02  0.44635956410E+03  0.48337852382E+03  0.17300000000E+03 0.  1.
         -6    1    1    2    0  501 -0.63794722953E+02  0.20473645418E+02  0.83859363941E+02  0.20359354055E+03  0.17300000000E+03 0. -1.
<mgrwt>
<rscale>  2 0.18552072E+03</rscale>
<asrwt>0</asrwt>
<pdfrwt beam="1">  1        4 0.12057934E-01 0.18552072E+03</pdfrwt>
<pdfrwt beam="2">  1       -4 0.93630073E-01 0.18552072E+03</pdfrwt>
<totfact> 0.96539951E+01</totfact>
</mgrwt>
</event>
<event>
 4    1  0.7245070E-001  0.3078438E+03  0.7546771E-02  0.1081384E+00
          2   -1    0    0  502    0  0.00000000000E+00  0.00000000000E+00  0.17200931202E+04  0.17200931202E+04  0.00000000000E+00 0. -1.
         -2   -1    0    0    0  501 -0.00000000000E+00 -0.00000000000E+00 -0.60335449549E+02  0.60335449549E+02  0.00000000000E+00 0.  1.
          6    1    1    2  502    0 -0.11270888173E+03 -0.22833204565E+03  0.10922461842E+04  0.11347993399E+04  0.17300000000E+03 0. -1.
         -6    1    1    2    0  501  0.11270888173E+03  0.22833204565E+03  0.56751148646E+03  0.64562922979E+03  0.17300000000E+03 0.  1.
<mgrwt>
<rscale>  2 0.30784382E+03</rscale>
<asrwt>0</asrwt>
<pdfrwt beam="1">  1        2 0.26462967E+00 0.30784382E+03</pdfrwt>
<pdfrwt beam="2">  1       -2 0.92823782E-02 0.30784382E+03</pdfrwt>
<totfact> 0.77720867E+02</totfact>
</mgrwt>
</event>
<event>
 4    1  0.7245070E-001  0.2631619E+03  0.7546771E-02  0.1105258E+00
         -1   -1    0    0    0  501 -0.00000000000E+00  0.00000000000E+00  0.20090111580E+03  0.20090111580E+03  0.00000000000E+00 0. -1.
          1   -1    0    0  502    0  0.00000000000E+00 -0.00000000000E+00 -0.34500866201E+03  0.34500866201E+03  0.00000000000E+00 0.  1.
          6    1    1    2  502    0 -0.14610455938E+03 -0.13408453280E+03 -0.79978220923E+02  0.27504675972E+03  0.17300000000E+03 0. -1.
         -6    1    1    2    0  501  0.14610455938E+03  0.13408453280E+03 -0.64129325280E+02  0.27086301809E+03  0.17300000000E+03 0.  1.
<mgrwt>
<rscale>  2 0.26316194E+03</rscale>
<asrwt>0</asrwt>
<pdfrwt beam="1">  1        1 0.53078255E-01 0.26316194E+03</pdfrwt>
<pdfrwt beam="2">  1       -1 0.30907864E-01 0.26316194E+03</pdfrwt>
<totfact> 0.71391877E+02</totfact>
</mgrwt>
</event>
<event>
 4    1  0.7245070E-001  0.1848337E+03  0.7546771E-02  0.1163205E+00
         -1   -1    0    0    0  501 -0.00000000000E+00  0.00000000000E+00  0.14738467523E+04  0.14738467523E+04  0.00000000000E+00 0. -1.
          1   -1    0    0  502    0  0.00000000000E+00 -0.00000000000E+00 -0.38865932219E+02  0.38865932219E+02  0.00000000000E+00 0.  1.
          6    1    1    2  502    0 -0.21830803600E+02  0.61301722065E+02  0.23698339781E+03  0.30054053961E+03  0.17300000000E+03 0.  1.
         -6    1    1    2    0  501  0.21830803600E+02 -0.61301722065E+02  0.11979974222E+04  0.12121721449E+04  0.17300000000E+03 0. -1.
<mgrwt>
<rscale>  2 0.18483367E+03</rscale>
<asrwt>0</asrwt>
<pdfrwt beam="1">  1        1 0.59793753E-02 0.18483367E+03</pdfrwt>
<pdfrwt beam="2">  1       -1 0.22674561E+00 0.18483367E+03</pdfrwt>
<totfact> 0.14622659E+02</totfact>
</mgrwt>
</event>
<event>
 4    1  0.7245070E-001  0.1790007E+03  0.7546771E-02  0.1168774E+00
         -2   -1    0    0    0  501 -0.00000000000E+00  0.00000000000E+00  0.81229031251E+02  0.81229031251E+02  0.00000000000E+00 0. -1.
          2   -1    0    0  502    0  0.00000000000E+00 -0.00000000000E+00 -0.39458968100E+03  0.39458968100E+03  0.00000000000E+00 0.  1.
          6    1    1    2  502    0  0.36319877104E+02 -0.28162579530E+02 -0.16106221148E+03  0.24079514182E+03  0.17300000000E+03 0. -1.
         -6    1    1    2    0  501 -0.36319877104E+02  0.28162579530E+02 -0.15229843828E+03  0.23502357044E+03  0.17300000000E+03 0. -1.
<mgrwt>
<rscale>  2 0.17900074E+03</rscale>
<asrwt>0</asrwt>
<pdfrwt beam="1">  1        2 0.60706104E-01 0.17900074E+03</pdfrwt>
<pdfrwt beam="2">  1       -2 0.12496774E-01 0.17900074E+03</pdfrwt>
<totfact> 0.36725294E+03</totfact>
</mgrwt>
</event>
<event>
 4    1  0.7245070E-001  0.1808322E+03  0.7546771E-02  0.1167000E+00
         -1   -1    0    0    0  501 -0.00000000000E+00  0.00000000000E+00  0.44831948266E+02  0.44831948266E+02  0.00000000000E+00 0.  1.
          1   -1    0    0  502    0  0.00000000000E+00 -0.00000000000E+00 -0.10147059715E+04  0.10147059715E+04  0.00000000000E+00 0. -1.
          6    1    1    2  502    0 -0.43808256363E+01 -0.52460244670E+02 -0.76585170022E+03  0.78691111037E+03  0.17300000000E+03 0. -1.
         -6    1    1    2    0  501  0.43808256363E+01  0.52460244670E+02 -0.20402232297E+03  0.27262680935E+03  0.17300000000E+03 0.  1.
<mgrwt>
<rscale>  2 0.18083216E+03</rscale>
<asrwt>0</asrwt>
<pdfrwt beam="1">  1        1 0.15610860E+00 0.18083216E+03</pdfrwt>
<pdfrwt beam="2">  1       -1 0.68972235E-02 0.18083216E+03</pdfrwt>
<totfact> 0.16816188E+03</totfact>
</mgrwt>
</event>
<event>
 4    1  0.7245070E-001  0.2373433E+03  0.7546771E-02  0.1121575E+00
         -3   -1    0    0    0  501 -0.00000000000E+00  0.00000000000E+00  0.13628080307E+04  0.13628080307E+04  0.00000000000E+00 0.  1.
          3   -1    0    0  502    0  0.00000000000E+00 -0.00000000000E+00 -0.41360670942E+02  0.41360670942E+02  0.00000000000E+00 0. -1.
          6    1    1    2  502    0  0.15427933877E+03 -0.50997231810E+02  0.64327317118E+03  0.68566187351E+03  0.17300000000E+03 0. -1.
         -6    1    1    2    0  501 -0.15427933877E+03  0.50997231810E+02  0.67817418862E+03  0.71850682818E+03  0.17300000000E+03 0. -1.
<mgrwt>
<rscale>  2 0.23734328E+03</rscale>
<asrwt>0</asrwt>
<pdfrwt beam="1">  1        3 0.63631812E-02 0.23734328E+03</pdfrwt>
<pdfrwt beam="2">  1       -3 0.20966274E+00 0.23734328E+03</pdfrwt>
<totfact> 0.53562928E+01</totfact>
</mgrwt>
</event>
<event>
 4    1  0.7245070E-001  0.2902729E+03  0.7546771E-02  0.1090207E+00
         -1   -1    0    0    0  501 -0.00000000000E+00  0.00000000000E+00  0.10202147301E+03  0.10202147301E+03  0.00000000000E+00 0.  1.
          1   -1    0    0  502    0  0.00000000000E+00 -0.00000000000E+00 -0.84945808089E+03  0.84945808089E+03  0.00000000000E+00 0. -1.
          6    1    1    2  502    0  0.18926563084E+03  0.13604372291E+03 -0.29447304072E+03  0.41348850682E+03  0.17300000000E+03 0.  1.
         -6    1    1    2    0  501 -0.18926563084E+03 -0.13604372291E+03 -0.45296356716E+03  0.53799104707E+03  0.17300000000E+03 0. -1.
<mgrwt>
<rscale>  2 0.29027293E+03</rscale>
<asrwt>0</asrwt>
<pdfrwt beam="1">  1        1 0.13068586E+00 0.29027293E+03</pdfrwt>
<pdfrwt beam="2">  1       -1 0.15695611E-01 0.29027293E+03</pdfrwt>
<totfact> 0.62836951E+02</totfact>
</mgrwt>
</event>
<event>
 4    1  0.7245070E-001  0.1856939E+03  0.7546771E-02  0.1162403E+00
         -2   -1    0    0    0  501 -0.00000000000E+00  0.00000000000E+00  0.12482048796E+02  0.12482048796E+02  0.00000000000E+00 0.  1.
          2   -1    0    0  502    0  0.00000000000E+00 -0.00000000000E+00 -0.30545987038E+04  0.30545987038E+04  0.00000000000E+00 0. -1.
          6    1    1    2  502    0  0.13080511936E+01 -0.67464945733E+02 -0.10468720393E+04  0.10632136646E+04  0.17300000000E+03 0.  1.
         -6    1    1    2    0  501 -0.13080511936E+01  0.67464945733E+02 -0.19952446157E+04  0.20038670880E+04  0.17300000000E+03 0. -1.
<mgrwt>
<rscale>  2 0.18569391E+03</rscale>
<asrwt>0</asrwt>
<pdfrwt beam="1">  1        2 0.46993846E+00 0.18569391E+03</pdfrwt>
<pdfrwt beam="2">  1       -2 0.19203144E-02 0.18569391E+03</pdfrwt>
<totfact> 0.16102448E+03</totfact>
</mgrwt>
</event>
<event>
 4    1  0.7245070E-001  0.2014463E+03  0.7546771E-02  0.1148524E+00
         -1   -1    0    0    0  501 -0.00000000000E+00  0.00000000000E+00  0.12717968478E+03  0.12717968478E+03  0.00000000000E+00 0.  1.
          1   -1    0    0  502    0  0.00000000000E+00 -0.00000000000E+00 -0.36118016304E+03  0.36118016304E+03  0.00000000000E+00 0. -1.
          6    1    1    2  502    0 -0.83532225012E+02  0.60613254621E+02 -0.20036559764E+03  0.28412492317E+03  0.17300000000E+03 0. -1.
         -6    1    1    2    0  501  0.83532225012E+02 -0.60613254621E+02 -0.33634880632E+02  0.20423492465E+03  0.17300000000E+03 0.  1.
<mgrwt>
<rscale>  2 0.20144627E+03</rscale>
<asrwt>0</asrwt>
<pdfrwt beam="1">  1        1 0.55566179E-01 0.20144627E+03</pdfrwt>
<pdfrwt beam="2">  1       -1 0.19566105E-01 0.20144627E+03</pdfrwt>
<totfact> 0.14373430E+03</totfact>
</mgrwt>
</event>
<event>
 4    1  0.7245070E-001  0.2513424E+03  0.7546771E-02  0.1112459E+00
         -1   -1    0    0    0  501 -0.00000000000E+00  0.00000000000E+00  0.90043281557E+02  0.90043281557E+02  0.00000000000E+00 0. -1.
          1   -1    0    0  502    0  0.00000000000E+00 -0.00000000000E+00 -0.96341949344E+03  0.96341949344E+03  0.00000000000E+00 0.  1.
          6    1    1    2  502    0  0.61679713182E+01 -0.18222508270E+03 -0.16209171134E+03  0.29907649108E+03  0.17300000000E+03 0. -1.
         -6    1    1    2    0  501 -0.61679713182E+01  0.18222508270E+03 -0.71128450055E+03  0.75438628391E+03  0.17300000000E+03 0.  1.
<mgrwt>
<rscale>  2 0.25134244E+03</rscale>
<asrwt>0</asrwt>
<pdfrwt beam="1">  1        1 0.14821837E+00 0.25134244E+03</pdfrwt>
<pdfrwt beam="2">  1       -1 0.13852813E-01 0.25134244E+03</pdfrwt>
<totfact> 0.62526342E+02</totfact>
</mgrwt>
</event>
<event>
 4    1  0.7245070E-001  0.2520786E+03  0.7546771E-02  0.1111998E+00
         -1   -1    0    0    0  501 -0.00000000000E+00  0.00000000000E+00  0.36230606398E+02  0.36230606398E+02  0.00000000000E+00 0. -1.
          1   -1    0    0  502    0  0.00000000000E+00 -0.00000000000E+00 -0.18289031728E+04  0.18289031728E+04  0.00000000000E+00 0.  1.
          6    1    1    2  502    0 -0.15226464718E+03 -0.10212789887E+03 -0.10852322669E+04  0.11141241868E+04  0.17300000000E+03 0.  1.
         -6    1    1    2    0  501  0.15226464718E+03  0.10212789887E+03 -0.70744029950E+03  0.75100959239E+03  0.17300000000E+03 0. -1.
<mgrwt>
<rscale>  2 0.25207862E+03</rscale>
<asrwt>0</asrwt>
<pdfrwt beam="1">  1        1 0.28136970E+00 0.25207862E+03</pdfrwt>
<pdfrwt beam="2">  1       -1 0.55739397E-02 0.25207862E+03</pdfrwt>
<totfact> 0.65246792E+02</totfact>
</mgrwt>
</event>
<event>
 4    1  0.7245070E-001  0.1783420E+03  0.7546771E-02  0.1169417E+00
          2   -1    0    0  502    0  0.00000000000E+00  0.00000000000E+00  0.11325564176E+04  0.11325564176E+04  0.00000000000E+00 0. -1.
         -2   -1    0    0    0  501 -0.00000000000E+00 -0.00000000000E+00 -0.10806902610E+03  0.10806902610E+03  0.00000000000E+00 0.  1.
          6    1    1    2  502    0  0.36852697526E+02 -0.22775653584E+02 -0.21418553962E+02  0.17962351228E+03  0.17300000000E+03 0.  1.
         -6    1    1    2    0  501 -0.36852697526E+02  0.22775653584E+02  0.10459059455E+04  0.10610019314E+04  0.17300000000E+03 0. -1.
<mgrwt>
<rscale>  2 0.17834195E+03</rscale>
<asrwt>0</asrwt>
<pdfrwt beam="1">  1        2 0.17423944E+00 0.17834195E+03</pdfrwt>
<pdfrwt beam="2">  1       -2 0.16626005E-01 0.17834195E+03</pdfrwt>
<totfact> 0.63773785E+02</totfact>
</mgrwt>
</event>
<event>
 4    1  0.7245070E-001  0.1973704E+03  0.7546771E-02  0.1151977E+00
         -1   -1    0    0    0  501 -0.00000000000E+00  0.00000000000E+00  0.20738093713E+04  0.20738093713E+04  0.00000000000E+00 0.  1.
          1   -1    0    0  502    0  0.00000000000E+00 -0.00000000000E+00 -0.25144962823E+02  0.25144962823E+02  0.00000000000E+00 0. -1.
          6    1    1    2  502    0  0.94446442883E+02 -0.10292509487E+02  0.15521676307E+04  0.15646659133E+04  0.17300000000E+03 0.  1.
         -6    1    1    2    0  501 -0.94446442883E+02  0.10292509487E+02  0.49649677776E+03  0.53428842085E+03  0.17300000000E+03 0. -1.
<mgrwt>
<rscale>  2 0.19737038E+03</rscale>
<asrwt>0</asrwt>
<pdfrwt beam="1">  1        1 0.38684575E-02 0.19737038E+03</pdfrwt>
<pdfrwt beam="2">  1       -1 0.31904746E+00 0.19737038E+03</pdfrwt>
<totfact> 0.70812342E+01</totfact>
</mgrwt>
</event>
<event>
 4    1  0.7245070E-001  0.1825559E+03  0.7546771E-02  0.1165352E+00
         -2   -1    0    0    0  501 -0.00000000000E+00  0.00000000000E+00  0.52138009280E+02  0.52138009280E+02  0.00000000000E+00 0. -1.
          2   -1    0    0  502    0  0.00000000000E+00 -0.00000000000E+00 -0.66635548086E+03  0.66635548086E+03  0.00000000000E+00 0.  1.
          6    1    1    2  502    0  0.12797481684E+02 -0.56867221103E+02 -0.37962949459E+03  0.42124245933E+03  0.17300000000E+03 0.  1.
         -6    1    1    2    0  501 -0.12797481684E+02  0.56867221103E+02 -0.23458797698E+03  0.29725103081E+03  0.17300000000E+03 0.  1.
<mgrwt>
<rscale>  2 0.18255590E+03</rscale>
<asrwt>0</asrwt>
<pdfrwt beam="1">  1        2 0.10251622E+00 0.18255590E+03</pdfrwt>
<pdfrwt beam="2">  1       -2 0.80212329E-02 0.18255590E+03</pdfrwt>
<totfact> 0.41237527E+03</totfact>
</mgrwt>
</event>
<event>
 4    1  0.7245070E-001  0.2667891E+03  0.7546771E-02  0.1103131E+00
          1   -1    0    0  502    0  0.00000000000E+00  0.00000000000E+00  0.10351274180E+04  0.10351274180E+04  0.00000000000E+00 0. -1.
         -1   -1    0    0    0  501 -0.00000000000E+00 -0.00000000000E+00 -0.69010292634E+02  0.69010292634E+02  0.00000000000E+00 0.  1.
          6    1    1    2  502    0  0.21049770136E+01 -0.20308365061E+03  0.51623944557E+03  0.58110202653E+03  0.17300000000E+03 0.  1.
         -6    1    1    2    0  501 -0.21049770136E+01  0.20308365061E+03  0.44987767980E+03  0.52303568412E+03  0.17300000000E+03 0. -1.
<mgrwt>
<rscale>  2 0.26678906E+03</rscale>
<asrwt>0</asrwt>
<pdfrwt beam="1">  1        1 0.15925036E+00 0.26678906E+03</pdfrwt>
<pdfrwt beam="2">  1       -1 0.10616969E-01 0.26678906E+03</pdfrwt>
<totfact> 0.83767674E+02</totfact>
</mgrwt>
</event>
<event>
 4    1  0.7245070E-001  0.2571925E+03  0.7546771E-02  0.1108842E+00
         -2   -1    0    0    0  501 -0.00000000000E+00  0.00000000000E+00  0.21426456259E+02  0.21426456259E+02  0.00000000000E+00 0. -1.
          2   -1    0    0  502    0  0.00000000000E+00 -0.00000000000E+00 -0.30957131081E+04  0.30957131081E+04  0.00000000000E+00 0.  1.
          6    1    1    2  502    0 -0.18444435709E+03  0.46896390698E+02 -0.16188219050E+04  0.16391254840E+04  0.17300000000E+03 0. -1.
         -6    1    1    2    0  501  0.18444435709E+03 -0.46896390698E+02 -0.14554647468E+04  0.14780140803E+04  0.17300000000E+03 0.  1.
<mgrwt>
<rscale>  2 0.25719252E+03</rscale>
<asrwt>0</asrwt>
<pdfrwt beam="1">  1        2 0.47626344E+00 0.25719252E+03</pdfrwt>
<pdfrwt beam="2">  1       -2 0.32963787E-02 0.25719252E+03</pdfrwt>
<totfact> 0.67365748E+02</totfact>
</mgrwt>
</event>
<event>
 4    1  0.7245070E-001  0.2300292E+03  0.7546771E-02  0.1126619E+00
         -2   -1    0    0    0  501 -0.00000000000E+00  0.00000000000E+00  0.11360599894E+03  0.11360599894E+03  0.00000000000E+00 0. -1.
          2   -1    0    0  502    0  0.00000000000E+00 -0.00000000000E+00 -0.67974318894E+03  0.67974318894E+03  0.00000000000E+00 0.  1.
          6    1    1    2  502    0  0.14621328816E+03 -0.40076305892E+02 -0.60507602631E+02  0.23785416941E+03  0.17300000000E+03 0. -1.
         -6    1    1    2    0  501 -0.14621328816E+03  0.40076305892E+02 -0.50562958737E+03  0.55549501848E+03  0.17300000000E+03 0.  1.
<mgrwt>
<rscale>  2 0.23002921E+03</rscale>
<asrwt>0</asrwt>
<pdfrwt beam="1">  1        2 0.10457588E+00 0.23002921E+03</pdfrwt>
<pdfrwt beam="2">  1       -2 0.17477846E-01 0.23002921E+03</pdfrwt>
<totfact> 0.11517288E+03</totfact>
</mgrwt>
</event>
<event>
 4    1  0.7245070E-001  0.1952309E+03  0.7546771E-02  0.1153826E+00
          3   -1    0    0  502    0  0.00000000000E+00  0.00000000000E+00  0.11200387913E+03  0.11200387913E+03  0.00000000000E+00 0.  1.
         -3   -1    0    0    0  501 -0.00000000000E+00 -0.00000000000E+00 -0.36331495154E+03  0.36331495154E+03  0.00000000000E+00 0. -1.
          6    1    1    2  502    0 -0.31587244187E+02 -0.84784231005E+02 -0.18546936368E+03  0.26928424515E+03  0.17300000000E+03 0. -1.
         -6    1    1    2    0  501  0.31587244187E+02  0.84784231005E+02 -0.65841708734E+02  0.20603458552E+03  0.17300000000E+03 0.  1.
<mgrwt>
<rscale>  2 0.19523094E+03</rscale>
<asrwt>0</asrwt>
<pdfrwt beam="1">  1        3 0.17231366E-01 0.19523094E+03</pdfrwt>
<pdfrwt beam="2">  1       -3 0.55894607E-01 0.19523094E+03</pdfrwt>
<totfact> 0.22642864E+02</totfact>
</mgrwt>
</event>
<event>
 4    1  0.7245070E-001  0.1832067E+03  0.7546771E-02  0.1164735E+00
          2   -1    0    0  502    0  0.00000000000E+00  0.00000000000E+00  0.53117337888E+03  0.53117337888E+03  0.00000000000E+00 0. -1.
         -2   -1    0    0    0  501 -0.00000000000E+00 -0.00000000000E+00 -0.12642260939E+03  0.12642260939E+03  0.00000000000E+00 0.  1.
          6    1    1    2  502    0  0.37864259496E+02  0.46925407654E+02  0.43491037125E+03  0.47192343346E+03  0.17300000000E+03 0. -1.
         -6    1    1    2    0  501 -0.37864259496E+02 -0.46925407654E+02 -0.30159601751E+02  0.18567255481E+03  0.17300000000E+03 0.  1.
<mgrwt>
<rscale>  2 0.18320670E+03</rscale>
<asrwt>0</asrwt>
<pdfrwt beam="1">  1        2 0.81718980E-01 0.18320670E+03</pdfrwt>
<pdfrwt beam="2">  1       -2 0.19449632E-01 0.18320670E+03</pdfrwt>
<totfact> 0.12767055E+03</totfact>
</mgrwt>
</event>
<event>
 4    1  0.7245070E-001  0.2048103E+03  0.7546771E-02  0.1145743E+00
         -2   -1    0    0    0  501 -0.00000000000E+00  0.00000000000E+00  0.14014545674E+03  0.14014545674E+03  0.00000000000E+00 0.  1.
          2   -1    0    0  502    0  0.00000000000E+00 -0.00000000000E+00 -0.30000546449E+03  0.30000546449E+03  0.00000000000E+00 0. -1.
          6    1    1    2  502    0  0.39974389043E+02 -0.10207991834E+03 -0.90508393689E+02  0.22391746434E+03  0.17300000000E+03 0. -1.
         -6    1    1    2    0  501 -0.39974389043E+02  0.10207991834E+03 -0.69351614052E+02  0.21623345689E+03  0.17300000000E+03 0. -1.
<mgrwt>
<rscale>  2 0.20481031E+03</rscale>
<asrwt>0</asrwt>
<pdfrwt beam="1">  1        2 0.46154686E-01 0.20481031E+03</pdfrwt>
<pdfrwt beam="2">  1       -2 0.21560840E-01 0.20481031E+03</pdfrwt>
<totfact> 0.19971443E+03</totfact>
</mgrwt>
</event>
<event>
 4    1  0.7245070E-001  0.1863656E+03  0.7546771E-02  0.1161781E+00
         -1   -1    0    0    0  501 -0.00000000000E+00  0.00000000000E+00  0.32456781716E+03  0.32456781716E+03  0.00000000000E+00 0. -1.
          1   -1    0    0  502    0  0.00000000000E+00 -0.00000000000E+00 -0.21366541076E+03  0.21366541076E+03  0.00000000000E+00 0.  1.
          6    1    1    2  502    0  0.69159286799E+02  0.44873183710E+01 -0.13468462533E+03  0.22993932086E+03  0.17300000000E+03 0.  1.
         -6    1    1    2    0  501 -0.69159286799E+02 -0.44873183710E+01  0.24558703173E+03  0.30829390706E+03  0.17300000000E+03 0. -1.
<mgrwt>
<rscale>  2 0.18636562E+03</rscale>
<asrwt>0</asrwt>
<pdfrwt beam="1">  1        1 0.32871601E-01 0.18636562E+03</pdfrwt>
<pdfrwt beam="2">  1       -1 0.49933511E-01 0.18636562E+03</pdfrwt>
<totfact> 0.55761205E+02</totfact>
</mgrwt>
</event>
<event>
 4    1  0.7245070E-001  0.2512351E+03  0.7546771E-02  0.1112527E+00
         -1   -1    0    0    0  501 -0.00000000000E+00  0.00000000000E+00  0.23652059577E+02  0.23652059577E+02  0.00000000000E+00 0. -1.
          1   -1    0    0  502    0  0.00000000000E+00 -0.00000000000E+00 -0.27611495461E+04  0.27611495461E+04  0.00000000000E+00 0.  1.
          6    1    1    2  502    0  0.14578279855E+03 -0.10925871447E+03 -0.11138974202E+04  0.11418785197E+04  0.17300000000E+03 0. -1.
         -6    1    1    2    0  501 -0.14578279855E+03  0.10925871447E+03 -0.16236000664E+04  0.16429230860E+04  0.17300000000E+03 0.  1.
<mgrwt>
<rscale>  2 0.25123513E+03</rscale>
<asrwt>0</asrwt>
<pdfrwt beam="1">  1        1 0.42479207E+00 0.25123513E+03</pdfrwt>
<pdfrwt beam="2">  1       -1 0.36387799E-02 0.25123513E+03</pdfrwt>
<totfact> 0.30081637E+02</totfact>
</mgrwt>
</event>
<event>
 4    1  0.7245070E-001  0.1962521E+03  0.7546771E-02  0.1152940E+00
          1   -1    0    0  502    0  0.00000000000E+00  0.00000000000E+00  0.48377445158E+02  0.48377445158E+02  0.00000000000E+00 0. -1.
         -1   -1    0    0    0  501 -0.00000000000E+00 -0.00000000000E+00 -0.94821318752E+03  0.94821318752E+03  0.00000000000E+00 0.  1.
          6    1    1    2  502    0 -0.62242263213E+02 -0.68642438358E+02 -0.25035946029E+03  0.31811121174E+03  0.17300000000E+03 0. -1.
         -6    1    1    2    0  501  0.62242263213E+02  0.68642438358E+02 -0.64947628207E+03  0.67847942094E+03  0.17300000000E+03 0.  1.
<mgrwt>
<rscale>  2 0.19625209E+03</rscale>
<asrwt>0</asrwt>
<pdfrwt beam="1">  1        1 0.74426837E-02 0.19625209E+03</pdfrwt>
<pdfrwt beam="2">  1       -1 0.14587896E+00 0.19625209E+03</pdfrwt>
<totfact> 0.39080898E+02</totfact>
</mgrwt>
</event>
<event>
 4    1  0.7245070E-001  0.2046402E+03  0.7546771E-02  0.1145882E+00
         -2   -1    0    0    0  501 -0.00000000000E+00  0.00000000000E+00  0.14235468300E+02  0.14235468300E+02  0.00000000000E+00 0. -1.
          2   -1    0    0  502    0  0.00000000000E+00 -0.00000000000E+00 -0.31610525925E+04  0.31610525925E+04  0.00000000000E+00 0.  1.
          6    1    1    2  502    0 -0.17568171700E+02 -0.10788864108E+03 -0.19915571081E+04  0.20020432849E+04  0.17300000000E+03 0. -1.
         -6    1    1    2    0  501  0.17568171700E+02  0.10788864108E+03 -0.11552600161E+04  0.11732447760E+04  0.17300000000E+03 0.  1.
<mgrwt>
<rscale>  2 0.20464017E+03</rscale>
<asrwt>0</asrwt>
<pdfrwt beam="1">  1        2 0.48631590E+00 0.20464017E+03</pdfrwt>
<pdfrwt beam="2">  1       -2 0.21900715E-02 0.20464017E+03</pdfrwt>
<totfact> 0.11420478E+03</totfact>
</mgrwt>
</event>
<event>
 4    1  0.7245070E-001  0.1852578E+03  0.7546771E-02  0.1162809E+00
         -1   -1    0    0    0  501 -0.00000000000E+00  0.00000000000E+00  0.74748907728E+02  0.74748907728E+02  0.00000000000E+00 0. -1.
          1   -1    0    0  502    0  0.00000000000E+00 -0.00000000000E+00 -0.47101584452E+03  0.47101584452E+03  0.00000000000E+00 0.  1.
          6    1    1    2  502    0 -0.59740981892E+02 -0.28678754040E+02 -0.15480925474E+03  0.24142568464E+03  0.17300000000E+03 0.  1.
         -6    1    1    2    0  501  0.59740981892E+02  0.28678754040E+02 -0.24145768206E+03  0.30433906761E+03  0.17300000000E+03 0.  1.
<mgrwt>
<rscale>  2 0.18525781E+03</rscale>
<asrwt>0</asrwt>
<pdfrwt beam="1">  1        1 0.72463977E-01 0.18525781E+03</pdfrwt>
<pdfrwt beam="2">  1       -1 0.11499832E-01 0.18525781E+03</pdfrwt>
<totfact> 0.23661659E+03</totfact>
</mgrwt>
</event>
<event>
 4    1  0.7245070E-001  0.1811679E+03  0.7546771E-02  0.1166678E+00
          2   -1    0    0  502    0  0.00000000000E+00  0.00000000000E+00  0.40626159253E+03  0.40626159253E+03  0.00000000000E+00 0.  1.
         -2   -1    0    0    0  501 -0.00000000000E+00 -0.00000000000E+00 -0.80829757644E+02  0.80829757644E+02  0.00000000000E+00 0. -1.
          6    1    1    2  502    0 -0.52848851080E+02 -0.99896269040E+01  0.15730111379E+03  0.23992797691E+03  0.17300000000E+03 0. -1.
         -6    1    1    2    0  501  0.52848851080E+02  0.99896269040E+01  0.16813072110E+03  0.24716337327E+03  0.17300000000E+03 0.  1.
<mgrwt>
<rscale>  2 0.18116786E+03</rscale>
<asrwt>0</asrwt>
<pdfrwt beam="1">  1        2 0.62501782E-01 0.18116786E+03</pdfrwt>
<pdfrwt beam="2">  1       -2 0.12435348E-01 0.18116786E+03</pdfrwt>
<totfact> 0.35889565E+03</totfact>
</mgrwt>
</event>
<event>
 4    1  0.7245070E-001  0.1880594E+03  0.7546771E-02  0.1160223E+00
         -1   -1    0    0    0  501 -0.00000000000E+00  0.00000000000E+00  0.31615309531E+03  0.31615309531E+03  0.00000000000E+00 0.  1.
          1   -1    0    0  502    0  0.00000000000E+00 -0.00000000000E+00 -0.15825155805E+03  0.15825155805E+03  0.00000000000E+00 0. -1.
          6    1    1    2  502    0  0.73512900749E+02 -0.57614196963E+01  0.20737378890E+03  0.27994683219E+03  0.17300000000E+03 0.  1.
         -6    1    1    2    0  501 -0.73512900749E+02  0.57614196963E+01 -0.49472251639E+02  0.19445782117E+03  0.17300000000E+03 0. -1.
<mgrwt>
<rscale>  2 0.18805941E+03</rscale>
<asrwt>0</asrwt>
<pdfrwt beam="1">  1        1 0.24346394E-01 0.18805941E+03</pdfrwt>
<pdfrwt beam="2">  1       -1 0.48638938E-01 0.18805941E+03</pdfrwt>
<totfact> 0.85404654E+02</totfact>
</mgrwt>
</event>
<event>
 4    1  0.7245070E-001  0.1917707E+03  0.7546771E-02  0.1156874E+00
         -1   -1    0    0    0  501 -0.00000000000E+00  0.00000000000E+00  0.17879868663E+02  0.17879868663E+02  0.00000000000E+00 0. -1.
          1   -1    0    0  502    0  0.00000000000E+00 -0.00000000000E+00 -0.20744682819E+04  0.20744682819E+04  0.00000000000E+00 0.  1.
          6    1    1    2  502    0 -0.69737357798E+02 -0.44538922880E+02 -0.93185238084E+03  0.95138050979E+03  0.17300000000E+03 0. -1.
         -6    1    1    2    0  501  0.69737357798E+02  0.44538922880E+02 -0.11247360324E+04  0.11409676407E+04  0.17300000000E+03 0. -1.
<mgrwt>
<rscale>  2 0.19177073E+03</rscale>
<asrwt>0</asrwt>
<pdfrwt beam="1">  1        1 0.31914895E+00 0.19177073E+03</pdfrwt>
<pdfrwt beam="2">  1       -1 0.27507491E-02 0.19177073E+03</pdfrwt>
<totfact> 0.13016710E+03</totfact>
</mgrwt>
</event>
<event>
 4    1  0.7245070E-001  0.3658418E+03  0.7546771E-02  0.1056294E+00
          2   -1    0    0  502    0  0.00000000000E+00  0.00000000000E+00  0.66825520798E+03  0.66825520798E+03  0.00000000000E+00 0.  1.
         -2   -1    0    0    0  501 -0.00000000000E+00 -0.00000000000E+00 -0.20451148291E+03  0.20451148291E+03  0.00000000000E+00 0. -1.
          6    1    1    2  502    0  0.20370773821E+03 -0.24982867647E+03  0.29461952959E+03  0.46972425679E+03  0.17300000000E+03 0.  1.
         -6    1    1    2    0  501 -0.20370773821E+03  0.24982867647E+03  0.16912419548E+03  0.40304243411E+03  0.17300000000E+03 0. -1.
<mgrwt>
<rscale>  2 0.36584178E+03</rscale>
<asrwt>0</asrwt>
<pdfrwt beam="1">  1        2 0.10280849E+00 0.36584178E+03</pdfrwt>
<pdfrwt beam="2">  1       -2 0.31463305E-01 0.36584178E+03</pdfrwt>
<totfact> 0.41613122E+02</totfact>
</mgrwt>
</event>
<event>
 4    1  0.7245070E-001  0.2002808E+03  0.7546771E-02  0.1149502E+00
         -1   -1    0    0    0  501 -0.00000000000E+00  0.00000000000E+00  0.20338111601E+04  0.20338111601E+04  0.00000000000E+00 0. -1.
          1   -1    0    0  502    0  0.00000000000E+00 -0.00000000000E+00 -0.20583233764E+02  0.20583233764E+02  0.00000000000E+00 0.  1.
          6    1    1    2  502    0 -0.50624589508E+02 -0.87295812544E+02  0.12166341572E+04  0.12330089539E+04  0.17300000000E+03 0.  1.
         -6    1    1    2    0  501  0.50624589508E+02  0.87295812544E+02  0.79659376921E+03  0.82138544003E+03  0.17300000000E+03 0.  1.
<mgrwt>
<rscale>  2 0.20028082E+03</rscale>
<asrwt>0</asrwt>
<pdfrwt beam="1">  1        1 0.31666530E-02 0.20028082E+03</pdfrwt>
<pdfrwt beam="2">  1       -1 0.31289386E+00 0.20028082E+03</pdfrwt>
<totfact> 0.10222105E+02</totfact>
</mgrwt>
</event>
<event>
 4    1  0.7245070E-001  0.2622116E+03  0.7546771E-02  0.1105822E+00
         -1   -1    0    0    0  501 -0.00000000000E+00  0.00000000000E+00  0.76811267316E+03  0.76811267316E+03  0.00000000000E+00 0.  1.
          1   -1    0    0  502    0  0.00000000000E+00 -0.00000000000E+00 -0.22844580477E+03  0.22844580477E+03  0.00000000000E+00 0. -1.
          6    1    1    2  502    0  0.16167291473E+03 -0.11264019194E+03 -0.11875143939E+03  0.28784865564E+03  0.17300000000E+03 0. -1.
         -6    1    1    2    0  501 -0.16167291473E+03  0.11264019194E+03  0.65841830778E+03  0.70870982229E+03  0.17300000000E+03 0.  1.
<mgrwt>
<rscale>  2 0.26221164E+03</rscale>
<asrwt>0</asrwt>
<pdfrwt beam="1">  1        1 0.35145509E-01 0.26221164E+03</pdfrwt>
<pdfrwt beam="2">  1       -1 0.11817118E+00 0.26221164E+03</pdfrwt>
<totfact> 0.85834131E+01</totfact>
</mgrwt>
</event>
<event>
 4    1  0.7245070E-001  0.3234824E+03  0.7546771E-02  0.1074058E+00
         -2   -1    0    0    0  501 -0.00000000000E+00  0.00000000000E+00  0.33433292380E+03  0.33433292380E+03  0.00000000000E+00 0.  1.
          2   -1    0    0  502    0  0.00000000000E+00 -0.00000000000E+00 -0.31503621306E+03  0.31503621306E+03  0.00000000000E+00 0. -1.
          6    1    1    2  502    0  0.23576975983E+03  0.13829119240E+03 -0.16557581076E+02  0.32390583051E+03  0.17300000000E+03 0. -1.
         -6    1    1    2    0  501 -0.23576975983E+03 -0.13829119240E+03  0.35854291817E+02  0.32546330636E+03  0.17300000000E+03 0.  1.
<mgrwt>
<rscale>  2 0.32348235E+03</rscale>
<asrwt>0</asrwt>
<pdfrwt beam="1">  1        2 0.48467110E-01 0.32348235E+03</pdfrwt>
<pdfrwt beam="2">  1       -2 0.51435834E-01 0.32348235E+03</pdfrwt>
<totfact> 0.37766835E+02</totfact>
</mgrwt>
</event>
<event>
 4    1  0.7245070E-001  0.2328672E+03  0.7546771E-02  0.1124638E+00
          1   -1    0    0  502    0  0.00000000000E+00  0.00000000000E+00  0.17345857799E+04  0.17345857799E+04  0.00000000000E+00 0.  1.
         -1   -1    0    0    0  501 -0.00000000000E+00 -0.00000000000E+00 -0.33176269705E+02  0.33176269705E+02  0.00000000000E+00 0. -1.
          6    1    1    2  502    0 -0.14269549196E+03 -0.62738468774E+02  0.10630042748E+04  0.10882119312E+04  0.17300000000E+03 0. -1.
         -6    1    1    2    0  501  0.14269549196E+03  0.62738468774E+02  0.63840523538E+03  0.67955011842E+03  0.17300000000E+03 0.  1.
<mgrwt>
<rscale>  2 0.23286717E+03</rscale>
<asrwt>0</asrwt>
<pdfrwt beam="1">  1        1 0.26685928E+00 0.23286717E+03</pdfrwt>
<pdfrwt beam="2">  1       -1 0.51040428E-02 0.23286717E+03</pdfrwt>
<totfact> 0.85948531E+02</totfact>
</mgrwt>
</event>
<event>
 4    1  0.7245070E-001  0.1774846E+03  0.7546771E-02  0.1170260E+00
         -1   -1    0    0    0  501 -0.00000000000E+00  0.00000000000E+00  0.33651622894E+02  0.33651622894E+02  0.00000000000E+00 0. -1.
          1   -1    0    0  502    0  0.00000000000E+00 -0.00000000000E+00 -0.19773936001E+04  0.19773936001E+04  0.00000000000E+00 0.  1.
          6    1    1    2  502    0 -0.39516722074E+02  0.31980490314E+01 -0.17015550942E+04  0.17107865260E+04  0.17300000000E+03 0.  1.
         -6    1    1    2    0  501  0.39516722074E+02 -0.31980490314E+01 -0.24218688303E+03  0.30025869705E+03  0.17300000000E+03 0. -1.
<mgrwt>
<rscale>  2 0.17748464E+03</rscale>
<asrwt>0</asrwt>
<pdfrwt beam="1">  1        1 0.30421445E+00 0.17748464E+03</pdfrwt>
<pdfrwt beam="2">  1       -1 0.51771720E-02 0.17748464E+03</pdfrwt>
<totfact> 0.59150652E+02</totfact>
</mgrwt>
</event>
<event>
 4    1  0.7245070E-001  0.1942861E+03  0.7546771E-02  0.1154651E+00
          2   -1    0    0  502    0  0.00000000000E+00  0.00000000000E+00  0.19835191002E+04  0.19835191002E+04  0.00000000000E+00 0.  1.
         -2   -1    0    0    0  501 -0.00000000000E+00 -0.00000000000E+00 -0.26461352637E+02  0.26461352637E+02  0.00000000000E+00 0. -1.
          6    1    1    2  502    0  0.82609313062E+02 -0.31524146630E+02  0.44595554646E+03  0.48643953359E+03  0.17300000000E+03 0. -1.
         -6    1    1    2    0  501 -0.82609313062E+02  0.31524146630E+02  0.15111022011E+04  0.15235409192E+04  0.17300000000E+03 0.  1.
<mgrwt>
<rscale>  2 0.19428605E+03</rscale>
<asrwt>0</asrwt>
<pdfrwt beam="1">  1        2 0.30515667E+00 0.19428605E+03</pdfrwt>
<pdfrwt beam="2">  1       -2 0.40709789E-02 0.19428605E+03</pdfrwt>
<totfact> 0.20375775E+03</totfact>
</mgrwt>
</event>
<event>
 4    1  0.7245070E-001  0.2087533E+03  0.7546771E-02  0.1142557E+00
         -1   -1    0    0    0  501 -0.00000000000E+00  0.00000000000E+00  0.12630500097E+04  0.12630500097E+04  0.00000000000E+00 0.  1.
          1   -1    0    0  502    0  0.00000000000E+00 -0.00000000000E+00 -0.53892422764E+02  0.53892422764E+02  0.00000000000E+00 0. -1.
          6    1    1    2  502    0 -0.83422797104E+02 -0.81789884284E+02  0.20960813377E+03  0.29582683785E+03  0.17300000000E+03 0. -1.
         -6    1    1    2    0  501  0.83422797104E+02  0.81789884284E+02  0.99954945316E+03  0.10211155946E+04  0.17300000000E+03 0.  1.
<mgrwt>
<rscale>  2 0.20875332E+03</rscale>
<asrwt>0</asrwt>
<pdfrwt beam="1">  1        1 0.82911429E-02 0.20875332E+03</pdfrwt>
<pdfrwt beam="2">  1       -1 0.19431536E+00 0.20875332E+03</pdfrwt>
<totfact> 0.15213230E+02</totfact>
</mgrwt>
</event>
<event>
 4    1  0.7245070E-001  0.1769473E+03  0.7546771E-02  0.1170791E+00
         -2   -1    0    0    0  501 -0.00000000000E+00  0.00000000000E+00  0.15917964790E+03  0.15917964790E+03  0.00000000000E+00 0. -1.
          2   -1    0    0  502    0  0.00000000000E+00 -0.00000000000E+00 -0.24922647779E+03  0.24922647779E+03  0.00000000000E+00 0.  1.
          6    1    1    2  502    0 -0.37164627657E+02  0.37104542207E+00  0.48724543897E+02  0.18353318066E+03  0.17300000000E+03 0. -1.
         -6    1    1    2    0  501  0.37164627657E+02 -0.37104542207E+00 -0.13877137379E+03  0.22487294503E+03  0.17300000000E+03 0.  1.
<mgrwt>
<rscale>  2 0.17694730E+03</rscale>
<asrwt>0</asrwt>
<pdfrwt beam="1">  1        2 0.38342535E-01 0.17694730E+03</pdfrwt>
<pdfrwt beam="2">  1       -2 0.24489176E-01 0.17694730E+03</pdfrwt>
<totfact> 0.19441284E+03</totfact>
</mgrwt>
</event>
<event>
 4    1  0.7245070E-001  0.1859446E+03  0.7546771E-02  0.1162171E+00
          1   -1    0    0  502    0  0.00000000000E+00  0.00000000000E+00  0.51759782427E+03  0.51759782427E+03  0.00000000000E+00 0.  1.
         -1   -1    0    0    0  501 -0.00000000000E+00 -0.00000000000E+00 -0.73244691212E+02  0.73244691212E+02  0.00000000000E+00 0. -1.
          6    1    1    2  502    0  0.44746114124E+01 -0.68017387544E+02  0.13454424333E+03  0.22951588304E+03  0.17300000000E+03 0. -1.
         -6    1    1    2    0  501 -0.44746114124E+01  0.68017387544E+02  0.30980888973E+03  0.36132663245E+03  0.17300000000E+03 0. -1.
<mgrwt>
<rscale>  2 0.18594458E+03</rscale>
<asrwt>0</asrwt>
<pdfrwt beam="1">  1        1 0.79630432E-01 0.18594458E+03</pdfrwt>
<pdfrwt beam="2">  1       -1 0.11268414E-01 0.18594458E+03</pdfrwt>
<totfact> 0.21572424E+03</totfact>
</mgrwt>
</event>
<event>
 4    1  0.7245070E-001  0.2009917E+03  0.7546771E-02  0.1148905E+00
          2   -1    0    0  502    0  0.00000000000E+00  0.00000000000E+00  0.27464770195E+03  0.27464770195E+03  0.00000000000E+00 0. -1.
         -2   -1    0    0    0  501 -0.00000000000E+00 -0.00000000000E+00 -0.14900703105E+03  0.14900703105E+03  0.00000000000E+00 0.  1.
          6    1    1    2  502    0  0.72593540962E+02  0.72102890611E+02  0.38787262216E+02  0.20470002622E+03  0.17300000000E+03 0.  1.
         -6    1    1    2    0  501 -0.72593540962E+02 -0.72102890611E+02  0.86853408685E+02  0.21895470679E+03  0.17300000000E+03 0. -1.
<mgrwt>
<rscale>  2 0.20099166E+03</rscale>
<asrwt>0</asrwt>
<pdfrwt beam="1">  1        2 0.42253493E-01 0.20099166E+03</pdfrwt>
<pdfrwt beam="2">  1       -2 0.22924159E-01 0.20099166E+03</pdfrwt>
<totfact> 0.19734380E+03</totfact>
</mgrwt>
</event>
<event>
 4    1  0.7245070E-001  0.1839748E+03  0.7546771E-02  0.1164011E+00
          1   -1    0    0  502    0  0.00000000000E+00  0.00000000000E+00  0.18151214326E+04  0.18151214326E+04  0.00000000000E+00 0.  1.
         -1   -1    0    0    0  501 -0.00000000000E+00 -0.00000000000E+00 -0.19460185876E+02  0.19460185876E+02  0.00000000000E+00 0. -1.
          6    1    1    2  502    0 -0.46643202802E+02 -0.41738746526E+02  0.71032790192E+03  0.73376592969E+03  0.17300000000E+03 0. -1.
         -6    1    1    2    0  501  0.46643202802E+02  0.41738746526E+02  0.10853333448E+04  0.11008156887E+04  0.17300000000E+03 0.  1.
<mgrwt>
<rscale>  2 0.18397476E+03</rscale>
<asrwt>0</asrwt>
<pdfrwt beam="1">  1        1 0.27924932E+00 0.18397476E+03</pdfrwt>
<pdfrwt beam="2">  1       -1 0.29938762E-02 0.18397476E+03</pdfrwt>
<totfact> 0.16882047E+03</totfact>
</mgrwt>
</event>
<event>
 4    1  0.7245070E-001  0.2303182E+03  0.7546771E-02  0.1126416E+00
          1   -1    0    0  502    0  0.00000000000E+00  0.00000000000E+00  0.11769751937E+04  0.11769751937E+04  0.00000000000E+00 0.  1.
         -1   -1    0    0    0  501 -0.00000000000E+00 -0.00000000000E+00 -0.45719980547E+02  0.45719980547E+02  0.00000000000E+00 0. -1.
          6    1    1    2  502    0  0.59545094464E+02  0.13989939457E+03  0.49274358860E+03  0.54391424231E+03  0.17300000000E+03 0.  1.
         -6    1    1    2    0  501 -0.59545094464E+02 -0.13989939457E+03  0.63851162452E+03  0.67878093191E+03  0.17300000000E+03 0.  1.
<mgrwt>
<rscale>  2 0.23031817E+03</rscale>
<asrwt>0</asrwt>
<pdfrwt beam="1">  1        1 0.18107308E+00 0.23031817E+03</pdfrwt>
<pdfrwt beam="2">  1       -1 0.70338441E-02 0.23031817E+03</pdfrwt>
<totfact> 0.12488224E+03</totfact>
</mgrwt>
</event>
<event>
 4    1  0.7245070E-001  0.2066517E+03  0.7546771E-02  0.1144245E+00
          2   -1    0    0  502    0  0.00000000000E+00  0.00000000000E+00  0.49963357062E+03  0.49963357062E+03  0.00000000000E+00 0.  1.
         -2   -1    0    0    0  501 -0.00000000000E+00 -0.00000000000E+00 -0.11813496464E+03  0.11813496464E+03  0.00000000000E+00 0. -1.
          6    1    1    2  502    0 -0.98406625197E+02  0.55606155704E+02  0.28332360998E+02  0.20858482954E+03  0.17300000000E+03 0. -1.
         -6    1    1    2    0  501  0.98406625197E+02 -0.55606155704E+02  0.35316624498E+03  0.40918370572E+03  0.17300000000E+03 0.  1.
<mgrwt>
<rscale>  2 0.20665166E+03</rscale>
<asrwt>0</asrwt>
<pdfrwt beam="1">  1        2 0.76866702E-01 0.20665166E+03</pdfrwt>
<pdfrwt beam="2">  1       -2 0.18174610E-01 0.20665166E+03</pdfrwt>
<totfact> 0.15361700E+03</totfact>
</mgrwt>
</event>
<event>
 4    1  0.7245070E-001  0.1960870E+03  0.7546771E-02  0.1153083E+00
         -2   -1    0    0    0  501 -0.00000000000E+00  0.00000000000E+00  0.64255889870E+02  0.64255889870E+02  0.00000000000E+00 0.  1.
          2   -1    0    0  502    0  0.00000000000E+00 -0.00000000000E+00 -0.66278421545E+03  0.66278421545E+03  0.00000000000E+00 0. -1.
          6    1    1    2  502    0 -0.88891082272E+02  0.24889582858E+02 -0.18595528376E+03  0.27023967769E+03  0.17300000000E+03 0. -1.
         -6    1    1    2    0  501  0.88891082272E+02 -0.24889582858E+02 -0.41257304182E+03  0.45680042763E+03  0.17300000000E+03 0. -1.
<mgrwt>
<rscale>  2 0.19608701E+03</rscale>
<asrwt>0</asrwt>
<pdfrwt beam="1">  1        2 0.10196680E+00 0.19608701E+03</pdfrwt>
<pdfrwt beam="2">  1       -2 0.98855221E-02 0.19608701E+03</pdfrwt>
<totfact> 0.29966982E+03</totfact>
</mgrwt>
</event>
<event>
 4    1  0.7245070E-001  0.1976874E+03  0.7546771E-02  0.1151705E+00
          1   -1    0    0  502    0  0.00000000000E+00  0.00000000000E+00  0.25069153973E+03  0.25069153973E+03  0.00000000000E+00 0. -1.
         -1   -1    0    0    0  501 -0.00000000000E+00 -0.00000000000E+00 -0.16259990288E+03  0.16259990288E+03  0.00000000000E+00 0.  1.
          6    1    1    2  502    0 -0.70685392544E+02 -0.64458418428E+02  0.20676657631E+01  0.19769822373E+03  0.17300000000E+03 0.  1.
         -6    1    1    2    0  501  0.70685392544E+02  0.64458418428E+02  0.86023971084E+02  0.21559321888E+03  0.17300000000E+03 0. -1.
<mgrwt>
<rscale>  2 0.19768741E+03</rscale>
<asrwt>0</asrwt>
<pdfrwt beam="1">  1        1 0.38567929E-01 0.19768741E+03</pdfrwt>
<pdfrwt beam="2">  1       -1 0.25015370E-01 0.19768741E+03</pdfrwt>
<totfact> 0.15193901E+03</totfact>
</mgrwt>
</event>
<event>
 4    1  0.7245070E-001  0.1872480E+03  0.7546771E-02  0.1160967E+00
          1   -1    0    0  502    0  0.00000000000E+00  0.00000000000E+00  0.10112011711E+04  0.10112011711E+04  0.00000000000E+00 0. -1.
         -1   -1    0    0    0  501 -0.00000000000E+00 -0.00000000000E+00 -0.36857360067E+02  0.36857360067E+02  0.00000000000E+00 0.  1.
          6    1    1    2  502    0  0.49217788966E+02 -0.52061869656E+02  0.61473093893E+03  0.64261649240E+03  0.17300000000E+03 0.  1.
         -6    1    1    2    0  501 -0.49217788966E+02  0.52061869656E+02  0.35961287213E+03  0.40544203880E+03  0.17300000000E+03 0.  1.
<mgrwt>
<rscale>  2 0.18724804E+03</rscale>
<asrwt>0</asrwt>
<pdfrwt beam="1">  1        1 0.15556939E+00 0.18724804E+03</pdfrwt>
<pdfrwt beam="2">  1       -1 0.56703639E-02 0.18724804E+03</pdfrwt>
<totfact> 0.22718121E+03</totfact>
</mgrwt>
</event>
<event>
 4    1  0.7245070E-001  0.2532704E+03  0.7546771E-02  0.1111255E+00
          2   -1    0    0  502    0  0.00000000000E+00  0.00000000000E+00  0.19966118914E+04  0.19966118914E+04  0.00000000000E+00 0. -1.
         -2   -1    0    0    0  501 -0.00000000000E+00 -0.00000000000E+00 -0.32443568002E+02  0.32443568002E+02  0.00000000000E+00 0.  1.
          6    1    1    2  502    0  0.70567196941E+02 -0.17098874766E+03  0.10822412947E+04  0.11114819392E+04  0.17300000000E+03 0. -1.
         -6    1    1    2    0  501 -0.70567196941E+02  0.17098874766E+03  0.88192702866E+03  0.91757352021E+03  0.17300000000E+03 0.  1.
<mgrwt>
<rscale>  2 0.25327037E+03</rscale>
<asrwt>0</asrwt>
<pdfrwt beam="1">  1        2 0.30717097E+00 0.25327037E+03</pdfrwt>
<pdfrwt beam="2">  1       -2 0.49913197E-02 0.25327037E+03</pdfrwt>
<totfact> 0.14666964E+03</totfact>
</mgrwt>
</event>
<event>
 4    1  0.7245070E-001  0.2110648E+03  0.7546771E-02  0.1140726E+00
         -1   -1    0    0    0  501 -0.00000000000E+00  0.00000000000E+00  0.82249470362E+02  0.82249470362E+02  0.00000000000E+00 0. -1.
          1   -1    0    0  502    0  0.00000000000E+00 -0.00000000000E+00 -0.89989981730E+03  0.89989981730E+03  0.00000000000E+00 0.  1.
          6    1    1    2  502    0  0.11027199474E+03  0.49592779069E+02 -0.98970062129E+02  0.23311677279E+03  0.17300000000E+03 0.  1.
         -6    1    1    2    0  501 -0.11027199474E+03 -0.49592779069E+02 -0.71868028481E+03  0.74903251487E+03  0.17300000000E+03 0.  1.
<mgrwt>
<rscale>  2 0.21106482E+03</rscale>
<asrwt>0</asrwt>
<pdfrwt beam="1">  1        1 0.13844613E+00 0.21106482E+03</pdfrwt>
<pdfrwt beam="2">  1       -1 0.12653764E-01 0.21106482E+03</pdfrwt>
<totfact> 0.80901876E+02</totfact>
</mgrwt>
</event>
<event>
 4    1  0.7245070E-001  0.1731600E+03  0.7546771E-02  0.1174592E+00
          2   -1    0    0  502    0  0.00000000000E+00  0.00000000000E+00  0.34368939087E+03  0.34368939087E+03  0.00000000000E+00 0.  1.
         -2   -1    0    0    0  501 -0.00000000000E+00 -0.00000000000E+00 -0.89242989910E+02  0.89242989910E+02  0.00000000000E+00 0. -1.
          6    1    1    2  502    0 -0.74035493902E+01  0.76807773963E+00  0.94815689345E+02  0.19741939477E+03  0.17300000000E+03 0. -1.
         -6    1    1    2    0  501  0.74035493902E+01 -0.76807773963E+00  0.15963071162E+03  0.23551298601E+03  0.17300000000E+03 0.  1.
<mgrwt>
<rscale>  2 0.17316005E+03</rscale>
<asrwt>0</asrwt>
<pdfrwt beam="1">  1        2 0.52875290E-01 0.17316005E+03</pdfrwt>
<pdfrwt beam="2">  1       -2 0.13729691E-01 0.17316005E+03</pdfrwt>
<totfact> 0.36520418E+03</totfact>
</mgrwt>
</event>
<event>
 4    1  0.7245070E-001  0.1757706E+03  0.7546771E-02  0.1171960E+00
         -2   -1    0    0    0  501 -0.00000000000E+00  0.00000000000E+00  0.38079555916E+03  0.38079555916E+03  0.00000000000E+00 0. -1.
          2   -1    0    0  502    0  0.00000000000E+00 -0.00000000000E+00 -0.20673276844E+03  0.20673276844E+03  0.00000000000E+00 0.  1.
          6    1    1    2  502    0 -0.13836187100E+02 -0.27836117479E+02 -0.14194338487E+03  0.22592745300E+03  0.17300000000E+03 0.  1.
         -6    1    1    2    0  501  0.13836187100E+02  0.27836117479E+02  0.31600617558E+03  0.36160087460E+03  0.17300000000E+03 0. -1.
<mgrwt>
<rscale>  2 0.17577056E+03</rscale>
<asrwt>0</asrwt>
<pdfrwt beam="1">  1        2 0.31805041E-01 0.17577056E+03</pdfrwt>
<pdfrwt beam="2">  1       -2 0.58583932E-01 0.17577056E+03</pdfrwt>
<totfact> 0.45772526E+02</totfact>
</mgrwt>
</event>
<event>
 4    1  0.7245070E-001  0.1807290E+03  0.7546771E-02  0.1167099E+00
          4   -1    0    0  502    0  0.00000000000E+00  0.00000000000E+00  0.22211315650E+04  0.22211315650E+04  0.00000000000E+00 0.  1.
         -4   -1    0    0    0  501 -0.00000000000E+00 -0.00000000000E+00 -0.18965683248E+02  0.18965683248E+02  0.00000000000E+00 0. -1.
          6    1    1    2  502    0 -0.26596043425E+02  0.45017861261E+02  0.16319237617E+04  0.16419007648E+04  0.17300000000E+03 0.  1.
         -6    1    1    2    0  501  0.26596043425E+02 -0.45017861261E+02  0.57024212001E+03  0.59819648344E+03  0.17300000000E+03 0. -1.
<mgrwt>
<rscale>  2 0.18072896E+03</rscale>
<asrwt>0</asrwt>
<pdfrwt beam="1">  1        4 0.34171234E+00 0.18072896E+03</pdfrwt>
<pdfrwt beam="2">  1       -4 0.29177992E-02 0.18072896E+03</pdfrwt>
<totfact> 0.20810228E+01</totfact>
</mgrwt>
</event>
<event>
 4    1  0.7245070E-001  0.1754593E+03  0.7546771E-02  0.1172271E+00
          2   -1    0    0  502    0  0.00000000000E+00  0.00000000000E+00  0.13148839561E+03  0.13148839561E+03  0.00000000000E+00 0.  1.
         -2   -1    0    0    0  501 -0.00000000000E+00 -0.00000000000E+00 -0.32456392803E+03  0.32456392803E+03  0.00000000000E+00 0. -1.
          6    1    1    2  502    0 -0.26720234735E+02  0.11958561576E+02 -0.21689973717E+03  0.27898292801E+03  0.17300000000E+03 0. -1.
         -6    1    1    2    0  501  0.26720234735E+02 -0.11958561576E+02  0.23824204747E+02  0.17706939564E+03  0.17300000000E+03 0.  1.
<mgrwt>
<rscale>  2 0.17545933E+03</rscale>
<asrwt>0</asrwt>
<pdfrwt beam="1">  1        2 0.20228984E-01 0.17545933E+03</pdfrwt>
<pdfrwt beam="2">  1       -2 0.49932912E-01 0.17545933E+03</pdfrwt>
<totfact> 0.10445447E+03</totfact>
</mgrwt>
</event>
<event>
 4    1  0.7245070E-001  0.1754341E+03  0.7546771E-02  0.1172297E+00
          2   -1    0    0  502    0  0.00000000000E+00  0.00000000000E+00  0.16071128495E+04  0.16071128495E+04  0.00000000000E+00 0. -1.
         -2   -1    0    0    0  501 -0.00000000000E+00 -0.00000000000E+00 -0.29731995600E+02  0.29731995600E+02  0.00000000000E+00 0.  1.
          6    1    1    2  502    0 -0.21175988971E+02  0.19992194326E+02  0.30044543758E+03  0.34791460347E+03  0.17300000000E+03 0.  1.
         -6    1    1    2    0  501  0.21175988971E+02 -0.19992194326E+02  0.12769354164E+04  0.12889302417E+04  0.17300000000E+03 0. -1.
<mgrwt>
<rscale>  2 0.17543406E+03</rscale>
<asrwt>0</asrwt>
<pdfrwt beam="1">  1        2 0.24724806E+00 0.17543406E+03</pdfrwt>
<pdfrwt beam="2">  1       -2 0.45741544E-02 0.17543406E+03</pdfrwt>
<totfact> 0.26820546E+03</totfact>
</mgrwt>
</event>
<event>
 4    1  0.7245070E-001  0.1828317E+03  0.7546771E-02  0.1165090E+00
          4   -1    0    0  502    0  0.00000000000E+00  0.00000000000E+00  0.34103542711E+02  0.34103542711E+02  0.00000000000E+00 0. -1.
         -4   -1    0    0    0  501 -0.00000000000E+00 -0.00000000000E+00 -0.98549684413E+03  0.98549684413E+03  0.00000000000E+00 0.  1.
          6    1    1    2  502    0  0.53387622882E+02  0.25459430591E+02 -0.43823160251E+03  0.47484140333E+03  0.17300000000E+03 0. -1.
         -6    1    1    2    0  501 -0.53387622882E+02 -0.25459430591E+02 -0.51316169891E+03  0.54475898351E+03  0.17300000000E+03 0. -1.
<mgrwt>
<rscale>  2 0.18283167E+03</rscale>
<asrwt>0</asrwt>
<pdfrwt beam="1">  1        4 0.52466991E-02 0.18283167E+03</pdfrwt>
<pdfrwt beam="2">  1       -4 0.15161489E+00 0.18283167E+03</pdfrwt>
<totfact> 0.11998850E+02</totfact>
</mgrwt>
</event>
<event>
 4    1  0.7245070E-001  0.1993444E+03  0.7546771E-02  0.1150293E+00
          1   -1    0    0  502    0  0.00000000000E+00  0.00000000000E+00  0.32208514974E+03  0.32208514974E+03  0.00000000000E+00 0. -1.
         -1   -1    0    0    0  501 -0.00000000000E+00 -0.00000000000E+00 -0.13178881085E+03  0.13178881085E+03  0.00000000000E+00 0.  1.
          6    1    1    2  502    0  0.69184842758E+02 -0.70870552824E+02  0.15247902889E+03  0.25097416595E+03  0.17300000000E+03 0. -1.
         -6    1    1    2    0  501 -0.69184842758E+02  0.70870552824E+02  0.37817310002E+02  0.20289979463E+03  0.17300000000E+03 0.  1.
<mgrwt>
<rscale>  2 0.19934437E+03</rscale>
<asrwt>0</asrwt>
<pdfrwt beam="1">  1        1 0.49551561E-01 0.19934437E+03</pdfrwt>
<pdfrwt beam="2">  1       -1 0.20275202E-01 0.19934437E+03</pdfrwt>
<totfact> 0.15673276E+03</totfact>
</mgrwt>
</event>
<event>
 4    1  0.7245070E-001  0.1761630E+03  0.7546771E-02  0.1171569E+00
         -4   -1    0    0    0  501 -0.00000000000E+00  0.00000000000E+00  0.13304053676E+03  0.13304053676E+03  0.00000000000E+00 0.  1.
          4   -1    0    0  502    0  0.00000000000E+00 -0.00000000000E+00 -0.25473794546E+03  0.25473794546E+03  0.00000000000E+00 0. -1.
          6    1    1    2  502    0  0.31396578827E+02  0.10893581676E+02 -0.45531107968E+01  0.17622186613E+03  0.17300000000E+03 0.  1.
         -6    1    1    2    0  501 -0.31396578827E+02 -0.10893581676E+02 -0.11714429790E+03  0.21155661610E+03  0.17300000000E+03 0. -1.
<mgrwt>
<rscale>  2 0.17616304E+03</rscale>
<asrwt>0</asrwt>
<pdfrwt beam="1">  1        4 0.39190453E-01 0.17616304E+03</pdfrwt>
<pdfrwt beam="2">  1       -4 0.20467775E-01 0.17616304E+03</pdfrwt>
<totfact> 0.23884548E+02</totfact>
</mgrwt>
</event>
<event>
 4    1  0.7245070E-001  0.1939339E+03  0.7546771E-02  0.1154960E+00
          1   -1    0    0  502    0  0.00000000000E+00  0.00000000000E+00  0.72602696516E+03  0.72602696516E+03  0.00000000000E+00 0. -1.
         -1   -1    0    0    0  501 -0.00000000000E+00 -0.00000000000E+00 -0.52432686239E+02  0.52432686239E+02  0.00000000000E+00 0.  1.
          6    1    1    2  502    0  0.53268776351E+02 -0.69597508618E+02  0.29414245351E+03  0.35232110169E+03  0.17300000000E+03 0.  1.
         -6    1    1    2    0  501 -0.53268776351E+02  0.69597508618E+02  0.37945182542E+03  0.42613854971E+03  0.17300000000E+03 0. -1.
<mgrwt>
<rscale>  2 0.19393395E+03</rscale>
<asrwt>0</asrwt>
<pdfrwt beam="1">  1        1 0.11169645E+00 0.19393395E+03</pdfrwt>
<pdfrwt beam="2">  1       -1 0.80665676E-02 0.19393395E+03</pdfrwt>
<totfact> 0.22536394E+03</totfact>
</mgrwt>
</event>
<event>
 4    1  0.7245070E-001  0.1763594E+03  0.7546771E-02  0.1171374E+00
         -3   -1    0    0    0  501 -0.00000000000E+00  0.00000000000E+00  0.14100354921E+03  0.14100354921E+03  0.00000000000E+00 0.  1.
          3   -1    0    0  502    0  0.00000000000E+00 -0.00000000000E+00 -0.30310680923E+03  0.30310680923E+03  0.00000000000E+00 0. -1.
          6    1    1    2  502    0  0.22240655799E+02 -0.26057776808E+02 -0.19691839407E+03  0.26434732536E+03  0.17300000000E+03 0. -1.
         -6    1    1    2    0  501 -0.22240655799E+02  0.26057776808E+02  0.34815134049E+02  0.17976303308E+03  0.17300000000E+03 0.  1.
<mgrwt>
<rscale>  2 0.17635945E+03</rscale>
<asrwt>0</asrwt>
<pdfrwt beam="1">  1        3 0.46631817E-01 0.17635945E+03</pdfrwt>
<pdfrwt beam="2">  1       -3 0.21692854E-01 0.17635945E+03</pdfrwt>
<totfact> 0.21491607E+02</totfact>
</mgrwt>
</event>
<event>
 4    1  0.7245070E-001  0.2303513E+03  0.7546771E-02  0.1126393E+00
          2   -1    0    0  502    0  0.00000000000E+00  0.00000000000E+00  0.31552857792E+04  0.31552857792E+04  0.00000000000E+00 0. -1.
         -2   -1    0    0    0  501 -0.00000000000E+00 -0.00000000000E+00 -0.48777318020E+02  0.48777318020E+02  0.00000000000E+00 0.  1.
          6    1    1    2  502    0 -0.15204073191E+03 -0.40414393921E+01  0.28500429075E+04  0.28593366874E+04  0.17300000000E+03 0. -1.
         -6    1    1    2    0  501  0.15204073191E+03  0.40414393921E+01  0.25646555367E+03  0.34472640980E+03  0.17300000000E+03 0.  1.
<mgrwt>
<rscale>  2 0.23035129E+03</rscale>
<asrwt>0</asrwt>
<pdfrwt beam="1">  1        2 0.48542842E+00 0.23035129E+03</pdfrwt>
<pdfrwt beam="2">  1       -2 0.75042053E-02 0.23035129E+03</pdfrwt>
<totfact> 0.17845448E+02</totfact>
</mgrwt>
</event>
<event>
 4    1  0.7245070E-001  0.1844961E+03  0.7546771E-02  0.1163521E+00
         -2   -1    0    0    0  501 -0.00000000000E+00  0.00000000000E+00  0.93967533740E+02  0.93967533740E+02  0.00000000000E+00 0. -1.
          2   -1    0    0  502    0  0.00000000000E+00 -0.00000000000E+00 -0.44636423796E+03  0.44636423796E+03  0.00000000000E+00 0.  1.
          6    1    1    2  502    0  0.15997215275E+02  0.62079670318E+02 -0.29348443142E+03  0.34665820032E+03  0.17300000000E+03 0.  1.
         -6    1    1    2    0  501 -0.15997215275E+02 -0.62079670318E+02 -0.58912272794E+02  0.19367357137E+03  0.17300000000E+03 0. -1.
<mgrwt>
<rscale>  2 0.18449606E+03</rscale>
<asrwt>0</asrwt>
<pdfrwt beam="1">  1        2 0.68671420E-01 0.18449606E+03</pdfrwt>
<pdfrwt beam="2">  1       -2 0.14456544E-01 0.18449606E+03</pdfrwt>
<totfact> 0.25380120E+03</totfact>
</mgrwt>
</event>
<event>
 4    1  0.7245070E-001  0.1811063E+03  0.7546771E-02  0.1166737E+00
          2   -1    0    0  502    0  0.00000000000E+00  0.00000000000E+00  0.61345603850E+02  0.61345603850E+02  0.00000000000E+00 0. -1.
         -2   -1    0    0    0  501 -0.00000000000E+00 -0.00000000000E+00 -0.54733269116E+03  0.54733269116E+03  0.00000000000E+00 0.  1.
          6    1    1    2  502    0  0.42680092742E+02  0.32386600419E+02 -0.19669757720E+03  0.26737505321E+03  0.17300000000E+03 0. -1.
         -6    1    1    2    0  501 -0.42680092742E+02 -0.32386600419E+02 -0.28928951011E+03  0.34130324180E+03  0.17300000000E+03 0. -1.
<mgrwt>
<rscale>  2 0.18110627E+03</rscale>
<asrwt>0</asrwt>
<pdfrwt beam="1">  1        2 0.94377853E-02 0.18110627E+03</pdfrwt>
<pdfrwt beam="2">  1       -2 0.84205029E-01 0.18110627E+03</pdfrwt>
<totfact> 0.86484759E+02</totfact>
</mgrwt>
</event>
<event>
 4    1  0.7245070E-001  0.2295551E+03  0.7546771E-02  0.1126953E+00
         -1   -1    0    0    0  501 -0.00000000000E+00  0.00000000000E+00  0.53246342463E+03  0.53246342463E+03  0.00000000000E+00 0.  1.
          1   -1    0    0  502    0  0.00000000000E+00 -0.00000000000E+00 -0.21169615989E+03  0.21169615989E+03  0.00000000000E+00 0. -1.
          6    1    1    2  502    0 -0.10939924645E+03  0.10391501941E+03 -0.11113557420E+03  0.25504243223E+03  0.17300000000E+03 0. -1.
         -6    1    1    2    0  501  0.10939924645E+03 -0.10391501941E+03  0.43190283894E+03  0.48911715229E+03  0.17300000000E+03 0.  1.
<mgrwt>
<rscale>  2 0.22955506E+03</rscale>
<asrwt>0</asrwt>
<pdfrwt beam="1">  1        1 0.32568640E-01 0.22955506E+03</pdfrwt>
<pdfrwt beam="2">  1       -1 0.81917449E-01 0.22955506E+03</pdfrwt>
<totfact> 0.21406357E+02</totfact>
</mgrwt>
</event>
<event>
 4    1  0.7245070E-001  0.1986261E+03  0.7546771E-02  0.1150903E+00
         -2   -1    0    0    0  501 -0.00000000000E+00  0.00000000000E+00  0.57416744504E+02  0.57416744504E+02  0.00000000000E+00 0. -1.
          2   -1    0    0  502    0  0.00000000000E+00 -0.00000000000E+00 -0.71577403448E+03  0.71577403448E+03  0.00000000000E+00 0.  1.
          6    1    1    2  502    0 -0.96329642725E+01  0.97110846801E+02 -0.40652611914E+03  0.45245529736E+03  0.17300000000E+03 0.  1.
         -6    1    1    2    0  501  0.96329642725E+01 -0.97110846801E+02 -0.25183117084E+03  0.32073548162E+03  0.17300000000E+03 0. -1.
<mgrwt>
<rscale>  2 0.19862606E+03</rscale>
<asrwt>0</asrwt>
<pdfrwt beam="1">  1        2 0.11011908E+00 0.19862606E+03</pdfrwt>
<pdfrwt beam="2">  1       -2 0.88333451E-02 0.19862606E+03</pdfrwt>
<totfact> 0.32642975E+03</totfact>
</mgrwt>
</event>
<event>
 4    1  0.7245070E-001  0.2727329E+03  0.7546771E-02  0.1099726E+00
          2   -1    0    0  502    0  0.00000000000E+00  0.00000000000E+00  0.12302583616E+04  0.12302583616E+04  0.00000000000E+00 0. -1.
         -2   -1    0    0    0  501 -0.00000000000E+00 -0.00000000000E+00 -0.61068880471E+02  0.61068880471E+02  0.00000000000E+00 0.  1.
          6    1    1    2  502    0  0.19053726997E+03  0.90276185099E+02  0.64898705575E+03  0.70396551008E+03  0.17300000000E+03 0.  1.
         -6    1    1    2    0  501 -0.19053726997E+03 -0.90276185099E+02  0.52020242536E+03  0.58736173198E+03  0.17300000000E+03 0.  1.
<mgrwt>
<rscale>  2 0.27273291E+03</rscale>
<asrwt>0</asrwt>
<pdfrwt beam="1">  1        2 0.18927050E+00 0.27273291E+03</pdfrwt>
<pdfrwt beam="2">  1       -2 0.93952133E-02 0.27273291E+03</pdfrwt>
<totfact> 0.14088157E+03</totfact>
</mgrwt>
</event>
<event>
 4    1  0.7245070E-001  0.1824435E+03  0.7546771E-02  0.1165459E+00
          2   -1    0    0  502    0  0.00000000000E+00  0.00000000000E+00  0.81701684865E+03  0.81701684865E+03  0.00000000000E+00 0. -1.
         -2   -1    0    0    0  501 -0.00000000000E+00 -0.00000000000E+00 -0.52046440167E+02  0.52046440167E+02  0.00000000000E+00 0.  1.
          6    1    1    2  502    0  0.57934297660E+02  0.50140464803E+00  0.17995948118E+03  0.25626363206E+03  0.17300000000E+03 0.  1.
         -6    1    1    2    0  501 -0.57934297660E+02 -0.50140464803E+00  0.58501092730E+03  0.61279965675E+03  0.17300000000E+03 0. -1.
<mgrwt>
<rscale>  2 0.18244351E+03</rscale>
<asrwt>0</asrwt>
<pdfrwt beam="1">  1        2 0.12569489E+00 0.18244351E+03</pdfrwt>
<pdfrwt beam="2">  1       -2 0.80071452E-02 0.18244351E+03</pdfrwt>
<totfact> 0.32220214E+03</totfact>
</mgrwt>
</event>
<event>
 4    1  0.7245070E-001  0.1854088E+03  0.7546771E-02  0.1162669E+00
         -2   -1    0    0    0  501 -0.00000000000E+00  0.00000000000E+00  0.31605417260E+02  0.31605417260E+02  0.00000000000E+00 0. -1.
          2   -1    0    0  502    0  0.00000000000E+00 -0.00000000000E+00 -0.11110770161E+04  0.11110770161E+04  0.00000000000E+00 0.  1.
          6    1    1    2  502    0 -0.64043361241E+02  0.18597741260E+02 -0.45681788245E+03  0.49301014779E+03  0.17300000000E+03 0. -1.
         -6    1    1    2    0  501  0.64043361241E+02 -0.18597741260E+02 -0.62265371635E+03  0.64967228552E+03  0.17300000000E+03 0.  1.
<mgrwt>
<rscale>  2 0.18540881E+03</rscale>
<asrwt>0</asrwt>
<pdfrwt beam="1">  1        2 0.17093494E+00 0.18540881E+03</pdfrwt>
<pdfrwt beam="2">  1       -2 0.48623716E-02 0.18540881E+03</pdfrwt>
<totfact> 0.45492959E+03</totfact>
</mgrwt>
</event>
<event>
 4    1  0.7245070E-001  0.1862413E+03  0.7546771E-02  0.1161896E+00
          2   -1    0    0  502    0  0.00000000000E+00  0.00000000000E+00  0.11352861078E+04  0.11352861078E+04  0.00000000000E+00 0.  1.
         -2   -1    0    0    0  501 -0.00000000000E+00 -0.00000000000E+00 -0.33072293913E+02  0.33072293913E+02  0.00000000000E+00 0. -1.
          6    1    1    2  502    0  0.67611259630E+02 -0.13620915462E+02  0.38985764492E+03  0.43205878659E+03  0.17300000000E+03 0. -1.
         -6    1    1    2    0  501 -0.67611259630E+02  0.13620915462E+02  0.71235616901E+03  0.73629961517E+03  0.17300000000E+03 0. -1.
<mgrwt>
<rscale>  2 0.18624127E+03</rscale>
<asrwt>0</asrwt>
<pdfrwt beam="1">  1        2 0.17465937E+00 0.18624127E+03</pdfrwt>
<pdfrwt beam="2">  1       -2 0.50880461E-02 0.18624127E+03</pdfrwt>
<totfact> 0.41139538E+03</totfact>
</mgrwt>
</event>
<event>
 4    1  0.7245070E-001  0.1950554E+03  0.7546771E-02  0.1153979E+00
          2   -1    0    0  502    0  0.00000000000E+00  0.00000000000E+00  0.12750881760E+04  0.12750881760E+04  0.00000000000E+00 0. -1.
         -2   -1    0    0    0  501 -0.00000000000E+00 -0.00000000000E+00 -0.32622253186E+02  0.32622253186E+02  0.00000000000E+00 0.  1.
          6    1    1    2  502    0 -0.10085928588E+02  0.89531476568E+02  0.81223875549E+03  0.83533131581E+03  0.17300000000E+03 0. -1.
         -6    1    1    2    0  501  0.10085928588E+02 -0.89531476568E+02  0.43022716735E+03  0.47237911340E+03  0.17300000000E+03 0.  1.
<mgrwt>
<rscale>  2 0.19505541E+03</rscale>
<asrwt>0</asrwt>
<pdfrwt beam="1">  1        2 0.19616737E+00 0.19505541E+03</pdfrwt>
<pdfrwt beam="2">  1       -2 0.50188092E-02 0.19505541E+03</pdfrwt>
<totfact> 0.35091521E+03</totfact>
</mgrwt>
</event>
<event>
 4    1  0.7245070E-001  0.3195591E+03  0.7546771E-02  0.1075852E+00
          2   -1    0    0  502    0  0.00000000000E+00  0.00000000000E+00  0.43634267154E+04  0.43634267154E+04  0.00000000000E+00 0. -1.
         -2   -1    0    0    0  501 -0.00000000000E+00 -0.00000000000E+00 -0.23590606565E+02  0.23590606565E+02  0.00000000000E+00 0.  1.
          6    1    1    2  502    0 -0.26854935987E+03 -0.83806054840E+01  0.19743925918E+04  0.20000860231E+04  0.17300000000E+03 0.  1.
         -6    1    1    2    0  501  0.26854935987E+03  0.83806054840E+01  0.23654435171E+04  0.23869312989E+04  0.17300000000E+03 0. -1.
<mgrwt>
<rscale>  2 0.31955906E+03</rscale>
<asrwt>0</asrwt>
<pdfrwt beam="1">  1        2 0.67129577E+00 0.31955906E+03</pdfrwt>
<pdfrwt beam="2">  1       -2 0.36293276E-02 0.31955906E+03</pdfrwt>
<totfact> 0.70324342E+01</totfact>
</mgrwt>
</event>
<event>
 4    1  0.7245070E-001  0.1826974E+03  0.7546771E-02  0.1165218E+00
         -1   -1    0    0    0  501 -0.00000000000E+00  0.00000000000E+00  0.18812206867E+03  0.18812206867E+03  0.00000000000E+00 0. -1.
          1   -1    0    0  502    0  0.00000000000E+00 -0.00000000000E+00 -0.23147534930E+03  0.23147534930E+03  0.00000000000E+00 0.  1.
          6    1    1    2  502    0  0.54088460507E+02 -0.22886471643E+02  0.79698794557E+02  0.19932448419E+03  0.17300000000E+03 0. -1.
         -6    1    1    2    0  501 -0.54088460507E+02  0.22886471643E+02 -0.12305207519E+03  0.22027293377E+03  0.17300000000E+03 0.  1.
<mgrwt>
<rscale>  2 0.18269743E+03</rscale>
<asrwt>0</asrwt>
<pdfrwt beam="1">  1        1 0.35611592E-01 0.18269743E+03</pdfrwt>
<pdfrwt beam="2">  1       -1 0.28941857E-01 0.18269743E+03</pdfrwt>
<totfact> 0.13134597E+03</totfact>
</mgrwt>
</event>
<event>
 4    1  0.7245070E-001  0.1825061E+03  0.7546771E-02  0.1165399E+00
          2   -1    0    0  502    0  0.00000000000E+00  0.00000000000E+00  0.14507522868E+03  0.14507522868E+03  0.00000000000E+00 0.  1.
         -2   -1    0    0    0  501 -0.00000000000E+00 -0.00000000000E+00 -0.48440197504E+03  0.48440197504E+03  0.00000000000E+00 0. -1.
          6    1    1    2  502    0 -0.18035383953E+02  0.55264894702E+02 -0.39793560636E+03  0.43779130927E+03  0.17300000000E+03 0. -1.
         -6    1    1    2    0  501  0.18035383953E+02 -0.55264894702E+02  0.58608860003E+02  0.19168589445E+03  0.17300000000E+03 0.  1.
<mgrwt>
<rscale>  2 0.18250612E+03</rscale>
<asrwt>0</asrwt>
<pdfrwt beam="1">  1        2 0.22319266E-01 0.18250612E+03</pdfrwt>
<pdfrwt beam="2">  1       -2 0.74523380E-01 0.18250612E+03</pdfrwt>
<totfact> 0.40776295E+02</totfact>
</mgrwt>
</event>
<event>
 4    1  0.7245070E-001  0.1843115E+03  0.7546771E-02  0.1163694E+00
         -4   -1    0    0    0  501 -0.00000000000E+00  0.00000000000E+00  0.26069528235E+03  0.26069528235E+03  0.00000000000E+00 0. -1.
          4   -1    0    0  502    0  0.00000000000E+00 -0.00000000000E+00 -0.13053791894E+03  0.13053791894E+03  0.00000000000E+00 0.  1.
          6    1    1    2  502    0 -0.81976932367E+01 -0.63043810059E+02  0.56871996220E+02  0.19288636063E+03  0.17300000000E+03 0. -1.
         -6    1    1    2    0  501  0.81976932367E+01  0.63043810059E+02  0.73285367189E+02  0.19834684067E+03  0.17300000000E+03 0. -1.
<mgrwt>
<rscale>  2 0.18431149E+03</rscale>
<asrwt>0</asrwt>
<pdfrwt beam="1">  1        4 0.20082757E-01 0.18431149E+03</pdfrwt>
<pdfrwt beam="2">  1       -4 0.40106966E-01 0.18431149E+03</pdfrwt>
<totfact> 0.23788435E+02</totfact>
</mgrwt>
</event>
<event>
 4    1  0.7245070E-001  0.2382754E+03  0.7546771E-02  0.1120947E+00
          2   -1    0    0  502    0  0.00000000000E+00  0.00000000000E+00  0.17663793816E+04  0.17663793816E+04  0.00000000000E+00 0.  1.
         -2   -1    0    0    0  501 -0.00000000000E+00 -0.00000000000E+00 -0.44030115521E+02  0.44030115521E+02  0.00000000000E+00 0. -1.
          6    1    1    2  502    0  0.11556479672E+03 -0.11615046937E+03  0.39081886038E+03  0.45772757772E+03  0.17300000000E+03 0. -1.
         -6    1    1    2    0  501 -0.11556479672E+03  0.11615046937E+03  0.13315304057E+04  0.13526819194E+04  0.17300000000E+03 0.  1.
<mgrwt>
<rscale>  2 0.23827537E+03</rscale>
<asrwt>0</asrwt>
<pdfrwt beam="1">  1        2 0.27175062E+00 0.23827537E+03</pdfrwt>
<pdfrwt beam="2">  1       -2 0.67738653E-02 0.23827537E+03</pdfrwt>
<totfact> 0.12131088E+03</totfact>
</mgrwt>
</event>
<event>
 4    1  0.7245070E-001  0.1736777E+03  0.7546771E-02  0.1174066E+00
          2   -1    0    0  502    0  0.00000000000E+00  0.00000000000E+00  0.70808760367E+02  0.70808760367E+02  0.00000000000E+00 0.  1.
         -2   -1    0    0    0  501 -0.00000000000E+00 -0.00000000000E+00 -0.11576708620E+04  0.11576708620E+04  0.00000000000E+00 0. -1.
          6    1    1    2  502    0  0.10224716360E+02  0.11419507900E+02 -0.10317524195E+04  0.10462681325E+04  0.17300000000E+03 0. -1.
         -6    1    1    2    0  501 -0.10224716360E+02 -0.11419507900E+02 -0.55109682207E+02  0.18221148992E+03  0.17300000000E+03 0.  1.
<mgrwt>
<rscale>  2 0.17367772E+03</rscale>
<asrwt>0</asrwt>
<pdfrwt beam="1">  1        2 0.10893656E-01 0.17367772E+03</pdfrwt>
<pdfrwt beam="2">  1       -2 0.17810320E+00 0.17367772E+03</pdfrwt>
<totfact> 0.11608185E+02</totfact>
</mgrwt>
</event>
<event>
 4    1  0.7245070E-001  0.1843712E+03  0.7546771E-02  0.1163638E+00
          2   -1    0    0  502    0  0.00000000000E+00  0.00000000000E+00  0.29198490371E+03  0.29198490371E+03  0.00000000000E+00 0. -1.
         -2   -1    0    0    0  501 -0.00000000000E+00 -0.00000000000E+00 -0.12487583202E+03  0.12487583202E+03  0.00000000000E+00 0.  1.
          6    1    1    2  502    0 -0.40890314827E+02 -0.48905240322E+02  0.29315436461E+02  0.18668726575E+03  0.17300000000E+03 0.  1.
         -6    1    1    2    0  501  0.40890314827E+02  0.48905240322E+02  0.13779363523E+03  0.23017346999E+03  0.17300000000E+03 0.  1.
<mgrwt>
<rscale>  2 0.18437120E+03</rscale>
<asrwt>0</asrwt>
<pdfrwt beam="1">  1        2 0.44920754E-01 0.18437120E+03</pdfrwt>
<pdfrwt beam="2">  1       -2 0.19211667E-01 0.18437120E+03</pdfrwt>
<totfact> 0.24957874E+03</totfact>
</mgrwt>
</event>
<event>
 4    1  0.7245070E-001  0.1790010E+03  0.7546771E-02  0.1168773E+00
         -2   -1    0    0    0  501 -0.00000000000E+00  0.00000000000E+00  0.26772768229E+02  0.26772768229E+02  0.00000000000E+00 0.  1.
          2   -1    0    0  502    0  0.00000000000E+00 -0.00000000000E+00 -0.14437737934E+04  0.14437737934E+04  0.00000000000E+00 0. -1.
          6    1    1    2  502    0  0.14854707695E+02  0.43493447744E+02 -0.10126133229E+04  0.10283127365E+04  0.17300000000E+03 0. -1.
         -6    1    1    2    0  501 -0.14854707695E+02 -0.43493447744E+02 -0.40438770226E+03  0.44223382511E+03  0.17300000000E+03 0.  1.
<mgrwt>
<rscale>  2 0.17900096E+03</rscale>
<asrwt>0</asrwt>
<pdfrwt beam="1">  1        2 0.22211904E+00 0.17900096E+03</pdfrwt>
<pdfrwt beam="2">  1       -2 0.41188875E-02 0.17900096E+03</pdfrwt>
<totfact> 0.38261703E+03</totfact>
</mgrwt>
</event>
<event>
 4    1  0.7245070E-001  0.2463548E+03  0.7546771E-02  0.1115630E+00
          2   -1    0    0  502    0  0.00000000000E+00  0.00000000000E+00  0.75768088623E+03  0.75768088623E+03  0.00000000000E+00 0.  1.
         -2   -1    0    0    0  501 -0.00000000000E+00 -0.00000000000E+00 -0.82137739553E+02  0.82137739553E+02  0.00000000000E+00 0. -1.
          6    1    1    2  502    0  0.16340597114E+03  0.63719461651E+02  0.27164191667E+03  0.36671516480E+03  0.17300000000E+03 0. -1.
         -6    1    1    2    0  501 -0.16340597114E+03 -0.63719461651E+02  0.40390123001E+03  0.47310346099E+03  0.17300000000E+03 0.  1.
<mgrwt>
<rscale>  2 0.24635479E+03</rscale>
<asrwt>0</asrwt>
<pdfrwt beam="1">  1        2 0.11656629E+00 0.24635479E+03</pdfrwt>
<pdfrwt beam="2">  1       -2 0.12636576E-01 0.24635479E+03</pdfrwt>
<totfact> 0.17248414E+03</totfact>
</mgrwt>
</event>
<event>
 4    1  0.7245070E-001  0.3293599E+03  0.7546771E-02  0.1071420E+00
         -2   -1    0    0    0  501 -0.00000000000E+00  0.00000000000E+00  0.29689675311E+03  0.29689675311E+03  0.00000000000E+00 0.  1.
          2   -1    0    0  502    0  0.00000000000E+00 -0.00000000000E+00 -0.61240690142E+03  0.61240690142E+03  0.00000000000E+00 0. -1.
          6    1    1    2  502    0  0.17396966945E+03 -0.21973498797E+03  0.13100531289E+03  0.35445775889E+03  0.17300000000E+03 0.  1.
         -6    1    1    2    0  501 -0.17396966945E+03  0.21973498797E+03 -0.44651546120E+03  0.55484589565E+03  0.17300000000E+03 0. -1.
<mgrwt>
<rscale>  2 0.32935985E+03</rscale>
<asrwt>0</asrwt>
<pdfrwt beam="1">  1        2 0.94216445E-01 0.32935985E+03</pdfrwt>
<pdfrwt beam="2">  1       -2 0.45676424E-01 0.32935985E+03</pdfrwt>
<totfact> 0.22741927E+02</totfact>
</mgrwt>
</event>
<event>
 4    1  0.7245070E-001  0.2139810E+03  0.7546771E-02  0.1138452E+00
          1   -1    0    0  502    0  0.00000000000E+00  0.00000000000E+00  0.12861489823E+04  0.12861489823E+04  0.00000000000E+00 0.  1.
         -1   -1    0    0    0  501 -0.00000000000E+00 -0.00000000000E+00 -0.39193013678E+02  0.39193013678E+02  0.00000000000E+00 0. -1.
          6    1    1    2  502    0 -0.94156067418E+02 -0.83627283230E+02  0.82409919083E+03  0.85142666382E+03  0.17300000000E+03 0.  1.
         -6    1    1    2    0  501  0.94156067418E+02  0.83627283230E+02  0.42285677779E+03  0.47391533216E+03  0.17300000000E+03 0. -1.
<mgrwt>
<rscale>  2 0.21398104E+03</rscale>
<asrwt>0</asrwt>
<pdfrwt beam="1">  1        1 0.19786904E+00 0.21398104E+03</pdfrwt>
<pdfrwt beam="2">  1       -1 0.60296954E-02 0.21398104E+03</pdfrwt>
<totfact> 0.13257073E+03</totfact>
</mgrwt>
</event>
<event>
 4    1  0.7245070E-001  0.2286575E+03  0.7546771E-02  0.1127588E+00
          2   -1    0    0  502    0  0.00000000000E+00  0.00000000000E+00  0.77853666756E+02  0.77853666756E+02  0.00000000000E+00 0. -1.
         -2   -1    0    0    0  501 -0.00000000000E+00 -0.00000000000E+00 -0.12404996086E+04  0.12404996086E+04  0.00000000000E+00 0.  1.
          6    1    1    2  502    0  0.14699308079E+03 -0.27354424820E+02 -0.13491437722E+03  0.26549222123E+03  0.17300000000E+03 0. -1.
         -6    1    1    2    0  501 -0.14699308079E+03  0.27354424820E+02 -0.10277315647E+04  0.10528610541E+04  0.17300000000E+03 0.  1.
<mgrwt>
<rscale>  2 0.22865745E+03</rscale>
<asrwt>0</asrwt>
<pdfrwt beam="1">  1        2 0.11977487E-01 0.22865745E+03</pdfrwt>
<pdfrwt beam="2">  1       -2 0.19084609E+00 0.22865745E+03</pdfrwt>
<totfact> 0.84932928E+01</totfact>
</mgrwt>
</event>
<event>
 4    1  0.7245070E-001  0.2161331E+03  0.7546771E-02  0.1136799E+00
          2   -1    0    0  502    0  0.00000000000E+00  0.00000000000E+00  0.70731945698E+03  0.70731945698E+03  0.00000000000E+00 0.  1.
         -2   -1    0    0    0  501 -0.00000000000E+00 -0.00000000000E+00 -0.66350875175E+02  0.66350875175E+02  0.00000000000E+00 0. -1.
          6    1    1    2  502    0 -0.75934549046E+02 -0.10496895071E+03  0.34683259128E+03  0.40866414417E+03  0.17300000000E+03 0.  1.
         -6    1    1    2    0  501  0.75934549046E+02  0.10496895071E+03  0.29413599053E+03  0.36500618799E+03  0.17300000000E+03 0. -1.
<mgrwt>
<rscale>  2 0.21613314E+03</rscale>
<asrwt>0</asrwt>
<pdfrwt beam="1">  1        2 0.10881837E+00 0.21613314E+03</pdfrwt>
<pdfrwt beam="2">  1       -2 0.10207827E-01 0.21613314E+03</pdfrwt>
<totfact> 0.26405611E+03</totfact>
</mgrwt>
</event>
<event>
 4    1  0.7245070E-001  0.2194026E+03  0.7546771E-02  0.1134329E+00
         -1   -1    0    0    0  501 -0.00000000000E+00  0.00000000000E+00  0.15448331924E+03  0.15448331924E+03  0.00000000000E+00 0. -1.
          1   -1    0    0  502    0  0.00000000000E+00 -0.00000000000E+00 -0.32217516663E+03  0.32217516663E+03  0.00000000000E+00 0.  1.
          6    1    1    2  502    0  0.11415897419E+03 -0.71946012350E+02 -0.40673271002E+02  0.22314079648E+03  0.17300000000E+03 0. -1.
         -6    1    1    2    0  501 -0.11415897419E+03  0.71946012350E+02 -0.12701857639E+03  0.25351768938E+03  0.17300000000E+03 0.  1.
<mgrwt>
<rscale>  2 0.21940260E+03</rscale>
<asrwt>0</asrwt>
<pdfrwt beam="1">  1        1 0.49565410E-01 0.21940260E+03</pdfrwt>
<pdfrwt beam="2">  1       -1 0.23766665E-01 0.21940260E+03</pdfrwt>
<totfact> 0.12098172E+03</totfact>
</mgrwt>
</event>
<event>
 4    1  0.7245070E-001  0.1799990E+03  0.7546771E-02  0.1167804E+00
         -2   -1    0    0    0  501 -0.00000000000E+00  0.00000000000E+00  0.34466256001E+02  0.34466256001E+02  0.00000000000E+00 0. -1.
          2   -1    0    0  502    0  0.00000000000E+00 -0.00000000000E+00 -0.94005049902E+03  0.94005049902E+03  0.00000000000E+00 0.  1.
          6    1    1    2  502    0 -0.20115170956E+02  0.45453377507E+02 -0.45109830758E+03  0.48568437563E+03  0.17300000000E+03 0.  1.
         -6    1    1    2    0  501  0.20115170956E+02 -0.45453377507E+02 -0.45448593544E+03  0.48883237939E+03  0.17300000000E+03 0.  1.
<mgrwt>
<rscale>  2 0.17999897E+03</rscale>
<asrwt>0</asrwt>
<pdfrwt beam="1">  1        2 0.14462316E+00 0.17999897E+03</pdfrwt>
<pdfrwt beam="2">  1       -2 0.53025006E-02 0.17999897E+03</pdfrwt>
<totfact> 0.50467622E+03</totfact>
</mgrwt>
</event>
<event>
 4    1  0.7245070E-001  0.2574180E+03  0.7546771E-02  0.1108705E+00
          1   -1    0    0  502    0  0.00000000000E+00  0.00000000000E+00  0.84861617796E+03  0.84861617796E+03  0.00000000000E+00 0.  1.
         -1   -1    0    0    0  501 -0.00000000000E+00 -0.00000000000E+00 -0.12883928133E+03  0.12883928133E+03  0.00000000000E+00 0. -1.
          6    1    1    2  502    0 -0.15480071165E+03 -0.11122838568E+03  0.53141618075E+02  0.26284604939E+03  0.17300000000E+03 0. -1.
         -6    1    1    2    0  501  0.15480071165E+03  0.11122838568E+03  0.66663527856E+03  0.71460940990E+03  0.17300000000E+03 0.  1.
<mgrwt>
<rscale>  2 0.25741798E+03</rscale>
<asrwt>0</asrwt>
<pdfrwt beam="1">  1        1 0.13055633E+00 0.25741798E+03</pdfrwt>
<pdfrwt beam="2">  1       -1 0.19821428E-01 0.25741798E+03</pdfrwt>
<totfact> 0.43285092E+02</totfact>
</mgrwt>
</event>
<event>
 4    1  0.7245070E-001  0.1920225E+03  0.7546771E-02  0.1156650E+00
          1   -1    0    0  502    0  0.00000000000E+00  0.00000000000E+00  0.21269849928E+04  0.21269849928E+04  0.00000000000E+00 0.  1.
         -1   -1    0    0    0  501 -0.00000000000E+00 -0.00000000000E+00 -0.36686593194E+02  0.36686593194E+02  0.00000000000E+00 0. -1.
          6    1    1    2  502    0  0.78056238587E+01  0.82962039024E+02  0.25944525672E+03  0.32277619014E+03  0.17300000000E+03 0. -1.
         -6    1    1    2    0  501 -0.78056238587E+01 -0.82962039024E+02  0.18308531429E+04  0.18408953959E+04  0.17300000000E+03 0.  1.
<mgrwt>
<rscale>  2 0.19202247E+03</rscale>
<asrwt>0</asrwt>
<pdfrwt beam="1">  1        1 0.32722836E+00 0.19202247E+03</pdfrwt>
<pdfrwt beam="2">  1       -1 0.56440929E-02 0.19202247E+03</pdfrwt>
<totfact> 0.41529900E+02</totfact>
</mgrwt>
</event>
<event>
 4    1  0.7245070E-001  0.2256769E+03  0.7546771E-02  0.1129720E+00
          1   -1    0    0  502    0  0.00000000000E+00  0.00000000000E+00  0.59514041998E+03  0.59514041998E+03  0.00000000000E+00 0.  1.
         -1   -1    0    0    0  501 -0.00000000000E+00 -0.00000000000E+00 -0.16752919117E+03  0.16752919117E+03  0.00000000000E+00 0. -1.
          6    1    1    2  502    0  0.14231924319E+03  0.27318090929E+02 -0.52906511898E+02  0.23179547898E+03  0.17300000000E+03 0. -1.
         -6    1    1    2    0  501 -0.14231924319E+03 -0.27318090929E+02  0.48051774071E+03  0.53087413217E+03  0.17300000000E+03 0.  1.
<mgrwt>
<rscale>  2 0.22567686E+03</rscale>
<asrwt>0</asrwt>
<pdfrwt beam="1">  1        1 0.91560064E-01 0.22567686E+03</pdfrwt>
<pdfrwt beam="2">  1       -1 0.25773722E-01 0.22567686E+03</pdfrwt>
<totfact> 0.47473783E+02</totfact>
</mgrwt>
</event>
<event>
 4    1  0.7245070E-001  0.1842682E+03  0.7546771E-02  0.1163735E+00
         -2   -1    0    0    0  501 -0.00000000000E+00  0.00000000000E+00  0.59947172493E+02  0.59947172493E+02  0.00000000000E+00 0. -1.
          2   -1    0    0  502    0  0.00000000000E+00 -0.00000000000E+00 -0.75580701086E+03  0.75580701086E+03  0.00000000000E+00 0.  1.
          6    1    1    2  502    0  0.52115565427E+02  0.36190258976E+02 -0.55210781008E+03  0.58204621892E+03  0.17300000000E+03 0.  1.
         -6    1    1    2    0  501 -0.52115565427E+02 -0.36190258976E+02 -0.14375202829E+03  0.23370796444E+03  0.17300000000E+03 0. -1.
<mgrwt>
<rscale>  2 0.18426819E+03</rscale>
<asrwt>0</asrwt>
<pdfrwt beam="1">  1        2 0.11627800E+00 0.18426819E+03</pdfrwt>
<pdfrwt beam="2">  1       -2 0.92226420E-02 0.18426819E+03</pdfrwt>
<totfact> 0.28482368E+03</totfact>
</mgrwt>
</event>
<event>
 4    1  0.7245070E-001  0.2000313E+03  0.7546771E-02  0.1149713E+00
          2   -1    0    0  502    0  0.00000000000E+00  0.00000000000E+00  0.15610969508E+03  0.15610969508E+03  0.00000000000E+00 0.  1.
         -2   -1    0    0    0  501 -0.00000000000E+00 -0.00000000000E+00 -0.26937177022E+03  0.26937177022E+03  0.00000000000E+00 0. -1.
          6    1    1    2  502    0 -0.28927809277E+02 -0.96159685840E+02 -0.97850160166E+01  0.20027044183E+03  0.17300000000E+03 0. -1.
         -6    1    1    2    0  501  0.28927809277E+02  0.96159685840E+02 -0.10347705913E+03  0.22521102348E+03  0.17300000000E+03 0. -1.
<mgrwt>
<rscale>  2 0.20003126E+03</rscale>
<asrwt>0</asrwt>
<pdfrwt beam="1">  1        2 0.24016876E-01 0.20003126E+03</pdfrwt>
<pdfrwt beam="2">  1       -2 0.41441810E-01 0.20003126E+03</pdfrwt>
<totfact> 0.12427245E+03</totfact>
</mgrwt>
</event>
<event>
 4    1  0.7245070E-001  0.2243466E+03  0.7546771E-02  0.1130683E+00
         -1   -1    0    0    0  501 -0.00000000000E+00  0.00000000000E+00  0.37125974482E+03  0.37125974482E+03  0.00000000000E+00 0. -1.
          1   -1    0    0  502    0  0.00000000000E+00 -0.00000000000E+00 -0.13909975960E+03  0.13909975960E+03  0.00000000000E+00 0.  1.
          6    1    1    2  502    0  0.85858494176E+02  0.11415222267E+03  0.15673375637E+03  0.27367294596E+03  0.17300000000E+03 0.  1.
         -6    1    1    2    0  501 -0.85858494176E+02 -0.11415222267E+03  0.75426228840E+02  0.23668655847E+03  0.17300000000E+03 0.  1.
<mgrwt>
<rscale>  2 0.22434663E+03</rscale>
<asrwt>0</asrwt>
<pdfrwt beam="1">  1        1 0.21399963E-01 0.22434663E+03</pdfrwt>
<pdfrwt beam="2">  1       -1 0.57116883E-01 0.22434663E+03</pdfrwt>
<totfact> 0.74757015E+02</totfact>
</mgrwt>
</event>
<event>
 4    1  0.7245070E-001  0.2173360E+03  0.7546771E-02  0.1135885E+00
         -3   -1    0    0    0  501 -0.00000000000E+00  0.00000000000E+00  0.31084071803E+02  0.31084071803E+02  0.00000000000E+00 0.  1.
          3   -1    0    0  502    0  0.00000000000E+00 -0.00000000000E+00 -0.25108322867E+04  0.25108322867E+04  0.00000000000E+00 0. -1.
          6    1    1    2  502    0  0.50886583409E+02  0.12131162847E+03 -0.20384440257E+04  0.20499973174E+04  0.17300000000E+03 0. -1.
         -6    1    1    2    0  501 -0.50886583409E+02 -0.12131162847E+03 -0.44130418927E+03  0.49191904115E+03  0.17300000000E+03 0.  1.
<mgrwt>
<rscale>  2 0.21733604E+03</rscale>
<asrwt>0</asrwt>
<pdfrwt beam="1">  1        3 0.38628201E+00 0.21733604E+03</pdfrwt>
<pdfrwt beam="2">  1       -3 0.47821634E-02 0.21733604E+03</pdfrwt>
<totfact> 0.96658362E+00</totfact>
</mgrwt>
</event>
<event>
 4    1  0.7245070E-001  0.1970442E+03  0.7546771E-02  0.1152257E+00
         -2   -1    0    0    0  501 -0.00000000000E+00  0.00000000000E+00  0.11818950144E+03  0.11818950144E+03  0.00000000000E+00 0.  1.
          2   -1    0    0  502    0  0.00000000000E+00 -0.00000000000E+00 -0.71482741341E+03  0.71482741341E+03  0.00000000000E+00 0. -1.
          6    1    1    2  502    0  0.41521786215E+02 -0.84695635476E+02 -0.60451211250E+03  0.63581546345E+03  0.17300000000E+03 0. -1.
         -6    1    1    2    0  501 -0.41521786215E+02  0.84695635476E+02  0.78742005382E+01  0.19720145140E+03  0.17300000000E+03 0.  1.
<mgrwt>
<rscale>  2 0.19704418E+03</rscale>
<asrwt>0</asrwt>
<pdfrwt beam="1">  1        2 0.10997345E+00 0.19704418E+03</pdfrwt>
<pdfrwt beam="2">  1       -2 0.18183000E-01 0.19704418E+03</pdfrwt>
<totfact> 0.10135450E+03</totfact>
</mgrwt>
</event>
<event>
 4    1  0.7245070E-001  0.2848441E+03  0.7546771E-02  0.1093072E+00
          2   -1    0    0  502    0  0.00000000000E+00  0.00000000000E+00  0.13362953422E+03  0.13362953422E+03  0.00000000000E+00 0. -1.
         -2   -1    0    0    0  501 -0.00000000000E+00 -0.00000000000E+00 -0.61274501619E+03  0.61274501619E+03  0.00000000000E+00 0.  1.
          6    1    1    2  502    0  0.13303727913E+03 -0.18305250366E+03 -0.20396800689E+03  0.35034138289E+03  0.17300000000E+03 0. -1.
         -6    1    1    2    0  501 -0.13303727913E+03  0.18305250366E+03 -0.27514747507E+03  0.39603316752E+03  0.17300000000E+03 0.  1.
<mgrwt>
<rscale>  2 0.28484406E+03</rscale>
<asrwt>0</asrwt>
<pdfrwt beam="1">  1        2 0.20558390E-01 0.28484406E+03</pdfrwt>
<pdfrwt beam="2">  1       -2 0.94268465E-01 0.28484406E+03</pdfrwt>
<totfact> 0.26540572E+02</totfact>
</mgrwt>
</event>
<event>
 4    1  0.7245070E-001  0.2248849E+03  0.7546771E-02  0.1130293E+00
         -1   -1    0    0    0  501 -0.00000000000E+00  0.00000000000E+00  0.49356385930E+02  0.49356385930E+02  0.00000000000E+00 0.  1.
          1   -1    0    0  502    0  0.00000000000E+00 -0.00000000000E+00 -0.13957068597E+04  0.13957068597E+04  0.00000000000E+00 0. -1.
          6    1    1    2  502    0  0.10347194478E+03  0.99688291149E+02 -0.10457194965E+04  0.10696272547E+04  0.17300000000E+03 0. -1.
         -6    1    1    2    0  501 -0.10347194478E+03 -0.99688291149E+02 -0.30063097725E+03  0.37543599085E+03  0.17300000000E+03 0.  1.
<mgrwt>
<rscale>  2 0.22488486E+03</rscale>
<asrwt>0</asrwt>
<pdfrwt beam="1">  1        1 0.21472409E+00 0.22488486E+03</pdfrwt>
<pdfrwt beam="2">  1       -1 0.75932916E-02 0.22488486E+03</pdfrwt>
<totfact> 0.78795841E+02</totfact>
</mgrwt>
</event>
<event>
 4    1  0.7245070E-001  0.2245969E+03  0.7546771E-02  0.1130502E+00
         -2   -1    0    0    0  501 -0.00000000000E+00  0.00000000000E+00  0.17173462518E+03  0.17173462518E+03  0.00000000000E+00 0. -1.
          2   -1    0    0  502    0  0.00000000000E+00 -0.00000000000E+00 -0.30182808990E+03  0.30182808990E+03  0.00000000000E+00 0.  1.
          6    1    1    2  502    0  0.89078536493E+02 -0.11215966777E+03 -0.26264467650E+02  0.22612739551E+03  0.17300000000E+03 0. -1.
         -6    1    1    2    0  501 -0.89078536493E+02  0.11215966777E+03 -0.10382899706E+03  0.24743531957E+03  0.17300000000E+03 0. -1.
<mgrwt>
<rscale>  2 0.22459692E+03</rscale>
<asrwt>0</asrwt>
<pdfrwt beam="1">  1        2 0.46435090E-01 0.22459692E+03</pdfrwt>
<pdfrwt beam="2">  1       -2 0.26420712E-01 0.22459692E+03</pdfrwt>
<totfact> 0.13929582E+03</totfact>
</mgrwt>
</event>
<event>
 4    1  0.7245070E-001  0.2116933E+03  0.7546771E-02  0.1140232E+00
         -1   -1    0    0    0  501 -0.00000000000E+00  0.00000000000E+00  0.68321036872E+03  0.68321036872E+03  0.00000000000E+00 0. -1.
          1   -1    0    0  502    0  0.00000000000E+00 -0.00000000000E+00 -0.72320244424E+02  0.72320244424E+02  0.00000000000E+00 0.  1.
          6    1    1    2  502    0  0.32179533932E+02  0.11768405723E+03  0.19023264265E+03  0.28460941316E+03  0.17300000000E+03 0.  1.
         -6    1    1    2    0  501 -0.32179533932E+02 -0.11768405723E+03  0.42065748164E+03  0.47092119998E+03  0.17300000000E+03 0. -1.
<mgrwt>
<rscale>  2 0.21169332E+03</rscale>
<asrwt>0</asrwt>
<pdfrwt beam="1">  1        1 0.11126192E-01 0.21169332E+03</pdfrwt>
<pdfrwt beam="2">  1       -1 0.10510928E+00 0.21169332E+03</pdfrwt>
<totfact> 0.50060572E+02</totfact>
</mgrwt>
</event>
<event>
 4    1  0.7245070E-001  0.1903141E+03  0.7546771E-02  0.1158178E+00
         -2   -1    0    0    0  501 -0.00000000000E+00  0.00000000000E+00  0.32213569232E+03  0.32213569232E+03  0.00000000000E+00 0. -1.
          2   -1    0    0  502    0  0.00000000000E+00 -0.00000000000E+00 -0.13769801923E+03  0.13769801923E+03  0.00000000000E+00 0.  1.
          6    1    1    2  502    0  0.39815435250E+02  0.68594376917E+02 -0.62607234940E+01  0.19041705304E+03  0.17300000000E+03 0.  1.
         -6    1    1    2    0  501 -0.39815435250E+02 -0.68594376917E+02  0.19069839658E+03  0.26941665852E+03  0.17300000000E+03 0. -1.
<mgrwt>
<rscale>  2 0.19031410E+03</rscale>
<asrwt>0</asrwt>
<pdfrwt beam="1">  1        2 0.21184311E-01 0.19031410E+03</pdfrwt>
<pdfrwt beam="2">  1       -2 0.49559337E-01 0.19031410E+03</pdfrwt>
<totfact> 0.10082623E+03</totfact>
</mgrwt>
</event>
<event>
 4    1  0.7245070E-001  0.2738335E+03  0.7546771E-02  0.1099105E+00
          1   -1    0    0  502    0  0.00000000000E+00  0.00000000000E+00  0.14636275228E+03  0.14636275228E+03  0.00000000000E+00 0.  1.
         -1   -1    0    0    0  501 -0.00000000000E+00 -0.00000000000E+00 -0.51373882894E+03  0.51373882894E+03  0.00000000000E+00 0. -1.
          6    1    1    2  502    0 -0.19474952415E+03 -0.84429789455E+02 -0.16635143344E+03  0.32040219399E+03  0.17300000000E+03 0.  1.
         -6    1    1    2    0  501  0.19474952415E+03  0.84429789455E+02 -0.20102464322E+03  0.33969938723E+03  0.17300000000E+03 0. -1.
<mgrwt>
<rscale>  2 0.27383346E+03</rscale>
<asrwt>0</asrwt>
<pdfrwt beam="1">  1        1 0.22517346E-01 0.27383346E+03</pdfrwt>
<pdfrwt beam="2">  1       -1 0.79036743E-01 0.27383346E+03</pdfrwt>
<totfact> 0.36766034E+02</totfact>
</mgrwt>
</event>
<event>
 4    1  0.7245070E-001  0.2310591E+03  0.7546771E-02  0.1125897E+00
          2   -1    0    0  502    0  0.00000000000E+00  0.00000000000E+00  0.15471842385E+04  0.15471842385E+04  0.00000000000E+00 0. -1.
         -2   -1    0    0    0  501 -0.00000000000E+00 -0.00000000000E+00 -0.68763214662E+02  0.68763214662E+02  0.00000000000E+00 0.  1.
          6    1    1    2  502    0  0.59894963371E+02 -0.14096774511E+03  0.13094934441E+04  0.13297222988E+04  0.17300000000E+03 0. -1.
         -6    1    1    2    0  501 -0.59894963371E+02  0.14096774511E+03  0.16892757978E+03  0.28622515440E+03  0.17300000000E+03 0.  1.
<mgrwt>
<rscale>  2 0.23105911E+03</rscale>
<asrwt>0</asrwt>
<pdfrwt beam="1">  1        2 0.23802832E+00 0.23105911E+03</pdfrwt>
<pdfrwt beam="2">  1       -2 0.10578957E-01 0.23105911E+03</pdfrwt>
<totfact> 0.78572086E+02</totfact>
</mgrwt>
</event>
<event>
 4    1  0.7245070E-001  0.1950347E+03  0.7546771E-02  0.1153997E+00
         -1   -1    0    0    0  501 -0.00000000000E+00  0.00000000000E+00  0.26798490052E+03  0.26798490052E+03  0.00000000000E+00 0.  1.
          1   -1    0    0  502    0  0.00000000000E+00 -0.00000000000E+00 -0.19045847716E+03  0.19045847716E+03  0.00000000000E+00 0. -1.
          6    1    1    2  502    0 -0.28247691527E+02 -0.85508008492E+02  0.15445331114E+03  0.24878580529E+03  0.17300000000E+03 0.  1.
         -6    1    1    2    0  501  0.28247691527E+02  0.85508008492E+02 -0.76926887787E+02  0.20965757238E+03  0.17300000000E+03 0. -1.
<mgrwt>
<rscale>  2 0.19503474E+03</rscale>
<asrwt>0</asrwt>
<pdfrwt beam="1">  1        1 0.29301304E-01 0.19503474E+03</pdfrwt>
<pdfrwt beam="2">  1       -1 0.41228446E-01 0.19503474E+03</pdfrwt>
<totfact> 0.91094326E+02</totfact>
</mgrwt>
</event>
<event>
 4    1  0.7245070E-001  0.2330410E+03  0.7546771E-02  0.1124518E+00
          1   -1    0    0  502    0  0.00000000000E+00  0.00000000000E+00  0.13312535721E+04  0.13312535721E+04  0.00000000000E+00 0. -1.
         -1   -1    0    0    0  501 -0.00000000000E+00 -0.00000000000E+00 -0.55752576595E+02  0.55752576595E+02  0.00000000000E+00 0.  1.
          6    1    1    2  502    0  0.27832278962E+02  0.15363743312E+03  0.99696248501E+03  0.10238370442E+04  0.17300000000E+03 0. -1.
         -6    1    1    2    0  501 -0.27832278962E+02 -0.15363743312E+03  0.27853851047E+03  0.36316910444E+03  0.17300000000E+03 0.  1.
<mgrwt>
<rscale>  2 0.23304098E+03</rscale>
<asrwt>0</asrwt>
<pdfrwt beam="1">  1        1 0.20480822E+00 0.23304098E+03</pdfrwt>
<pdfrwt beam="2">  1       -1 0.85773205E-02 0.23304098E+03</pdfrwt>
<totfact> 0.72221945E+02</totfact>
</mgrwt>
</event>
<event>
 4    1  0.7245070E-001  0.2263361E+03  0.7546771E-02  0.1129245E+00
         -1   -1    0    0    0  501 -0.00000000000E+00  0.00000000000E+00  0.41691233207E+02  0.41691233207E+02  0.00000000000E+00 0.  1.
          1   -1    0    0  502    0  0.00000000000E+00 -0.00000000000E+00 -0.13202226604E+04  0.13202226604E+04  0.00000000000E+00 0. -1.
          6    1    1    2  502    0  0.13926647659E+03  0.43633592914E+02 -0.46002148356E+03  0.51268685108E+03  0.17300000000E+03 0.  1.
         -6    1    1    2    0  501 -0.13926647659E+03 -0.43633592914E+02 -0.81850994361E+03  0.84922704251E+03  0.17300000000E+03 0. -1.
<mgrwt>
<rscale>  2 0.22633613E+03</rscale>
<asrwt>0</asrwt>
<pdfrwt beam="1">  1        1 0.20311118E+00 0.22633613E+03</pdfrwt>
<pdfrwt beam="2">  1       -1 0.64140357E-02 0.22633613E+03</pdfrwt>
<totfact> 0.11443712E+03</totfact>
</mgrwt>
</event>
<event>
 4    1  0.7245070E-001  0.2324738E+03  0.7546771E-02  0.1124911E+00
         -1   -1    0    0    0  501 -0.00000000000E+00  0.00000000000E+00  0.82018813380E+02  0.82018813380E+02  0.00000000000E+00 0. -1.
          1   -1    0    0  502    0  0.00000000000E+00 -0.00000000000E+00 -0.73015507049E+03  0.73015507049E+03  0.00000000000E+00 0.  1.
          6    1    1    2  502    0 -0.48252138317E+02 -0.14760357241E+03 -0.45090608129E+03  0.50730698554E+03  0.17300000000E+03 0.  1.
         -6    1    1    2    0  501  0.48252138317E+02  0.14760357241E+03 -0.19723017582E+03  0.30486689832E+03  0.17300000000E+03 0. -1.
<mgrwt>
<rscale>  2 0.23247383E+03</rscale>
<asrwt>0</asrwt>
<pdfrwt beam="1">  1        1 0.11233155E+00 0.23247383E+03</pdfrwt>
<pdfrwt beam="2">  1       -1 0.12618279E-01 0.23247383E+03</pdfrwt>
<totfact> 0.11219560E+03</totfact>
</mgrwt>
</event>
<event>
 4    1  0.7245070E-001  0.4504424E+03  0.7546771E-02  0.1027590E+00
         -2   -1    0    0    0  501 -0.00000000000E+00  0.00000000000E+00  0.18179787239E+03  0.18179787239E+03  0.00000000000E+00 0. -1.
          2   -1    0    0  502    0  0.00000000000E+00 -0.00000000000E+00 -0.26045165047E+04  0.26045165047E+04  0.00000000000E+00 0.  1.
          6    1    1    2  502    0 -0.16643885568E+03 -0.38113972038E+03 -0.22645422143E+04  0.23089066286E+04  0.17300000000E+03 0.  1.
         -6    1    1    2    0  501  0.16643885568E+03  0.38113972038E+03 -0.15817641801E+03  0.47740774851E+03  0.17300000000E+03 0. -1.
<mgrwt>
<rscale>  2 0.45044243E+03</rscale>
<asrwt>0</asrwt>
<pdfrwt beam="1">  1        2 0.40069480E+00 0.45044243E+03</pdfrwt>
<pdfrwt beam="2">  1       -2 0.27968907E-01 0.45044243E+03</pdfrwt>
<totfact> 0.38988331E+01</totfact>
</mgrwt>
</event>
<event>
 4    1  0.7245070E-001  0.2244851E+03  0.7546771E-02  0.1130583E+00
         -2   -1    0    0    0  501 -0.00000000000E+00  0.00000000000E+00  0.96144220523E+02  0.96144220523E+02  0.00000000000E+00 0.  1.
          2   -1    0    0  502    0  0.00000000000E+00 -0.00000000000E+00 -0.62083914072E+03  0.62083914072E+03  0.00000000000E+00 0. -1.
          6    1    1    2  502    0  0.56456260825E+01 -0.14294298851E+03 -0.40382524375E+03  0.46202640460E+03  0.17300000000E+03 0. -1.
         -6    1    1    2    0  501 -0.56456260825E+01  0.14294298851E+03 -0.12086967645E+03  0.25495695665E+03  0.17300000000E+03 0.  1.
<mgrwt>
<rscale>  2 0.22448512E+03</rscale>
<asrwt>0</asrwt>
<pdfrwt beam="1">  1        2 0.95513709E-01 0.22448512E+03</pdfrwt>
<pdfrwt beam="2">  1       -2 0.14791419E-01 0.22448512E+03</pdfrwt>
<totfact> 0.16929610E+03</totfact>
</mgrwt>
</event>
<event>
 4    1  0.7245070E-001  0.2248969E+03  0.7546771E-02  0.1130284E+00
          2   -1    0    0  502    0  0.00000000000E+00  0.00000000000E+00  0.35893506349E+04  0.35893506349E+04  0.00000000000E+00 0. -1.
         -2   -1    0    0    0  501 -0.00000000000E+00 -0.00000000000E+00 -0.14888995352E+02  0.14888995352E+02  0.00000000000E+00 0.  1.
          6    1    1    2  502    0  0.14333322123E+03  0.10256230608E+02  0.13701016514E+04  0.13884369405E+04  0.17300000000E+03 0.  1.
         -6    1    1    2    0  501 -0.14333322123E+03 -0.10256230608E+02  0.22043599881E+04  0.22158026897E+04  0.17300000000E+03 0.  1.
<mgrwt>
<rscale>  2 0.22489687E+03</rscale>
<asrwt>0</asrwt>
<pdfrwt beam="1">  1        2 0.55220710E+00 0.22489687E+03</pdfrwt>
<pdfrwt beam="2">  1       -2 0.22906175E-02 0.22489687E+03</pdfrwt>
<totfact> 0.56643229E+02</totfact>
</mgrwt>
</event>
<event>
 4    1  0.7245070E-001  0.1745788E+03  0.7546771E-02  0.1173155E+00
         -1   -1    0    0    0  501 -0.00000000000E+00  0.00000000000E+00  0.37650990483E+03  0.37650990483E+03  0.00000000000E+00 0.  1.
          1   -1    0    0  502    0  0.00000000000E+00 -0.00000000000E+00 -0.86936601643E+02  0.86936601643E+02  0.00000000000E+00 0. -1.
          6    1    1    2  502    0  0.17935872250E+01  0.23356975647E+02  0.20560393318E+03  0.26972345579E+03  0.17300000000E+03 0.  1.
         -6    1    1    2    0  501 -0.17935872250E+01 -0.23356975647E+02  0.83969370016E+02  0.19372305069E+03  0.17300000000E+03 0.  1.
<mgrwt>
<rscale>  2 0.17457882E+03</rscale>
<asrwt>0</asrwt>
<pdfrwt beam="1">  1        1 0.13374862E-01 0.17457882E+03</pdfrwt>
<pdfrwt beam="2">  1       -1 0.57924600E-01 0.17457882E+03</pdfrwt>
<totfact> 0.13342677E+03</totfact>
</mgrwt>
</event>
<event>
 4    1  0.7245070E-001  0.1894305E+03  0.7546771E-02  0.1158976E+00
         -1   -1    0    0    0  501 -0.00000000000E+00  0.00000000000E+00  0.89760091453E+02  0.89760091453E+02  0.00000000000E+00 0.  1.
          1   -1    0    0  502    0  0.00000000000E+00 -0.00000000000E+00 -0.89490677612E+03  0.89490677612E+03  0.00000000000E+00 0. -1.
          6    1    1    2  502    0  0.59711968348E+02 -0.48881542936E+02 -0.36363155568E+02  0.19288909634E+03  0.17300000000E+03 0.  1.
         -6    1    1    2    0  501 -0.59711968348E+02  0.48881542936E+02 -0.76878352910E+03  0.79177777124E+03  0.17300000000E+03 0. -1.
<mgrwt>
<rscale>  2 0.18943053E+03</rscale>
<asrwt>0</asrwt>
<pdfrwt beam="1">  1        1 0.13767796E+00 0.18943053E+03</pdfrwt>
<pdfrwt beam="2">  1       -1 0.13809245E-01 0.18943053E+03</pdfrwt>
<totfact> 0.71262433E+02</totfact>
</mgrwt>
</event>
<event>
 4    1  0.7245070E-001  0.1999864E+03  0.7546771E-02  0.1149750E+00
          2   -1    0    0  502    0  0.00000000000E+00  0.00000000000E+00  0.11177718055E+04  0.11177718055E+04  0.00000000000E+00 0.  1.
         -2   -1    0    0    0  501 -0.00000000000E+00 -0.00000000000E+00 -0.39153958541E+02  0.39153958541E+02  0.00000000000E+00 0. -1.
          6    1    1    2  502    0  0.10029216410E+03 -0.26558103493E+01  0.70910100533E+03  0.73676238182E+03  0.17300000000E+03 0.  1.
         -6    1    1    2    0  501 -0.10029216410E+03  0.26558103493E+01  0.36951684163E+03  0.42016338222E+03  0.17300000000E+03 0. -1.
<mgrwt>
<rscale>  2 0.19998643E+03</rscale>
<asrwt>0</asrwt>
<pdfrwt beam="1">  1        2 0.17196487E+00 0.19998643E+03</pdfrwt>
<pdfrwt beam="2">  1       -2 0.60236868E-02 0.19998643E+03</pdfrwt>
<totfact> 0.32610676E+03</totfact>
</mgrwt>
</event>
<event>
 4    1  0.7245070E-001  0.2191079E+03  0.7546771E-02  0.1134550E+00
         -1   -1    0    0    0  501 -0.00000000000E+00  0.00000000000E+00  0.11032449328E+03  0.11032449328E+03  0.00000000000E+00 0.  1.
          1   -1    0    0  502    0  0.00000000000E+00 -0.00000000000E+00 -0.43569674868E+03  0.43569674868E+03  0.00000000000E+00 0. -1.
          6    1    1    2  502    0  0.89336477529E+02  0.10049014969E+03 -0.17231129038E+03  0.27874622365E+03  0.17300000000E+03 0. -1.
         -6    1    1    2    0  501 -0.89336477529E+02 -0.10049014969E+03 -0.15306096502E+03  0.26727501831E+03  0.17300000000E+03 0.  1.
<mgrwt>
<rscale>  2 0.21910791E+03</rscale>
<asrwt>0</asrwt>
<pdfrwt beam="1">  1        1 0.67030270E-01 0.21910791E+03</pdfrwt>
<pdfrwt beam="2">  1       -1 0.16972999E-01 0.21910791E+03</pdfrwt>
<totfact> 0.14234387E+03</totfact>
</mgrwt>
</event>
<event>
 4    1  0.7245070E-001  0.1731591E+03  0.7546771E-02  0.1174593E+00
         -1   -1    0    0    0  501 -0.00000000000E+00  0.00000000000E+00  0.39140474238E+02  0.39140474238E+02  0.00000000000E+00 0.  1.
          1   -1    0    0  502    0  0.00000000000E+00 -0.00000000000E+00 -0.78001334514E+03  0.78001334514E+03  0.00000000000E+00 0. -1.
          6    1    1    2  502    0  0.33257548280E+01  0.66338930299E+01 -0.42521074334E+03  0.45911681023E+03  0.17300000000E+03 0. -1.
         -6    1    1    2    0  501 -0.33257548280E+01 -0.66338930299E+01 -0.31566212757E+03  0.36003700916E+03  0.17300000000E+03 0.  1.
<mgrwt>
<rscale>  2 0.17315909E+03</rscale>
<asrwt>0</asrwt>
<pdfrwt beam="1">  1        1 0.12000205E+00 0.17315909E+03</pdfrwt>
<pdfrwt beam="2">  1       -1 0.60216118E-02 0.17315909E+03</pdfrwt>
<totfact> 0.31420710E+03</totfact>
</mgrwt>
</event>
<event>
 4    1  0.7245070E-001  0.2628084E+03  0.7546771E-02  0.1105468E+00
         -1   -1    0    0    0  501 -0.00000000000E+00  0.00000000000E+00  0.24014332785E+03  0.24014332785E+03  0.00000000000E+00 0. -1.
          1   -1    0    0  502    0  0.00000000000E+00 -0.00000000000E+00 -0.46971524131E+03  0.46971524131E+03  0.00000000000E+00 0.  1.
          6    1    1    2  502    0 -0.76189903594E+02 -0.18257696885E+03  0.10620912566E+03  0.28345833792E+03  0.17300000000E+03 0. -1.
         -6    1    1    2    0  501  0.76189903594E+02  0.18257696885E+03 -0.33578103913E+03  0.42640023124E+03  0.17300000000E+03 0.  1.
<mgrwt>
<rscale>  2 0.26280839E+03</rscale>
<asrwt>0</asrwt>
<pdfrwt beam="1">  1        1 0.72263882E-01 0.26280839E+03</pdfrwt>
<pdfrwt beam="2">  1       -1 0.36945128E-01 0.26280839E+03</pdfrwt>
<totfact> 0.35174615E+02</totfact>
</mgrwt>
</event>
<event>
 4    1  0.7245070E-001  0.2906053E+03  0.7546771E-02  0.1090034E+00
         -1   -1    0    0    0  501 -0.00000000000E+00  0.00000000000E+00  0.12572913921E+03  0.12572913921E+03  0.00000000000E+00 0. -1.
          1   -1    0    0  502    0  0.00000000000E+00 -0.00000000000E+00 -0.77918583447E+03  0.77918583447E+03  0.00000000000E+00 0.  1.
          6    1    1    2  502    0 -0.17660753627E+03 -0.15274894177E+03 -0.15867554766E+03  0.33110329281E+03  0.17300000000E+03 0. -1.
         -6    1    1    2    0  501  0.17660753627E+03  0.15274894177E+03 -0.49478114760E+03  0.57381168087E+03  0.17300000000E+03 0. -1.
<mgrwt>
<rscale>  2 0.29060534E+03</rscale>
<asrwt>0</asrwt>
<pdfrwt beam="1">  1        1 0.11987474E+00 0.29060534E+03</pdfrwt>
<pdfrwt beam="2">  1       -1 0.19342945E-01 0.29060534E+03</pdfrwt>
<totfact> 0.51308854E+02</totfact>
</mgrwt>
</event>
<event>
 4    1  0.7245070E-001  0.1744061E+03  0.7546771E-02  0.1173329E+00
          2   -1    0    0  502    0  0.00000000000E+00  0.00000000000E+00  0.47012559754E+03  0.47012559754E+03  0.00000000000E+00 0. -1.
         -2   -1    0    0    0  501 -0.00000000000E+00 -0.00000000000E+00 -0.72543901211E+02  0.72543901211E+02  0.00000000000E+00 0.  1.
          6    1    1    2  502    0  0.20746204761E+02  0.76220232961E+01  0.28800813076E+03  0.33669895104E+03  0.17300000000E+03 0. -1.
         -6    1    1    2    0  501 -0.20746204761E+02 -0.76220232961E+01  0.10957356557E+03  0.20597054771E+03  0.17300000000E+03 0.  1.
<mgrwt>
<rscale>  2 0.17440614E+03</rscale>
<asrwt>0</asrwt>
<pdfrwt beam="1">  1        2 0.72327013E-01 0.17440614E+03</pdfrwt>
<pdfrwt beam="2">  1       -2 0.11160600E-01 0.17440614E+03</pdfrwt>
<totfact> 0.36358852E+03</totfact>
</mgrwt>
</event>
<event>
 4    1  0.7245070E-001  0.1850771E+03  0.7546771E-02  0.1162978E+00
         -2   -1    0    0    0  501 -0.00000000000E+00  0.00000000000E+00  0.56741858341E+02  0.56741858341E+02  0.00000000000E+00 0.  1.
          2   -1    0    0  502    0  0.00000000000E+00 -0.00000000000E+00 -0.66926877659E+03  0.66926877659E+03  0.00000000000E+00 0. -1.
          6    1    1    2  502    0  0.63780620286E+02  0.16017338868E+02 -0.19261829871E+03  0.26712418772E+03  0.17300000000E+03 0. -1.
         -6    1    1    2    0  501 -0.63780620286E+02 -0.16017338868E+02 -0.41990861954E+03  0.45888644721E+03  0.17300000000E+03 0. -1.
<mgrwt>
<rscale>  2 0.18507707E+03</rscale>
<asrwt>0</asrwt>
<pdfrwt beam="1">  1        2 0.10296444E+00 0.18507707E+03</pdfrwt>
<pdfrwt beam="2">  1       -2 0.87295157E-02 0.18507707E+03</pdfrwt>
<totfact> 0.35967232E+03</totfact>
</mgrwt>
</event>
<event>
 4    1  0.7245070E-001  0.2460873E+03  0.7546771E-02  0.1115803E+00
         -2   -1    0    0    0  501 -0.00000000000E+00  0.00000000000E+00  0.11783745561E+03  0.11783745561E+03  0.00000000000E+00 0.  1.
          2   -1    0    0  502    0  0.00000000000E+00 -0.00000000000E+00 -0.53829053043E+03  0.53829053043E+03  0.00000000000E+00 0. -1.
          6    1    1    2  502    0 -0.15028378380E+03  0.89692478742E+02 -0.28003175539E+03  0.37279584285E+03  0.17300000000E+03 0. -1.
         -6    1    1    2    0  501  0.15028378380E+03 -0.89692478742E+02 -0.14042131942E+03  0.28333214319E+03  0.17300000000E+03 0. -1.
<mgrwt>
<rscale>  2 0.24608729E+03</rscale>
<asrwt>0</asrwt>
<pdfrwt beam="1">  1        2 0.82813927E-01 0.24608729E+03</pdfrwt>
<pdfrwt beam="2">  1       -2 0.18128839E-01 0.24608729E+03</pdfrwt>
<totfact> 0.14221363E+03</totfact>
</mgrwt>
</event>
<event>
 4    1  0.7245070E-001  0.2036484E+03  0.7546771E-02  0.1146697E+00
          2   -1    0    0  502    0  0.00000000000E+00  0.00000000000E+00  0.93020491932E+03  0.93020491932E+03  0.00000000000E+00 0. -1.
         -2   -1    0    0    0  501 -0.00000000000E+00 -0.00000000000E+00 -0.46515901045E+02  0.46515901045E+02  0.00000000000E+00 0.  1.
          6    1    1    2  502    0 -0.10509398834E+03 -0.22336206757E+02  0.34233049014E+03  0.39832501428E+03  0.17300000000E+03 0.  1.
         -6    1    1    2    0  501  0.10509398834E+03  0.22336206757E+02  0.54135852813E+03  0.57839580609E+03  0.17300000000E+03 0. -1.
<mgrwt>
<rscale>  2 0.20364836E+03</rscale>
<asrwt>0</asrwt>
<pdfrwt beam="1">  1        2 0.14310844E+00 0.20364836E+03</pdfrwt>
<pdfrwt beam="2">  1       -2 0.71562932E-02 0.20364836E+03</pdfrwt>
<totfact> 0.32453210E+03</totfact>
</mgrwt>
</event>
<event>
 4    1  0.7245070E-001  0.2198800E+03  0.7546771E-02  0.1133973E+00
         -2   -1    0    0    0  501 -0.00000000000E+00  0.00000000000E+00  0.78453448672E+03  0.78453448672E+03  0.00000000000E+00 0. -1.
          2   -1    0    0  502    0  0.00000000000E+00 -0.00000000000E+00 -0.89359256667E+02  0.89359256667E+02  0.00000000000E+00 0.  1.
          6    1    1    2  502    0 -0.67330865251E+02 -0.11783371365E+03  0.10416315559E+03  0.24330473171E+03  0.17300000000E+03 0.  1.
         -6    1    1    2    0  501  0.67330865251E+02  0.11783371365E+03  0.59101207447E+03  0.63058901168E+03  0.17300000000E+03 0. -1.
<mgrwt>
<rscale>  2 0.21988003E+03</rscale>
<asrwt>0</asrwt>
<pdfrwt beam="1">  1        2 0.13747578E-01 0.21988003E+03</pdfrwt>
<pdfrwt beam="2">  1       -2 0.12069761E+00 0.21988003E+03</pdfrwt>
<totfact> 0.23746890E+02</totfact>
</mgrwt>
</event>
<event>
 4    1  0.7245070E-001  0.1914455E+03  0.7546771E-02  0.1157164E+00
          1   -1    0    0  502    0  0.00000000000E+00  0.00000000000E+00  0.46069430385E+03  0.46069430385E+03  0.00000000000E+00 0. -1.
         -1   -1    0    0    0  501 -0.00000000000E+00 -0.00000000000E+00 -0.79870858089E+02  0.79870858089E+02  0.00000000000E+00 0.  1.
          6    1    1    2  502    0 -0.59261149771E+02 -0.56661230526E+02  0.20735929048E+03  0.28222199465E+03  0.17300000000E+03 0. -1.
         -6    1    1    2    0  501  0.59261149771E+02  0.56661230526E+02  0.17346415528E+03  0.25834316729E+03  0.17300000000E+03 0. -1.
<mgrwt>
<rscale>  2 0.19144550E+03</rscale>
<asrwt>0</asrwt>
<pdfrwt beam="1">  1        1 0.70876045E-01 0.19144550E+03</pdfrwt>
<pdfrwt beam="2">  1       -1 0.12287825E-01 0.19144550E+03</pdfrwt>
<totfact> 0.21990230E+03</totfact>
</mgrwt>
</event>
<event>
 4    1  0.7245070E-001  0.2052277E+03  0.7546771E-02  0.1145402E+00
         -2   -1    0    0    0  501 -0.00000000000E+00  0.00000000000E+00  0.55691575247E+02  0.55691575247E+02  0.00000000000E+00 0. -1.
          2   -1    0    0  502    0  0.00000000000E+00 -0.00000000000E+00 -0.76381941083E+03  0.76381941083E+03  0.00000000000E+00 0.  1.
          6    1    1    2  502    0 -0.23449688999E+02  0.10788654411E+03 -0.39477510509E+03  0.44493345335E+03  0.17300000000E+03 0.  1.
         -6    1    1    2    0  501  0.23449688999E+02 -0.10788654411E+03 -0.31335273049E+03  0.37457753272E+03  0.17300000000E+03 0.  1.
<mgrwt>
<rscale>  2 0.20522766E+03</rscale>
<asrwt>0</asrwt>
<pdfrwt beam="1">  1        2 0.11751068E+00 0.20522766E+03</pdfrwt>
<pdfrwt beam="2">  1       -2 0.85679346E-02 0.20522766E+03</pdfrwt>
<totfact> 0.31643423E+03</totfact>
</mgrwt>
</event>
<event>
 4    1  0.7245070E-001  0.1909094E+03  0.7546771E-02  0.1157644E+00
         -2   -1    0    0    0  501 -0.00000000000E+00  0.00000000000E+00  0.69594705658E+02  0.69594705658E+02  0.00000000000E+00 0. -1.
          2   -1    0    0  502    0  0.00000000000E+00 -0.00000000000E+00 -0.53602279245E+03  0.53602279245E+03  0.00000000000E+00 0.  1.
          6    1    1    2  502    0  0.33719341656E+02 -0.73351172512E+02 -0.18729189489E+03  0.26744091385E+03  0.17300000000E+03 0. -1.
         -6    1    1    2    0  501 -0.33719341656E+02  0.73351172512E+02 -0.27913619190E+03  0.33817658426E+03  0.17300000000E+03 0. -1.
<mgrwt>
<rscale>  2 0.19090937E+03</rscale>
<asrwt>0</asrwt>
<pdfrwt beam="1">  1        2 0.82465041E-01 0.19090937E+03</pdfrwt>
<pdfrwt beam="2">  1       -2 0.10706878E-01 0.19090937E+03</pdfrwt>
<totfact> 0.33691393E+03</totfact>
</mgrwt>
</event>
<event>
 4    1  0.7245070E-001  0.2168618E+03  0.7546771E-02  0.1136245E+00
         -2   -1    0    0    0  501 -0.00000000000E+00  0.00000000000E+00  0.34277410358E+02  0.34277410358E+02  0.00000000000E+00 0.  1.
          2   -1    0    0  502    0  0.00000000000E+00 -0.00000000000E+00 -0.13754925782E+04  0.13754925782E+04  0.00000000000E+00 0. -1.
          6    1    1    2  502    0 -0.12425683979E+03  0.40746313325E+02 -0.63515041800E+03  0.67115205264E+03  0.17300000000E+03 0.  1.
         -6    1    1    2    0  501  0.12425683979E+03 -0.40746313325E+02 -0.70606474987E+03  0.73861793594E+03  0.17300000000E+03 0. -1.
<mgrwt>
<rscale>  2 0.21686176E+03</rscale>
<asrwt>0</asrwt>
<pdfrwt beam="1">  1        2 0.21161425E+00 0.21686176E+03</pdfrwt>
<pdfrwt beam="2">  1       -2 0.52734476E-02 0.21686176E+03</pdfrwt>
<totfact> 0.28723114E+03</totfact>
</mgrwt>
</event>
<event>
 4    1  0.7245070E-001  0.1815235E+03  0.7546771E-02  0.1166337E+00
          1   -1    0    0  502    0  0.00000000000E+00  0.00000000000E+00  0.24324386149E+03  0.24324386149E+03  0.00000000000E+00 0. -1.
         -1   -1    0    0    0  501 -0.00000000000E+00 -0.00000000000E+00 -0.14168179520E+03  0.14168179520E+03  0.00000000000E+00 0.  1.
          6    1    1    2  502    0  0.38944861446E+02 -0.38795248437E+02  0.91100046851E+02  0.20310094060E+03  0.17300000000E+03 0. -1.
         -6    1    1    2    0  501 -0.38944861446E+02  0.38795248437E+02  0.10462019434E+02  0.18182471610E+03  0.17300000000E+03 0.  1.
<mgrwt>
<rscale>  2 0.18152348E+03</rscale>
<asrwt>0</asrwt>
<pdfrwt beam="1">  1        1 0.37422133E-01 0.18152348E+03</pdfrwt>
<pdfrwt beam="2">  1       -1 0.21797199E-01 0.18152348E+03</pdfrwt>
<totfact> 0.19741555E+03</totfact>
</mgrwt>
</event>
<event>
 4    1  0.7245070E-001  0.2970078E+03  0.7546771E-02  0.1086746E+00
         -4   -1    0    0    0  501 -0.00000000000E+00  0.00000000000E+00  0.70938270062E+03  0.70938270062E+03  0.00000000000E+00 0. -1.
          4   -1    0    0  502    0  0.00000000000E+00 -0.00000000000E+00 -0.15057859851E+03  0.15057859851E+03  0.00000000000E+00 0.  1.
          6    1    1    2  502    0  0.33536248254E+02  0.23908143702E+03  0.45884770690E+03  0.54658469756E+03  0.17300000000E+03 0. -1.
         -6    1    1    2    0  501 -0.33536248254E+02 -0.23908143702E+03  0.99956395212E+02  0.31337660158E+03  0.17300000000E+03 0.  1.
<mgrwt>
<rscale>  2 0.29700777E+03</rscale>
<asrwt>0</asrwt>
<pdfrwt beam="1">  1        4 0.23165939E-01 0.29700777E+03</pdfrwt>
<pdfrwt beam="2">  1       -4 0.10913580E+00 0.29700777E+03</pdfrwt>
<totfact> 0.22096411E+01</totfact>
</mgrwt>
</event>
<event>
 4    1  0.7245070E-001  0.2484484E+03  0.7546771E-02  0.1114289E+00
          3   -1    0    0  502    0  0.00000000000E+00  0.00000000000E+00  0.39952173631E+02  0.39952173631E+02  0.00000000000E+00 0.  1.
         -3   -1    0    0    0  501 -0.00000000000E+00 -0.00000000000E+00 -0.22125506578E+04  0.22125506578E+04  0.00000000000E+00 0. -1.
          6    1    1    2  502    0 -0.31047453269E+02 -0.17559512566E+03 -0.17049234486E+04  0.17229308048E+04  0.17300000000E+03 0. -1.
         -6    1    1    2    0  501  0.31047453269E+02  0.17559512566E+03 -0.46767503563E+03  0.52957202670E+03  0.17300000000E+03 0.  1.
<mgrwt>
<rscale>  2 0.24844837E+03</rscale>
<asrwt>0</asrwt>
<pdfrwt beam="1">  1        3 0.61464867E-02 0.24844837E+03</pdfrwt>
<pdfrwt beam="2">  1       -3 0.34039250E+00 0.24844837E+03</pdfrwt>
<totfact> 0.10884860E+01</totfact>
</mgrwt>
</event>
<event>
 4    1  0.7245070E-001  0.1789645E+03  0.7546771E-02  0.1168809E+00
          1   -1    0    0  502    0  0.00000000000E+00  0.00000000000E+00  0.15515804664E+03  0.15515804664E+03  0.00000000000E+00 0.  1.
         -1   -1    0    0    0  501 -0.00000000000E+00 -0.00000000000E+00 -0.63815481788E+03  0.63815481788E+03  0.00000000000E+00 0. -1.
          6    1    1    2  502    0 -0.95526751886E+01  0.44811289974E+02  0.84757329310E+02  0.19802047920E+03  0.17300000000E+03 0.  1.
         -6    1    1    2    0  501  0.95526751886E+01 -0.44811289974E+02 -0.56775410056E+03  0.59529238532E+03  0.17300000000E+03 0. -1.
<mgrwt>
<rscale>  2 0.17896454E+03</rscale>
<asrwt>0</asrwt>
<pdfrwt beam="1">  1        1 0.23870469E-01 0.17896454E+03</pdfrwt>
<pdfrwt beam="2">  1       -1 0.98177664E-01 0.17896454E+03</pdfrwt>
<totfact> 0.21626531E+02</totfact>
</mgrwt>
</event>
<event>
 4    1  0.7245070E-001  0.2633503E+03  0.7546771E-02  0.1105147E+00
          4   -1    0    0  502    0  0.00000000000E+00  0.00000000000E+00  0.43320992113E+03  0.43320992113E+03  0.00000000000E+00 0. -1.
         -4   -1    0    0    0  501 -0.00000000000E+00 -0.00000000000E+00 -0.20804294099E+03  0.20804294099E+03  0.00000000000E+00 0.  1.
          6    1    1    2  502    0  0.19732497529E+03  0.22073869873E+02  0.26651297820E+03  0.37467661944E+03  0.17300000000E+03 0. -1.
         -6    1    1    2    0  501 -0.19732497529E+03 -0.22073869873E+02 -0.41345998061E+02  0.26657624268E+03  0.17300000000E+03 0.  1.
<mgrwt>
<rscale>  2 0.26335034E+03</rscale>
<asrwt>0</asrwt>
<pdfrwt beam="1">  1        4 0.66647680E-01 0.26335034E+03</pdfrwt>
<pdfrwt beam="2">  1       -4 0.32006606E-01 0.26335034E+03</pdfrwt>
<totfact> 0.36421449E+01</totfact>
</mgrwt>
</event>
<event>
 4    1  0.7245070E-001  0.2073978E+03  0.7546771E-02  0.1143643E+00
         -2   -1    0    0    0  501 -0.00000000000E+00  0.00000000000E+00  0.87137760334E+02  0.87137760334E+02  0.00000000000E+00 0.  1.
          2   -1    0    0  502    0  0.00000000000E+00 -0.00000000000E+00 -0.49418208459E+03  0.49418208459E+03  0.00000000000E+00 0. -1.
          6    1    1    2  502    0 -0.61002993269E+02  0.96765110779E+02 -0.19381108568E+03  0.28386015709E+03  0.17300000000E+03 0. -1.
         -6    1    1    2    0  501  0.61002993269E+02 -0.96765110779E+02 -0.21323323857E+03  0.29745968783E+03  0.17300000000E+03 0.  1.
<mgrwt>
<rscale>  2 0.20739781E+03</rscale>
<asrwt>0</asrwt>
<pdfrwt beam="1">  1        2 0.76028013E-01 0.20739781E+03</pdfrwt>
<pdfrwt beam="2">  1       -2 0.13405809E-01 0.20739781E+03</pdfrwt>
<totfact> 0.25753971E+03</totfact>
</mgrwt>
</event>
<event>
 4    1  0.7245070E-001  0.3943160E+03  0.7546771E-02  0.1045766E+00
         -2   -1    0    0    0  501 -0.00000000000E+00  0.00000000000E+00  0.59747777416E+03  0.59747777416E+03  0.00000000000E+00 0.  1.
          2   -1    0    0  502    0  0.00000000000E+00 -0.00000000000E+00 -0.41805550144E+03  0.41805550144E+03  0.00000000000E+00 0. -1.
          6    1    1    2  502    0 -0.14969400426E+03 -0.32116634552E+03  0.40169187158E+03  0.56288673470E+03  0.17300000000E+03 0.  1.
         -6    1    1    2    0  501  0.14969400426E+03  0.32116634552E+03 -0.22226959887E+03  0.45264654090E+03  0.17300000000E+03 0. -1.
<mgrwt>
<rscale>  2 0.39431601E+03</rscale>
<asrwt>0</asrwt>
<pdfrwt beam="1">  1        2 0.64316231E-01 0.39431601E+03</pdfrwt>
<pdfrwt beam="2">  1       -2 0.91919658E-01 0.39431601E+03</pdfrwt>
<totfact> 0.78954489E+01</totfact>
</mgrwt>
</event>
<event>
 4    1  0.7245070E-001  0.2516423E+03  0.7546771E-02  0.1112271E+00
          2   -1    0    0  502    0  0.00000000000E+00  0.00000000000E+00  0.35717080834E+03  0.35717080834E+03  0.00000000000E+00 0.  1.
         -2   -1    0    0    0  501 -0.00000000000E+00 -0.00000000000E+00 -0.18403431532E+03  0.18403431532E+03  0.00000000000E+00 0. -1.
          6    1    1    2  502    0 -0.13503470097E+03  0.12312790538E+03  0.34776833841E+02  0.25403401292E+03  0.17300000000E+03 0. -1.
         -6    1    1    2    0  501  0.13503470097E+03 -0.12312790538E+03  0.13835965918E+03  0.28717111073E+03  0.17300000000E+03 0.  1.
<mgrwt>
<rscale>  2 0.25164231E+03</rscale>
<asrwt>0</asrwt>
<pdfrwt beam="1">  1        2 0.54949355E-01 0.25164231E+03</pdfrwt>
<pdfrwt beam="2">  1       -2 0.28312972E-01 0.25164231E+03</pdfrwt>
<totfact> 0.10277786E+03</totfact>
</mgrwt>
</event>
<event>
 4    1  0.7245070E-001  0.2223626E+03  0.7546771E-02  0.1132134E+00
          2   -1    0    0  502    0  0.00000000000E+00  0.00000000000E+00  0.13800677186E+03  0.13800677186E+03  0.00000000000E+00 0. -1.
         -2   -1    0    0    0  501 -0.00000000000E+00 -0.00000000000E+00 -0.41405067912E+03  0.41405067912E+03  0.00000000000E+00 0.  1.
          6    1    1    2  502    0  0.58999390894E+02  0.12663011585E+03 -0.36717360266E+02  0.22537364289E+03  0.17300000000E+03 0. -1.
         -6    1    1    2    0  501 -0.58999390894E+02 -0.12663011585E+03 -0.23932654700E+03  0.32668380809E+03  0.17300000000E+03 0.  1.
<mgrwt>
<rscale>  2 0.22236257E+03</rscale>
<asrwt>0</asrwt>
<pdfrwt beam="1">  1        2 0.21231811E-01 0.22236257E+03</pdfrwt>
<pdfrwt beam="2">  1       -2 0.63700105E-01 0.22236257E+03</pdfrwt>
<totfact> 0.60417420E+02</totfact>
</mgrwt>
</event>
<event>
 4    1  0.7245070E-001  0.1948259E+03  0.7546771E-02  0.1154179E+00
          2   -1    0    0  502    0  0.00000000000E+00  0.00000000000E+00  0.11529094077E+04  0.11529094077E+04  0.00000000000E+00 0. -1.
         -2   -1    0    0    0  501 -0.00000000000E+00 -0.00000000000E+00 -0.47400707836E+02  0.47400707836E+02  0.00000000000E+00 0.  1.
          6    1    1    2  502    0 -0.32471321919E+02 -0.83508917350E+02  0.88443672704E+03  0.90564090575E+03  0.17300000000E+03 0. -1.
         -6    1    1    2    0  501  0.32471321919E+02  0.83508917350E+02  0.22107197279E+03  0.29466920975E+03  0.17300000000E+03 0.  1.
<mgrwt>
<rscale>  2 0.19482589E+03</rscale>
<asrwt>0</asrwt>
<pdfrwt beam="1">  1        2 0.17737066E+00 0.19482589E+03</pdfrwt>
<pdfrwt beam="2">  1       -2 0.72924174E-02 0.19482589E+03</pdfrwt>
<totfact> 0.23187704E+03</totfact>
</mgrwt>
</event>
<event>
 4    1  0.7245070E-001  0.2129414E+03  0.7546771E-02  0.1139258E+00
          2   -1    0    0  502    0  0.00000000000E+00  0.00000000000E+00  0.81708046283E+03  0.81708046283E+03  0.00000000000E+00 0.  1.
         -2   -1    0    0    0  501 -0.00000000000E+00 -0.00000000000E+00 -0.55498702557E+02  0.55498702557E+02  0.00000000000E+00 0. -1.
          6    1    1    2  502    0  0.44415909948E+02 -0.11594070441E+03  0.38427118473E+03  0.43932717126E+03  0.17300000000E+03 0. -1.
         -6    1    1    2    0  501 -0.44415909948E+02  0.11594070441E+03  0.37731057555E+03  0.43325199413E+03  0.17300000000E+03 0.  1.
<mgrwt>
<rscale>  2 0.21294135E+03</rscale>
<asrwt>0</asrwt>
<pdfrwt beam="1">  1        2 0.12570468E+00 0.21294135E+03</pdfrwt>
<pdfrwt beam="2">  1       -2 0.85382625E-02 0.21294135E+03</pdfrwt>
<totfact> 0.29250345E+03</totfact>
</mgrwt>
</event>
<event>
 4    1  0.7245070E-001  0.1835025E+03  0.7546771E-02  0.1164456E+00
         -2   -1    0    0    0  501 -0.00000000000E+00  0.00000000000E+00  0.73504161139E+02  0.73504161139E+02  0.00000000000E+00 0. -1.
          2   -1    0    0  502    0  0.00000000000E+00 -0.00000000000E+00 -0.45819936946E+03  0.45819936946E+03  0.00000000000E+00 0.  1.
          6    1    1    2  502    0 -0.30114727761E+02  0.53266075607E+02 -0.18868608914E+03  0.26320260613E+03  0.17300000000E+03 0.  1.
         -6    1    1    2    0  501  0.30114727761E+02 -0.53266075607E+02 -0.19600911919E+03  0.26850092447E+03  0.17300000000E+03 0. -1.
<mgrwt>
<rscale>  2 0.18350251E+03</rscale>
<asrwt>0</asrwt>
<pdfrwt beam="1">  1        2 0.70492211E-01 0.18350251E+03</pdfrwt>
<pdfrwt beam="2">  1       -2 0.11308332E-01 0.18350251E+03</pdfrwt>
<totfact> 0.36695022E+03</totfact>
</mgrwt>
</event>
<event>
 4    1  0.7245070E-001  0.1970364E+03  0.7546771E-02  0.1152264E+00
          4   -1    0    0  502    0  0.00000000000E+00  0.00000000000E+00  0.29866880967E+03  0.29866880967E+03  0.00000000000E+00 0.  1.
         -4   -1    0    0    0  501 -0.00000000000E+00 -0.00000000000E+00 -0.13111679270E+03  0.13111679270E+03  0.00000000000E+00 0. -1.
          6    1    1    2  502    0 -0.34199767716E+02  0.87890290476E+02  0.63836168159E+02  0.20711924980E+03  0.17300000000E+03 0. -1.
         -6    1    1    2    0  501  0.34199767716E+02 -0.87890290476E+02  0.10371584881E+03  0.22266635257E+03  0.17300000000E+03 0.  1.
<mgrwt>
<rscale>  2 0.19703636E+03</rscale>
<asrwt>0</asrwt>
<pdfrwt beam="1">  1        4 0.45949048E-01 0.19703636E+03</pdfrwt>
<pdfrwt beam="2">  1       -4 0.20171814E-01 0.19703636E+03</pdfrwt>
<totfact> 0.18157660E+02</totfact>
</mgrwt>
</event>
<event>
 4    1  0.7245070E-001  0.1788822E+03  0.7546771E-02  0.1168889E+00
         -2   -1    0    0    0  501 -0.00000000000E+00  0.00000000000E+00  0.21941448044E+03  0.21941448044E+03  0.00000000000E+00 0.  1.
          2   -1    0    0  502    0  0.00000000000E+00 -0.00000000000E+00 -0.19298027722E+03  0.19298027722E+03  0.00000000000E+00 0. -1.
          6    1    1    2  502    0 -0.80761501620E+01  0.44772977082E+02  0.11513127511E+03  0.21273000303E+03  0.17300000000E+03 0.  1.
         -6    1    1    2    0  501  0.80761501620E+01 -0.44772977082E+02 -0.88697071893E+02  0.19966475463E+03  0.17300000000E+03 0. -1.
<mgrwt>
<rscale>  2 0.17888221E+03</rscale>
<asrwt>0</asrwt>
<pdfrwt beam="1">  1        2 0.29689274E-01 0.17888221E+03</pdfrwt>
<pdfrwt beam="2">  1       -2 0.33756074E-01 0.17888221E+03</pdfrwt>
<totfact> 0.14413885E+03</totfact>
</mgrwt>
</event>
<event>
 4    1  0.7245070E-001  0.1872870E+03  0.7546771E-02  0.1160931E+00
         -1   -1    0    0    0  501 -0.00000000000E+00  0.00000000000E+00  0.12313428234E+03  0.12313428234E+03  0.00000000000E+00 0.  1.
          1   -1    0    0  502    0  0.00000000000E+00 -0.00000000000E+00 -0.28802494694E+03  0.28802494694E+03  0.00000000000E+00 0. -1.
          6    1    1    2  502    0 -0.45918342164E+02  0.55126458596E+02 -0.60906041451E+02  0.19694153059E+03  0.17300000000E+03 0. -1.
         -6    1    1    2    0  501  0.45918342164E+02 -0.55126458596E+02 -0.10398462314E+03  0.21421769870E+03  0.17300000000E+03 0.  1.
<mgrwt>
<rscale>  2 0.18728700E+03</rscale>
<asrwt>0</asrwt>
<pdfrwt beam="1">  1        1 0.44311530E-01 0.18728700E+03</pdfrwt>
<pdfrwt beam="2">  1       -1 0.18943736E-01 0.18728700E+03</pdfrwt>
<totfact> 0.20089489E+03</totfact>
</mgrwt>
</event>
<event>
 4    1  0.7245070E-001  0.1953482E+03  0.7546771E-02  0.1153724E+00
         -2   -1    0    0    0  501 -0.00000000000E+00  0.00000000000E+00  0.78255247666E+02  0.78255247666E+02  0.00000000000E+00 0. -1.
          2   -1    0    0  502    0  0.00000000000E+00 -0.00000000000E+00 -0.48968931951E+03  0.48968931951E+03  0.00000000000E+00 0.  1.
          6    1    1    2  502    0 -0.88096172508E+02 -0.21702560695E+02 -0.18737795822E+03  0.27068697046E+03  0.17300000000E+03 0. -1.
         -6    1    1    2    0  501  0.88096172508E+02  0.21702560695E+02 -0.22405611362E+03  0.29725759671E+03  0.17300000000E+03 0.  1.
<mgrwt>
<rscale>  2 0.19534824E+03</rscale>
<asrwt>0</asrwt>
<pdfrwt beam="1">  1        2 0.75336817E-01 0.19534824E+03</pdfrwt>
<pdfrwt beam="2">  1       -2 0.12039269E-01 0.19534824E+03</pdfrwt>
<totfact> 0.30912176E+03</totfact>
</mgrwt>
</event>
<event>
 4    1  0.7245070E-001  0.2098318E+03  0.7546771E-02  0.1141699E+00
         -2   -1    0    0    0  501 -0.00000000000E+00  0.00000000000E+00  0.26463610643E+02  0.26463610643E+02  0.00000000000E+00 0.  1.
          2   -1    0    0  502    0  0.00000000000E+00 -0.00000000000E+00 -0.21331727798E+04  0.21331727798E+04  0.00000000000E+00 0. -1.
          6    1    1    2  502    0 -0.11775005096E+03  0.15339990221E+02 -0.15598901665E+04  0.15739398722E+04  0.17300000000E+03 0. -1.
         -6    1    1    2    0  501  0.11775005096E+03 -0.15339990221E+02 -0.54681900269E+03  0.58569651826E+03  0.17300000000E+03 0.  1.
<mgrwt>
<rscale>  2 0.20983181E+03</rscale>
<asrwt>0</asrwt>
<pdfrwt beam="1">  1        2 0.32818051E+00 0.20983181E+03</pdfrwt>
<pdfrwt beam="2">  1       -2 0.40713237E-02 0.20983181E+03</pdfrwt>
<totfact> 0.16998449E+03</totfact>
</mgrwt>
</event>
<event>
 4    1  0.7245070E-001  0.2322696E+03  0.7546771E-02  0.1125052E+00
          2   -1    0    0  502    0  0.00000000000E+00  0.00000000000E+00  0.27305142490E+03  0.27305142490E+03  0.00000000000E+00 0.  1.
         -2   -1    0    0    0  501 -0.00000000000E+00 -0.00000000000E+00 -0.21727196930E+03  0.21727196930E+03  0.00000000000E+00 0. -1.
          6    1    1    2  502    0  0.15295691258E+03  0.24986746519E+02 -0.45919270850E+02  0.23676514533E+03  0.17300000000E+03 0. -1.
         -6    1    1    2    0  501 -0.15295691258E+03 -0.24986746519E+02  0.10169872645E+03  0.25355824887E+03  0.17300000000E+03 0. -1.
<mgrwt>
<rscale>  2 0.23226957E+03</rscale>
<asrwt>0</asrwt>
<pdfrwt beam="1">  1        2 0.42007911E-01 0.23226957E+03</pdfrwt>
<pdfrwt beam="2">  1       -2 0.33426457E-01 0.23226957E+03</pdfrwt>
<totfact> 0.10131902E+03</totfact>
</mgrwt>
</event>
<event>
 4    1  0.7245070E-001  0.1991932E+03  0.7546771E-02  0.1150421E+00
          3   -1    0    0  502    0  0.00000000000E+00  0.00000000000E+00  0.51218918258E+02  0.51218918258E+02  0.00000000000E+00 0. -1.
         -3   -1    0    0    0  501 -0.00000000000E+00 -0.00000000000E+00 -0.78225444352E+03  0.78225444352E+03  0.00000000000E+00 0.  1.
          6    1    1    2  502    0 -0.97842904017E+02 -0.13255640088E+02 -0.40654245376E+03  0.45271924254E+03  0.17300000000E+03 0.  1.
         -6    1    1    2    0  501  0.97842904017E+02  0.13255640088E+02 -0.32449307151E+03  0.38075411924E+03  0.17300000000E+03 0.  1.
<mgrwt>
<rscale>  2 0.19919324E+03</rscale>
<asrwt>0</asrwt>
<pdfrwt beam="1">  1        3 0.78798335E-02 0.19919324E+03</pdfrwt>
<pdfrwt beam="2">  1       -3 0.12034684E+00 0.19919324E+03</pdfrwt>
<totfact> 0.15680101E+02</totfact>
</mgrwt>
</event>
<event>
 4    1  0.7245070E-001  0.1942966E+03  0.7546771E-02  0.1154642E+00
         -2   -1    0    0    0  501 -0.00000000000E+00  0.00000000000E+00  0.74209449707E+02  0.74209449707E+02  0.00000000000E+00 0.  1.
          2   -1    0    0  502    0  0.00000000000E+00 -0.00000000000E+00 -0.56052785825E+03  0.56052785825E+03  0.00000000000E+00 0. -1.
          6    1    1    2  502    0  0.73280177444E+02 -0.49519486812E+02 -0.33965334279E+03  0.39129983037E+03  0.17300000000E+03 0.  1.
         -6    1    1    2    0  501 -0.73280177444E+02  0.49519486812E+02 -0.14666506575E+03  0.24343747758E+03  0.17300000000E+03 0.  1.
<mgrwt>
<rscale>  2 0.19429659E+03</rscale>
<asrwt>0</asrwt>
<pdfrwt beam="1">  1        2 0.86235056E-01 0.19429659E+03</pdfrwt>
<pdfrwt beam="2">  1       -2 0.11416838E-01 0.19429659E+03</pdfrwt>
<totfact> 0.28924423E+03</totfact>
</mgrwt>
</event>
<event>
 4    1  0.7245070E-001  0.3414521E+03  0.7546771E-02  0.1066179E+00
         -2   -1    0    0    0  501 -0.00000000000E+00  0.00000000000E+00  0.21158906273E+03  0.21158906273E+03  0.00000000000E+00 0. -1.
          2   -1    0    0  502    0  0.00000000000E+00 -0.00000000000E+00 -0.63523493164E+03  0.63523493164E+03  0.00000000000E+00 0.  1.
          6    1    1    2  502    0 -0.12423311740E+03  0.26688321774E+03 -0.36599085286E+03  0.50053853373E+03  0.17300000000E+03 0.  1.
         -6    1    1    2    0  501  0.12423311740E+03 -0.26688321774E+03 -0.57655016055E+02  0.34628546064E+03  0.17300000000E+03 0. -1.
<mgrwt>
<rscale>  2 0.34145207E+03</rscale>
<asrwt>0</asrwt>
<pdfrwt beam="1">  1        2 0.97728451E-01 0.34145207E+03</pdfrwt>
<pdfrwt beam="2">  1       -2 0.32552163E-01 0.34145207E+03</pdfrwt>
<totfact> 0.41587986E+02</totfact>
</mgrwt>
</event>
<event>
 4    1  0.7245070E-001  0.2222799E+03  0.7546771E-02  0.1132195E+00
         -1   -1    0    0    0  501 -0.00000000000E+00  0.00000000000E+00  0.50133001274E+02  0.50133001274E+02  0.00000000000E+00 0. -1.
          1   -1    0    0  502    0  0.00000000000E+00 -0.00000000000E+00 -0.16300260592E+04  0.16300260592E+04  0.00000000000E+00 0.  1.
          6    1    1    2  502    0  0.13298057076E+03  0.42373359025E+02 -0.26171031164E+03  0.34336659851E+03  0.17300000000E+03 0. -1.
         -6    1    1    2    0  501 -0.13298057076E+03 -0.42373359025E+02 -0.13181827463E+04  0.13367924619E+04  0.17300000000E+03 0.  1.
<mgrwt>
<rscale>  2 0.22227985E+03</rscale>
<asrwt>0</asrwt>
<pdfrwt beam="1">  1        1 0.25077321E+00 0.22227985E+03</pdfrwt>
<pdfrwt beam="2">  1       -1 0.77127702E-02 0.22227985E+03</pdfrwt>
<totfact> 0.53925983E+02</totfact>
</mgrwt>
</event>
<event>
 4    1  0.7245070E-001  0.2450651E+03  0.7546771E-02  0.1116464E+00
         -2   -1    0    0    0  501 -0.00000000000E+00  0.00000000000E+00  0.13361124655E+03  0.13361124655E+03  0.00000000000E+00 0.  1.
          2   -1    0    0  502    0  0.00000000000E+00 -0.00000000000E+00 -0.11035782259E+04  0.11035782259E+04  0.00000000000E+00 0. -1.
          6    1    1    2  502    0 -0.34318104063E+02 -0.17014753719E+03 -0.87468220010E+01  0.24522117276E+03  0.17300000000E+03 0.  1.
         -6    1    1    2    0  501  0.34318104063E+02  0.17014753719E+03 -0.96122015731E+03  0.99196829964E+03  0.17300000000E+03 0. -1.
<mgrwt>
<rscale>  2 0.24506513E+03</rscale>
<asrwt>0</asrwt>
<pdfrwt beam="1">  1        2 0.16978127E+00 0.24506513E+03</pdfrwt>
<pdfrwt beam="2">  1       -2 0.20555576E-01 0.24506513E+03</pdfrwt>
<totfact> 0.45958939E+02</totfact>
</mgrwt>
</event>
<event>
 4    1  0.7245070E-001  0.2502798E+03  0.7546771E-02  0.1113128E+00
          2   -1    0    0  502    0  0.00000000000E+00  0.00000000000E+00  0.31193703081E+04  0.31193703081E+04  0.00000000000E+00 0.  1.
         -2   -1    0    0    0  501 -0.00000000000E+00 -0.00000000000E+00 -0.20824526846E+02  0.20824526846E+02  0.00000000000E+00 0. -1.
          6    1    1    2  502    0 -0.15661209214E+03 -0.90463391226E+02  0.18459588272E+04  0.18628483471E+04  0.17300000000E+03 0.  1.
         -6    1    1    2    0  501  0.15661209214E+03  0.90463391226E+02  0.12525869541E+04  0.12773464879E+04  0.17300000000E+03 0. -1.
<mgrwt>
<rscale>  2 0.25027979E+03</rscale>
<asrwt>0</asrwt>
<pdfrwt beam="1">  1        2 0.47990275E+00 0.25027979E+03</pdfrwt>
<pdfrwt beam="2">  1       -2 0.32037758E-02 0.25027979E+03</pdfrwt>
<totfact> 0.68135384E+02</totfact>
</mgrwt>
</event>
<event>
 4    1  0.7245070E-001  0.1806783E+03  0.7546771E-02  0.1167148E+00
          2   -1    0    0  502    0  0.00000000000E+00  0.00000000000E+00  0.60793966226E+03  0.60793966226E+03  0.00000000000E+00 0. -1.
         -2   -1    0    0    0  501 -0.00000000000E+00 -0.00000000000E+00 -0.10458594368E+03  0.10458594368E+03  0.00000000000E+00 0.  1.
          6    1    1    2  502    0 -0.50247138010E+02 -0.13815186270E+02  0.31662983926E+01  0.18070600348E+03  0.17300000000E+03 0.  1.
         -6    1    1    2    0  501  0.50247138010E+02  0.13815186270E+02  0.50018742019E+03  0.53181960246E+03  0.17300000000E+03 0. -1.
<mgrwt>
<rscale>  2 0.18067826E+03</rscale>
<asrwt>0</asrwt>
<pdfrwt beam="1">  1        2 0.93529177E-01 0.18067826E+03</pdfrwt>
<pdfrwt beam="2">  1       -2 0.16090146E-01 0.18067826E+03</pdfrwt>
<totfact> 0.15045953E+03</totfact>
</mgrwt>
</event>
<event>
 4    1  0.7245070E-001  0.1870431E+03  0.7546771E-02  0.1161156E+00
          2   -1    0    0  502    0  0.00000000000E+00  0.00000000000E+00  0.36652244400E+03  0.36652244400E+03  0.00000000000E+00 0. -1.
         -2   -1    0    0    0  501 -0.00000000000E+00 -0.00000000000E+00 -0.13430842999E+03  0.13430842999E+03  0.00000000000E+00 0.  1.
          6    1    1    2  502    0 -0.37946324863E+02  0.60134816695E+02  0.25079958426E+03  0.31286666683E+03  0.17300000000E+03 0. -1.
         -6    1    1    2    0  501  0.37946324863E+02 -0.60134816695E+02 -0.18585570245E+02  0.18796420715E+03  0.17300000000E+03 0.  1.
<mgrwt>
<rscale>  2 0.18704310E+03</rscale>
<asrwt>0</asrwt>
<pdfrwt beam="1">  1        2 0.56388068E-01 0.18704310E+03</pdfrwt>
<pdfrwt beam="2">  1       -2 0.20662836E-01 0.18704310E+03</pdfrwt>
<totfact> 0.17286218E+03</totfact>
</mgrwt>
</event>
<event>
 4    1  0.7245070E-001  0.1791930E+03  0.7546771E-02  0.1168586E+00
         -2   -1    0    0    0  501 -0.00000000000E+00  0.00000000000E+00  0.76449146314E+02  0.76449146314E+02  0.00000000000E+00 0. -1.
          2   -1    0    0  502    0  0.00000000000E+00 -0.00000000000E+00 -0.62916821755E+03  0.62916821755E+03  0.00000000000E+00 0.  1.
          6    1    1    2  502    0  0.55333913903E+00 -0.46699217226E+02 -0.72944241614E+02  0.19347089047E+03  0.17300000000E+03 0. -1.
         -6    1    1    2    0  501 -0.55333913903E+00  0.46699217226E+02 -0.47977482962E+03  0.51214647340E+03  0.17300000000E+03 0. -1.
<mgrwt>
<rscale>  2 0.17919298E+03</rscale>
<asrwt>0</asrwt>
<pdfrwt beam="1">  1        2 0.96795106E-01 0.17919298E+03</pdfrwt>
<pdfrwt beam="2">  1       -2 0.11761408E-01 0.17919298E+03</pdfrwt>
<totfact> 0.24093386E+03</totfact>
</mgrwt>
</event>
<event>
 4    1  0.7245070E-001  0.1816532E+03  0.7546771E-02  0.1166213E+00
          1   -1    0    0  502    0  0.00000000000E+00  0.00000000000E+00  0.32460003638E+02  0.32460003638E+02  0.00000000000E+00 0. -1.
         -1   -1    0    0    0  501 -0.00000000000E+00 -0.00000000000E+00 -0.11857158312E+04  0.11857158312E+04  0.00000000000E+00 0.  1.
          6    1    1    2  502    0 -0.45268618242E+02 -0.31931865774E+02 -0.34657947085E+03  0.39129940131E+03  0.17300000000E+03 0. -1.
         -6    1    1    2    0  501  0.45268618242E+02  0.31931865774E+02 -0.80667635674E+03  0.82687643356E+03  0.17300000000E+03 0.  1.
<mgrwt>
<rscale>  2 0.18165322E+03</rscale>
<asrwt>0</asrwt>
<pdfrwt beam="1">  1        1 0.49938473E-02 0.18165322E+03</pdfrwt>
<pdfrwt beam="2">  1       -1 0.18241780E+00 0.18165322E+03</pdfrwt>
<totfact> 0.36707650E+02</totfact>
</mgrwt>
</event>
<event>
 4    1  0.7245070E-001  0.3001622E+03  0.7546771E-02  0.1085160E+00
         -2   -1    0    0    0  501 -0.00000000000E+00  0.00000000000E+00  0.69727686562E+02  0.69727686562E+02  0.00000000000E+00 0. -1.
          2   -1    0    0  502    0  0.00000000000E+00 -0.00000000000E+00 -0.16609954754E+04  0.16609954754E+04  0.00000000000E+00 0.  1.
          6    1    1    2  502    0 -0.17279717656E+03  0.17409624807E+03 -0.38783478428E+03  0.49042143888E+03  0.17300000000E+03 0.  1.
         -6    1    1    2    0  501  0.17279717656E+03 -0.17409624807E+03 -0.12034330045E+04  0.12403017231E+04  0.17300000000E+03 0.  1.
<mgrwt>
<rscale>  2 0.30016224E+03</rscale>
<asrwt>0</asrwt>
<pdfrwt beam="1">  1        2 0.25553776E+00 0.30016224E+03</pdfrwt>
<pdfrwt beam="2">  1       -2 0.10727337E-01 0.30016224E+03</pdfrwt>
<totfact> 0.66328280E+02</totfact>
</mgrwt>
</event>
<event>
 4    1  0.7245070E-001  0.1737482E+03  0.7546771E-02  0.1173994E+00
          2   -1    0    0  502    0  0.00000000000E+00  0.00000000000E+00  0.84413518023E+03  0.84413518023E+03  0.00000000000E+00 0. -1.
         -2   -1    0    0    0  501 -0.00000000000E+00 -0.00000000000E+00 -0.44704173490E+02  0.44704173490E+02  0.00000000000E+00 0.  1.
          6    1    1    2  502    0 -0.10650851930E+02  0.12083150176E+02  0.59847457378E+03  0.62318557319E+03  0.17300000000E+03 0. -1.
         -6    1    1    2    0  501  0.10650851930E+02 -0.12083150176E+02  0.20095643296E+03  0.26565378054E+03  0.17300000000E+03 0.  1.
<mgrwt>
<rscale>  2 0.17374822E+03</rscale>
<asrwt>0</asrwt>
<pdfrwt beam="1">  1        2 0.12986694E+00 0.17374822E+03</pdfrwt>
<pdfrwt beam="2">  1       -2 0.68775658E-02 0.17374822E+03</pdfrwt>
<totfact> 0.39043948E+03</totfact>
</mgrwt>
</event>
<event>
 4    1  0.7245070E-001  0.2330700E+03  0.7546771E-02  0.1124497E+00
          1   -1    0    0  502    0  0.00000000000E+00  0.00000000000E+00  0.73658008463E+03  0.73658008463E+03  0.00000000000E+00 0.  1.
         -1   -1    0    0    0  501 -0.00000000000E+00 -0.00000000000E+00 -0.73774941578E+02  0.73774941578E+02  0.00000000000E+00 0. -1.
          6    1    1    2  502    0 -0.65326924555E+02 -0.14186273751E+03  0.32372538204E+03  0.39889819045E+03  0.17300000000E+03 0.  1.
         -6    1    1    2    0  501  0.65326924555E+02  0.14186273751E+03  0.33907976101E+03  0.41145683576E+03  0.17300000000E+03 0.  1.
<mgrwt>
<rscale>  2 0.23307004E+03</rscale>
<asrwt>0</asrwt>
<pdfrwt beam="1">  1        1 0.11332001E+00 0.23307004E+03</pdfrwt>
<pdfrwt beam="2">  1       -1 0.11349992E-01 0.23307004E+03</pdfrwt>
<totfact> 0.13069004E+03</totfact>
</mgrwt>
</event>
<event>
 4    1  0.7245070E-001  0.1932848E+03  0.7546771E-02  0.1155532E+00
         -1   -1    0    0    0  501 -0.00000000000E+00  0.00000000000E+00  0.53407189375E+03  0.53407189375E+03  0.00000000000E+00 0. -1.
          1   -1    0    0  502    0  0.00000000000E+00 -0.00000000000E+00 -0.10266924472E+03  0.10266924472E+03  0.00000000000E+00 0.  1.
          6    1    1    2  502    0  0.43402478330E+02  0.74473042347E+02  0.39542525700E+03  0.44013650500E+03  0.17300000000E+03 0. -1.
         -6    1    1    2    0  501 -0.43402478330E+02 -0.74473042347E+02  0.35977392032E+02  0.19660463346E+03  0.17300000000E+03 0.  1.
<mgrwt>
<rscale>  2 0.19328479E+03</rscale>
<asrwt>0</asrwt>
<pdfrwt beam="1">  1        1 0.15795269E-01 0.19328479E+03</pdfrwt>
<pdfrwt beam="2">  1       -1 0.82164905E-01 0.19328479E+03</pdfrwt>
<totfact> 0.53758285E+02</totfact>
</mgrwt>
</event>
<event>
 4    1  0.7245070E-001  0.2092914E+03  0.7546771E-02  0.1142128E+00
         -2   -1    0    0    0  501 -0.00000000000E+00  0.00000000000E+00  0.29194475953E+02  0.29194475953E+02  0.00000000000E+00 0. -1.
          2   -1    0    0  502    0  0.00000000000E+00 -0.00000000000E+00 -0.15659611896E+04  0.15659611896E+04  0.00000000000E+00 0.  1.
          6    1    1    2  502    0 -0.14938284581E+02  0.11683634322E+03 -0.93159970133E+03  0.95481981910E+03  0.17300000000E+03 0. -1.
         -6    1    1    2    0  501  0.14938284581E+02 -0.11683634322E+03 -0.60516701230E+03  0.64033584642E+03  0.17300000000E+03 0.  1.
<mgrwt>
<rscale>  2 0.20929138E+03</rscale>
<asrwt>0</asrwt>
<pdfrwt beam="1">  1        2 0.24091709E+00 0.20929138E+03</pdfrwt>
<pdfrwt beam="2">  1       -2 0.44914582E-02 0.20929138E+03</pdfrwt>
<totfact> 0.28987267E+03</totfact>
</mgrwt>
</event>
<event>
 4    1  0.7245070E-001  0.1944367E+03  0.7546771E-02  0.1154519E+00
          2   -1    0    0  502    0  0.00000000000E+00  0.00000000000E+00  0.65056491833E+03  0.65056491833E+03  0.00000000000E+00 0.  1.
         -2   -1    0    0    0  501 -0.00000000000E+00 -0.00000000000E+00 -0.68245009339E+02  0.68245009339E+02  0.00000000000E+00 0. -1.
          6    1    1    2  502    0 -0.84218939902E+02  0.27996767427E+02  0.42964955909E+03  0.47159770191E+03  0.17300000000E+03 0. -1.
         -6    1    1    2    0  501  0.84218939902E+02 -0.27996767427E+02  0.15267034991E+03  0.24721222576E+03  0.17300000000E+03 0. -1.
<mgrwt>
<rscale>  2 0.19443675E+03</rscale>
<asrwt>0</asrwt>
<pdfrwt beam="1">  1        2 0.10008691E+00 0.19443675E+03</pdfrwt>
<pdfrwt beam="2">  1       -2 0.10499233E-01 0.19443675E+03</pdfrwt>
<totfact> 0.27834214E+03</totfact>
</mgrwt>
</event>
<event>
 4    1  0.7245070E-001  0.2181454E+03  0.7546771E-02  0.1135273E+00
         -1   -1    0    0    0  501 -0.00000000000E+00  0.00000000000E+00  0.33709085846E+02  0.33709085846E+02  0.00000000000E+00 0. -1.
          1   -1    0    0  502    0  0.00000000000E+00 -0.00000000000E+00 -0.14281247882E+04  0.14281247882E+04  0.00000000000E+00 0.  1.
          6    1    1    2  502    0 -0.12819130553E+03  0.35006036592E+02 -0.61884495055E+03  0.65616804725E+03  0.17300000000E+03 0.  1.
         -6    1    1    2    0  501  0.12819130553E+03 -0.35006036592E+02 -0.77557075181E+03  0.80566582680E+03  0.17300000000E+03 0.  1.
<mgrwt>
<rscale>  2 0.21814544E+03</rscale>
<asrwt>0</asrwt>
<pdfrwt beam="1">  1        1 0.21971154E+00 0.21814544E+03</pdfrwt>
<pdfrwt beam="2">  1       -1 0.51860124E-02 0.21814544E+03</pdfrwt>
<totfact> 0.13342109E+03</totfact>
</mgrwt>
</event>
<event>
 4    1  0.7245070E-001  0.2409731E+03  0.7546771E-02  0.1119146E+00
          3   -1    0    0  502    0  0.00000000000E+00  0.00000000000E+00  0.14129403397E+04  0.14129403397E+04  0.00000000000E+00 0.  1.
         -3   -1    0    0    0  501 -0.00000000000E+00 -0.00000000000E+00 -0.44691952132E+02  0.44691952132E+02  0.00000000000E+00 0. -1.
          6    1    1    2  502    0 -0.45317860410E+02  0.16150957795E+03  0.47742873489E+03  0.53479552087E+03  0.17300000000E+03 0.  1.
         -6    1    1    2    0  501  0.45317860410E+02 -0.16150957795E+03  0.89081965266E+03  0.92283677094E+03  0.17300000000E+03 0. -1.
<mgrwt>
<rscale>  2 0.24097314E+03</rscale>
<asrwt>0</asrwt>
<pdfrwt beam="1">  1        3 0.21737540E+00 0.24097314E+03</pdfrwt>
<pdfrwt beam="2">  1       -3 0.68756860E-02 0.24097314E+03</pdfrwt>
<totfact> 0.42883869E+01</totfact>
</mgrwt>
</event>
<event>
 4    1  0.7245070E-001  0.1813211E+03  0.7546771E-02  0.1166531E+00
         -2   -1    0    0    0  501 -0.00000000000E+00  0.00000000000E+00  0.34522842836E+02  0.34522842836E+02  0.00000000000E+00 0. -1.
          2   -1    0    0  502    0  0.00000000000E+00 -0.00000000000E+00 -0.95394512475E+03  0.95394512475E+03  0.00000000000E+00 0.  1.
          6    1    1    2  502    0 -0.36104469479E+02  0.40556239141E+02 -0.48001060392E+03  0.51311550467E+03  0.17300000000E+03 0.  1.
         -6    1    1    2    0  501  0.36104469479E+02 -0.40556239141E+02 -0.43941167799E+03  0.47535246291E+03  0.17300000000E+03 0.  1.
<mgrwt>
<rscale>  2 0.18132110E+03</rscale>
<asrwt>0</asrwt>
<pdfrwt beam="1">  1        2 0.14676081E+00 0.18132110E+03</pdfrwt>
<pdfrwt beam="2">  1       -2 0.53112059E-02 0.18132110E+03</pdfrwt>
<totfact> 0.49363508E+03</totfact>
</mgrwt>
</event>
<event>
 4    1  0.7245070E-001  0.2254601E+03  0.7546771E-02  0.1129877E+00
         -2   -1    0    0    0  501 -0.00000000000E+00  0.00000000000E+00  0.45832651563E+02  0.45832651563E+02  0.00000000000E+00 0. -1.
          2   -1    0    0  502    0  0.00000000000E+00 -0.00000000000E+00 -0.15569873864E+04  0.15569873864E+04  0.00000000000E+00 0.  1.
          6    1    1    2  502    0 -0.11170323909E+03  0.91791288003E+02 -0.11854150247E+04  0.12066652538E+04  0.17300000000E+03 0. -1.
         -6    1    1    2    0  501  0.11170323909E+03 -0.91791288003E+02 -0.32573971014E+03  0.39615478407E+03  0.17300000000E+03 0. -1.
<mgrwt>
<rscale>  2 0.22546009E+03</rscale>
<asrwt>0</asrwt>
<pdfrwt beam="1">  1        2 0.23953649E+00 0.22546009E+03</pdfrwt>
<pdfrwt beam="2">  1       -2 0.70511781E-02 0.22546009E+03</pdfrwt>
<totfact> 0.14702172E+03</totfact>
</mgrwt>
</event>
<event>
 4    1  0.7245070E-001  0.1939044E+03  0.7546771E-02  0.1154986E+00
         -1   -1    0    0    0  501 -0.00000000000E+00  0.00000000000E+00  0.27551133793E+03  0.27551133793E+03  0.00000000000E+00 0.  1.
          1   -1    0    0  502    0  0.00000000000E+00 -0.00000000000E+00 -0.14280869834E+03  0.14280869834E+03  0.00000000000E+00 0. -1.
          6    1    1    2  502    0 -0.68856066355E+02  0.54117987148E+02  0.22284060659E+02  0.19518066955E+03  0.17300000000E+03 0. -1.
         -6    1    1    2    0  501  0.68856066355E+02 -0.54117987148E+02  0.11041857893E+03  0.22313936672E+03  0.17300000000E+03 0.  1.
<mgrwt>
<rscale>  2 0.19390440E+03</rscale>
<asrwt>0</asrwt>
<pdfrwt beam="1">  1        1 0.21970569E-01 0.19390440E+03</pdfrwt>
<pdfrwt beam="2">  1       -1 0.42386360E-01 0.19390440E+03</pdfrwt>
<totfact> 0.12487638E+03</totfact>
</mgrwt>
</event>
<event>
 4    1  0.7245070E-001  0.2130133E+03  0.7546771E-02  0.1139202E+00
          2   -1    0    0  502    0  0.00000000000E+00  0.00000000000E+00  0.80371958097E+03  0.80371958097E+03  0.00000000000E+00 0. -1.
         -2   -1    0    0    0  501 -0.00000000000E+00 -0.00000000000E+00 -0.57302743015E+02  0.57302743015E+02  0.00000000000E+00 0.  1.
          6    1    1    2  502    0  0.28812068846E+02  0.12089471350E+03  0.32087096472E+03  0.38514003046E+03  0.17300000000E+03 0. -1.
         -6    1    1    2    0  501 -0.28812068846E+02 -0.12089471350E+03  0.42554587323E+03  0.47588229352E+03  0.17300000000E+03 0. -1.
<mgrwt>
<rscale>  2 0.21301330E+03</rscale>
<asrwt>0</asrwt>
<pdfrwt beam="1">  1        2 0.12364916E+00 0.21301330E+03</pdfrwt>
<pdfrwt beam="2">  1       -2 0.88158072E-02 0.21301330E+03</pdfrwt>
<totfact> 0.28408055E+03</totfact>
</mgrwt>
</event>
<event>
 4    1  0.7245070E-001  0.2114950E+03  0.7546771E-02  0.1140388E+00
         -2   -1    0    0    0  501 -0.00000000000E+00  0.00000000000E+00  0.25239812749E+02  0.25239812749E+02  0.00000000000E+00 0. -1.
          2   -1    0    0  502    0  0.00000000000E+00 -0.00000000000E+00 -0.18468166800E+04  0.18468166800E+04  0.00000000000E+00 0.  1.
          6    1    1    2  502    0  0.12142566910E+03  0.75450590473E+01 -0.72264865784E+03  0.75296162167E+03  0.17300000000E+03 0. -1.
         -6    1    1    2    0  501 -0.12142566910E+03 -0.75450590473E+01 -0.10989282094E+04  0.11190948711E+04  0.17300000000E+03 0.  1.
<mgrwt>
<rscale>  2 0.21149497E+03</rscale>
<asrwt>0</asrwt>
<pdfrwt beam="1">  1        2 0.28412564E+00 0.21149497E+03</pdfrwt>
<pdfrwt beam="2">  1       -2 0.38830481E-02 0.21149497E+03</pdfrwt>
<totfact> 0.25739417E+03</totfact>
</mgrwt>
</event>
<event>
 4    1  0.7245070E-001  0.2085970E+03  0.7546771E-02  0.1142682E+00
         -1   -1    0    0    0  501 -0.00000000000E+00  0.00000000000E+00  0.89809109694E+02  0.89809109694E+02  0.00000000000E+00 0.  1.
          1   -1    0    0  502    0  0.00000000000E+00 -0.00000000000E+00 -0.15777299919E+04  0.15777299919E+04  0.00000000000E+00 0. -1.
          6    1    1    2  502    0  0.31928124626E+02  0.11209069301E+03 -0.14380012119E+04  0.14530520342E+04  0.17300000000E+03 0. -1.
         -6    1    1    2    0  501 -0.31928124626E+02 -0.11209069301E+03 -0.49919670292E+02  0.21448706740E+03  0.17300000000E+03 0.  1.
<mgrwt>
<rscale>  2 0.20859705E+03</rscale>
<asrwt>0</asrwt>
<pdfrwt beam="1">  1        1 0.24272769E+00 0.20859705E+03</pdfrwt>
<pdfrwt beam="2">  1       -1 0.13816786E-01 0.20859705E+03</pdfrwt>
<totfact> 0.23730999E+02</totfact>
</mgrwt>
</event>
<event>
 4    1  0.7245070E-001  0.2126653E+03  0.7546771E-02  0.1139473E+00
         -1   -1    0    0    0  501 -0.00000000000E+00  0.00000000000E+00  0.72828058479E+02  0.72828058479E+02  0.00000000000E+00 0. -1.
          1   -1    0    0  502    0  0.00000000000E+00 -0.00000000000E+00 -0.64546148120E+03  0.64546148120E+03  0.00000000000E+00 0.  1.
          6    1    1    2  502    0  0.11887651824E+03 -0.34145573858E+02 -0.35622625141E+03  0.41487792059E+03  0.17300000000E+03 0.  1.
         -6    1    1    2    0  501 -0.11887651824E+03  0.34145573858E+02 -0.21640717131E+03  0.30341161909E+03  0.17300000000E+03 0. -1.
<mgrwt>
<rscale>  2 0.21266534E+03</rscale>
<asrwt>0</asrwt>
<pdfrwt beam="1">  1        1 0.99301763E-01 0.21266534E+03</pdfrwt>
<pdfrwt beam="2">  1       -1 0.11204317E-01 0.21266534E+03</pdfrwt>
<totfact> 0.16131782E+03</totfact>
</mgrwt>
</event>
<event>
 4    1  0.7245070E-001  0.2298939E+03  0.7546771E-02  0.1126714E+00
         -2   -1    0    0    0  501 -0.00000000000E+00  0.00000000000E+00  0.64219840981E+02  0.64219840981E+02  0.00000000000E+00 0. -1.
          2   -1    0    0  502    0  0.00000000000E+00 -0.00000000000E+00 -0.14160415866E+04  0.14160415866E+04  0.00000000000E+00 0.  1.
          6    1    1    2  502    0 -0.82238739198E+02 -0.12711798430E+03 -0.11548969620E+04  0.11775560220E+04  0.17300000000E+03 0.  1.
         -6    1    1    2    0  501  0.82238739198E+02  0.12711798430E+03 -0.19692478365E+03  0.30270540559E+03  0.17300000000E+03 0. -1.
<mgrwt>
<rscale>  2 0.22989387E+03</rscale>
<asrwt>0</asrwt>
<pdfrwt beam="1">  1        2 0.21785254E+00 0.22989387E+03</pdfrwt>
<pdfrwt beam="2">  1       -2 0.98799760E-02 0.22989387E+03</pdfrwt>
<totfact> 0.10296754E+03</totfact>
</mgrwt>
</event>
<event>
 4    1  0.7245070E-001  0.2845651E+03  0.7546771E-02  0.1093221E+00
         -1   -1    0    0    0  501 -0.00000000000E+00  0.00000000000E+00  0.14646667530E+03  0.14646667530E+03  0.00000000000E+00 0.  1.
          1   -1    0    0  502    0  0.00000000000E+00 -0.00000000000E+00 -0.62391213324E+03  0.62391213324E+03  0.00000000000E+00 0. -1.
          6    1    1    2  502    0  0.49923315719E+02  0.22035416022E+03 -0.10874614076E+03  0.30463587528E+03  0.17300000000E+03 0. -1.
         -6    1    1    2    0  501 -0.49923315719E+02 -0.22035416022E+03 -0.36869931719E+03  0.46574293326E+03  0.17300000000E+03 0. -1.
<mgrwt>
<rscale>  2 0.28456510E+03</rscale>
<asrwt>0</asrwt>
<pdfrwt beam="1">  1        1 0.95986482E-01 0.28456510E+03</pdfrwt>
<pdfrwt beam="2">  1       -1 0.22533335E-01 0.28456510E+03</pdfrwt>
<totfact> 0.55361416E+02</totfact>
</mgrwt>
</event>
<event>
 4    1  0.7245070E-001  0.2955911E+03  0.7546771E-02  0.1087466E+00
          1   -1    0    0  502    0  0.00000000000E+00  0.00000000000E+00  0.23264587874E+03  0.23264587874E+03  0.00000000000E+00 0.  1.
         -1   -1    0    0    0  501 -0.00000000000E+00 -0.00000000000E+00 -0.40195432530E+03  0.40195432530E+03  0.00000000000E+00 0. -1.
          6    1    1    2  502    0  0.12652387183E+03 -0.20356040167E+03 -0.33563656949E+01  0.29561020358E+03  0.17300000000E+03 0.  1.
         -6    1    1    2    0  501 -0.12652387183E+03  0.20356040167E+03 -0.16595208086E+03  0.33899000046E+03  0.17300000000E+03 0. -1.
<mgrwt>
<rscale>  2 0.29559115E+03</rscale>
<asrwt>0</asrwt>
<pdfrwt beam="1">  1        1 0.35791674E-01 0.29559115E+03</pdfrwt>
<pdfrwt beam="2">  1       -1 0.61839126E-01 0.29559115E+03</pdfrwt>
<totfact> 0.33304828E+02</totfact>
</mgrwt>
</event>
<event>
 4    1  0.7245070E-001  0.1762758E+03  0.7546771E-02  0.1171457E+00
         -1   -1    0    0    0  501 -0.00000000000E+00  0.00000000000E+00  0.62783217062E+02  0.62783217062E+02  0.00000000000E+00 0.  1.
          1   -1    0    0  502    0  0.00000000000E+00 -0.00000000000E+00 -0.50996211151E+03  0.50996211151E+03  0.00000000000E+00 0. -1.
          6    1    1    2  502    0  0.29445978462E+02 -0.16645827788E+02 -0.27276018661E+03  0.32476340408E+03  0.17300000000E+03 0. -1.
         -6    1    1    2    0  501 -0.29445978462E+02  0.16645827788E+02 -0.17441870784E+03  0.24798192449E+03  0.17300000000E+03 0.  1.
<mgrwt>
<rscale>  2 0.17627578E+03</rscale>
<asrwt>0</asrwt>
<pdfrwt beam="1">  1        1 0.78455709E-01 0.17627578E+03</pdfrwt>
<pdfrwt beam="2">  1       -1 0.96589565E-02 0.17627578E+03</pdfrwt>
<totfact> 0.27856435E+03</totfact>
</mgrwt>
</event>
<event>
 4    1  0.7245070E-001  0.2327834E+03  0.7546771E-02  0.1124696E+00
          1   -1    0    0  502    0  0.00000000000E+00  0.00000000000E+00  0.69310275964E+03  0.69310275964E+03  0.00000000000E+00 0. -1.
         -1   -1    0    0    0  501 -0.00000000000E+00 -0.00000000000E+00 -0.80614026819E+02  0.80614026819E+02  0.00000000000E+00 0.  1.
          6    1    1    2  502    0 -0.96212025073E+02 -0.12248419838E+03  0.37343897318E+03  0.44005090536E+03  0.17300000000E+03 0. -1.
         -6    1    1    2    0  501  0.96212025073E+02  0.12248419838E+03  0.23904975965E+03  0.33366588110E+03  0.17300000000E+03 0. -1.
<mgrwt>
<rscale>  2 0.23278345E+03</rscale>
<asrwt>0</asrwt>
<pdfrwt beam="1">  1        1 0.10663119E+00 0.23278345E+03</pdfrwt>
<pdfrwt beam="2">  1       -1 0.12402158E-01 0.23278345E+03</pdfrwt>
<totfact> 0.12442187E+03</totfact>
</mgrwt>
</event>
<event>
 4    1  0.7245070E-001  0.1949875E+03  0.7546771E-02  0.1154038E+00
         -1   -1    0    0    0  501 -0.00000000000E+00  0.00000000000E+00  0.34214486275E+02  0.34214486275E+02  0.00000000000E+00 0.  1.
          1   -1    0    0  502    0  0.00000000000E+00 -0.00000000000E+00 -0.11112325392E+04  0.11112325392E+04  0.00000000000E+00 0. -1.
          6    1    1    2  502    0 -0.40271631117E+02 -0.80432118581E+02 -0.53748947992E+03  0.57176487388E+03  0.17300000000E+03 0. -1.
         -6    1    1    2    0  501  0.40271631117E+02  0.80432118581E+02 -0.53952857296E+03  0.57368215155E+03  0.17300000000E+03 0. -1.
<mgrwt>
<rscale>  2 0.19498751E+03</rscale>
<asrwt>0</asrwt>
<pdfrwt beam="1">  1        1 0.17095885E+00 0.19498751E+03</pdfrwt>
<pdfrwt beam="2">  1       -1 0.52637673E-02 0.19498751E+03</pdfrwt>
<totfact> 0.21505311E+03</totfact>
</mgrwt>
</event>
<event>
 4    1  0.7245070E-001  0.1921205E+03  0.7546771E-02  0.1156563E+00
         -2   -1    0    0    0  501 -0.00000000000E+00  0.00000000000E+00  0.60609040697E+02  0.60609040697E+02  0.00000000000E+00 0. -1.
          2   -1    0    0  502    0  0.00000000000E+00 -0.00000000000E+00 -0.11630082429E+04  0.11630082429E+04  0.00000000000E+00 0.  1.
          6    1    1    2  502    0  0.37362769639E+02 -0.74734869815E+02 -0.12893333486E+03  0.23137433341E+03  0.17300000000E+03 0. -1.
         -6    1    1    2    0  501 -0.37362769639E+02  0.74734869815E+02 -0.97346586730E+03  0.99224295015E+03  0.17300000000E+03 0.  1.
<mgrwt>
<rscale>  2 0.19212048E+03</rscale>
<asrwt>0</asrwt>
<pdfrwt beam="1">  1        2 0.17892433E+00 0.19212048E+03</pdfrwt>
<pdfrwt beam="2">  1       -2 0.93244688E-02 0.19212048E+03</pdfrwt>
<totfact> 0.15589453E+03</totfact>
</mgrwt>
</event>
<event>
 4    1  0.7245070E-001  0.1891951E+03  0.7546771E-02  0.1159189E+00
         -2   -1    0    0    0  501 -0.00000000000E+00  0.00000000000E+00  0.12468496062E+03  0.12468496062E+03  0.00000000000E+00 0.  1.
          2   -1    0    0  502    0  0.00000000000E+00 -0.00000000000E+00 -0.29086493515E+03  0.29086493515E+03  0.00000000000E+00 0. -1.
          6    1    1    2  502    0  0.76577734469E+02 -0.12809843284E+01 -0.10678571300E+03  0.21725095820E+03  0.17300000000E+03 0. -1.
         -6    1    1    2    0  501 -0.76577734469E+02  0.12809843284E+01 -0.59394261540E+02  0.19829893757E+03  0.17300000000E+03 0.  1.
<mgrwt>
<rscale>  2 0.18919511E+03</rscale>
<asrwt>0</asrwt>
<pdfrwt beam="1">  1        2 0.44748452E-01 0.18919511E+03</pdfrwt>
<pdfrwt beam="2">  1       -2 0.19182302E-01 0.18919511E+03</pdfrwt>
<totfact> 0.25149595E+03</totfact>
</mgrwt>
</event>
<event>
 4    1  0.7245070E-001  0.1973264E+03  0.7546771E-02  0.1152015E+00
          2   -1    0    0  502    0  0.00000000000E+00  0.00000000000E+00  0.44844665060E+03  0.44844665060E+03  0.00000000000E+00 0.  1.
         -2   -1    0    0    0  501 -0.00000000000E+00 -0.00000000000E+00 -0.12641933510E+03  0.12641933510E+03  0.00000000000E+00 0. -1.
          6    1    1    2  502    0  0.72278081228E+02  0.61518876598E+02  0.16022334145E+00  0.19732642721E+03  0.17300000000E+03 0. -1.
         -6    1    1    2    0  501 -0.72278081228E+02 -0.61518876598E+02  0.32186709216E+03  0.37753955849E+03  0.17300000000E+03 0.  1.
<mgrwt>
<rscale>  2 0.19732636E+03</rscale>
<asrwt>0</asrwt>
<pdfrwt beam="1">  1        2 0.68991791E-01 0.19732636E+03</pdfrwt>
<pdfrwt beam="2">  1       -2 0.19449129E-01 0.19732636E+03</pdfrwt>
<totfact> 0.15421050E+03</totfact>
</mgrwt>
</event>
<event>
 4    1  0.7245070E-001  0.2112317E+03  0.7546771E-02  0.1140594E+00
          1   -1    0    0  502    0  0.00000000000E+00  0.00000000000E+00  0.15432910422E+03  0.15432910422E+03  0.00000000000E+00 0. -1.
         -1   -1    0    0    0  501 -0.00000000000E+00 -0.00000000000E+00 -0.30336663903E+03  0.30336663903E+03  0.00000000000E+00 0.  1.
          6    1    1    2  502    0 -0.47256638469E+02  0.11160934727E+03 -0.12412058770E+03  0.24499950320E+03  0.17300000000E+03 0. -1.
         -6    1    1    2    0  501  0.47256638469E+02 -0.11160934727E+03 -0.24916947114E+02  0.21269624005E+03  0.17300000000E+03 0. -1.
<mgrwt>
<rscale>  2 0.21123171E+03</rscale>
<asrwt>0</asrwt>
<pdfrwt beam="1">  1        1 0.23742939E-01 0.21123171E+03</pdfrwt>
<pdfrwt beam="2">  1       -1 0.46671790E-01 0.21123171E+03</pdfrwt>
<totfact> 0.95211769E+02</totfact>
</mgrwt>
</event>
<event>
 4    1  0.7245070E-001  0.2025232E+03  0.7546771E-02  0.1147628E+00
          2   -1    0    0  502    0  0.00000000000E+00  0.00000000000E+00  0.20615796954E+04  0.20615796954E+04  0.00000000000E+00 0. -1.
         -2   -1    0    0    0  501 -0.00000000000E+00 -0.00000000000E+00 -0.21862609004E+02  0.21862609004E+02  0.00000000000E+00 0.  1.
          6    1    1    2  502    0 -0.30778691441E+02  0.10069411067E+03  0.70736365193E+03  0.73578459337E+03  0.17300000000E+03 0.  1.
         -6    1    1    2    0  501  0.30778691441E+02 -0.10069411067E+03  0.13323534345E+04  0.13476577111E+04  0.17300000000E+03 0.  1.
<mgrwt>
<rscale>  2 0.20252316E+03</rscale>
<asrwt>0</asrwt>
<pdfrwt beam="1">  1        2 0.31716595E+00 0.20252316E+03</pdfrwt>
<pdfrwt beam="2">  1       -2 0.33634799E-02 0.20252316E+03</pdfrwt>
<totfact> 0.24673711E+03</totfact>
</mgrwt>
</event>
<event>
 4    1  0.7245070E-001  0.2417305E+03  0.7546771E-02  0.1118645E+00
         -2   -1    0    0    0  501 -0.00000000000E+00  0.00000000000E+00  0.33592789239E+02  0.33592789239E+02  0.00000000000E+00 0. -1.
          2   -1    0    0  502    0  0.00000000000E+00 -0.00000000000E+00 -0.21431253678E+04  0.21431253678E+04  0.00000000000E+00 0.  1.
          6    1    1    2  502    0  0.16583696729E+03 -0.31666330952E+02 -0.15271051389E+04  0.15461189351E+04  0.17300000000E+03 0.  1.
         -6    1    1    2    0  501 -0.16583696729E+03  0.31666330952E+02 -0.58242743968E+03  0.63059922195E+03  0.17300000000E+03 0. -1.
<mgrwt>
<rscale>  2 0.24173054E+03</rscale>
<asrwt>0</asrwt>
<pdfrwt beam="1">  1        2 0.32971155E+00 0.24173054E+03</pdfrwt>
<pdfrwt beam="2">  1       -2 0.51681221E-02 0.24173054E+03</pdfrwt>
<totfact> 0.11661133E+03</totfact>
</mgrwt>
</event>
<event>
 4    1  0.7245070E-001  0.1739767E+03  0.7546771E-02  0.1173763E+00
         -1   -1    0    0    0  501 -0.00000000000E+00  0.00000000000E+00  0.36916998220E+02  0.36916998220E+02  0.00000000000E+00 0. -1.
          1   -1    0    0  502    0  0.00000000000E+00 -0.00000000000E+00 -0.82823031294E+03  0.82823031294E+03  0.00000000000E+00 0.  1.
          6    1    1    2  502    0  0.83406007537E+01  0.16410715017E+02 -0.43906528134E+03  0.47227767093E+03  0.17300000000E+03 0.  1.
         -6    1    1    2    0  501 -0.83406007537E+01 -0.16410715017E+02 -0.35224803338E+03  0.39286964022E+03  0.17300000000E+03 0.  1.
<mgrwt>
<rscale>  2 0.17397666E+03</rscale>
<asrwt>0</asrwt>
<pdfrwt beam="1">  1        1 0.12742003E+00 0.17397666E+03</pdfrwt>
<pdfrwt beam="2">  1       -1 0.56795388E-02 0.17397666E+03</pdfrwt>
<totfact> 0.31303656E+03</totfact>
</mgrwt>
</event>
<event>
 4    1  0.7245070E-001  0.2007765E+03  0.7546771E-02  0.1149086E+00
          2   -1    0    0  502    0  0.00000000000E+00  0.00000000000E+00  0.58532375538E+03  0.58532375538E+03  0.00000000000E+00 0.  1.
         -2   -1    0    0    0  501 -0.00000000000E+00 -0.00000000000E+00 -0.94856183685E+02  0.94856183685E+02  0.00000000000E+00 0. -1.
          6    1    1    2  502    0  0.97878423412E+02 -0.28319719334E+02  0.42323912671E+03  0.46844695607E+03  0.17300000000E+03 0.  1.
         -6    1    1    2    0  501 -0.97878423412E+02  0.28319719334E+02  0.67228444985E+02  0.21173298299E+03  0.17300000000E+03 0. -1.
<mgrwt>
<rscale>  2 0.20077647E+03</rscale>
<asrwt>0</asrwt>
<pdfrwt beam="1">  1        2 0.90049807E-01 0.20077647E+03</pdfrwt>
<pdfrwt beam="2">  1       -2 0.14593259E-01 0.20077647E+03</pdfrwt>
<totfact> 0.18499059E+03</totfact>
</mgrwt>
</event>
<event>
 4    1  0.7245070E-001  0.1952013E+03  0.7546771E-02  0.1153852E+00
          2   -1    0    0  502    0  0.00000000000E+00  0.00000000000E+00  0.19531253143E+04  0.19531253143E+04  0.00000000000E+00 0. -1.
         -2   -1    0    0    0  501 -0.00000000000E+00 -0.00000000000E+00 -0.19688921488E+02  0.19688921488E+02  0.00000000000E+00 0.  1.
          6    1    1    2  502    0  0.25085321111E+01  0.90378487618E+02  0.87242924728E+03  0.89400019870E+03  0.17300000000E+03 0.  1.
         -6    1    1    2    0  501 -0.25085321111E+01 -0.90378487618E+02  0.10610071456E+04  0.10788140371E+04  0.17300000000E+03 0. -1.
<mgrwt>
<rscale>  2 0.19520134E+03</rscale>
<asrwt>0</asrwt>
<pdfrwt beam="1">  1        2 0.30048066E+00 0.19520134E+03</pdfrwt>
<pdfrwt beam="2">  1       -2 0.30290664E-02 0.19520134E+03</pdfrwt>
<totfact> 0.32838212E+03</totfact>
</mgrwt>
</event>
<event>
 4    1  0.7245070E-001  0.2027338E+03  0.7546771E-02  0.1147453E+00
         -2   -1    0    0    0  501 -0.00000000000E+00  0.00000000000E+00  0.34744774146E+02  0.34744774146E+02  0.00000000000E+00 0.  1.
          2   -1    0    0  502    0  0.00000000000E+00 -0.00000000000E+00 -0.11829983016E+04  0.11829983016E+04  0.00000000000E+00 0. -1.
          6    1    1    2  502    0 -0.14797383802E+02 -0.10465668307E+03 -0.56985316718E+03  0.60484181074E+03  0.17300000000E+03 0. -1.
         -6    1    1    2    0  501  0.14797383802E+02  0.10465668307E+03 -0.57840036030E+03  0.61290126503E+03  0.17300000000E+03 0.  1.
<mgrwt>
<rscale>  2 0.20273378E+03</rscale>
<asrwt>0</asrwt>
<pdfrwt beam="1">  1        2 0.18199972E+00 0.20273378E+03</pdfrwt>
<pdfrwt beam="2">  1       -2 0.53453506E-02 0.20273378E+03</pdfrwt>
<totfact> 0.35919108E+03</totfact>
</mgrwt>
</event>
<event>
 4    1  0.7245070E-001  0.1747696E+03  0.7546771E-02  0.1172963E+00
          1   -1    0    0  502    0  0.00000000000E+00  0.00000000000E+00  0.82774919985E+02  0.82774919985E+02  0.00000000000E+00 0.  1.
         -1   -1    0    0    0  501 -0.00000000000E+00 -0.00000000000E+00 -0.43338916751E+03  0.43338916751E+03  0.00000000000E+00 0. -1.
          6    1    1    2  502    0 -0.20876990730E+02  0.13399694382E+02 -0.27478044688E+03  0.32565118538E+03  0.17300000000E+03 0. -1.
         -6    1    1    2    0  501  0.20876990730E+02 -0.13399694382E+02 -0.75833800642E+02  0.19051290211E+03  0.17300000000E+03 0.  1.
<mgrwt>
<rscale>  2 0.17476956E+03</rscale>
<asrwt>0</asrwt>
<pdfrwt beam="1">  1        1 0.12734603E-01 0.17476956E+03</pdfrwt>
<pdfrwt beam="2">  1       -1 0.66675255E-01 0.17476956E+03</pdfrwt>
<totfact> 0.10851436E+03</totfact>
</mgrwt>
</event>
<event>
 4    1  0.7245070E-001  0.2196896E+03  0.7546771E-02  0.1134115E+00
         -1   -1    0    0    0  501 -0.00000000000E+00  0.00000000000E+00  0.34698241413E+03  0.34698241413E+03  0.00000000000E+00 0.  1.
          1   -1    0    0  502    0  0.00000000000E+00 -0.00000000000E+00 -0.16402071138E+03  0.16402071138E+03  0.00000000000E+00 0. -1.
          6    1    1    2  502    0  0.13073474428E+03 -0.35255706932E+02 -0.81210228253E+01  0.21983968988E+03  0.17300000000E+03 0. -1.
         -6    1    1    2    0  501 -0.13073474428E+03  0.35255706932E+02  0.19108272558E+03  0.29116343563E+03  0.17300000000E+03 0.  1.
<mgrwt>
<rscale>  2 0.21968964E+03</rscale>
<asrwt>0</asrwt>
<pdfrwt beam="1">  1        1 0.25233956E-01 0.21968964E+03</pdfrwt>
<pdfrwt beam="2">  1       -1 0.53381910E-01 0.21968964E+03</pdfrwt>
<totfact> 0.68788083E+02</totfact>
</mgrwt>
</event>
<event>
 4    1  0.7245070E-001  0.2214972E+03  0.7546771E-02  0.1132772E+00
         -2   -1    0    0    0  501 -0.00000000000E+00  0.00000000000E+00  0.17483735655E+03  0.17483735655E+03  0.00000000000E+00 0.  1.
          2   -1    0    0  502    0  0.00000000000E+00 -0.00000000000E+00 -0.38819378662E+03  0.38819378662E+03  0.00000000000E+00 0. -1.
          6    1    1    2  502    0  0.13096746843E+03  0.44491981039E+02 -0.25487973534E+03  0.33767542648E+03  0.17300000000E+03 0. -1.
         -6    1    1    2    0  501 -0.13096746843E+03 -0.44491981039E+02  0.41523305276E+02  0.22535571669E+03  0.17300000000E+03 0. -1.
<mgrwt>
<rscale>  2 0.22149721E+03</rscale>
<asrwt>0</asrwt>
<pdfrwt beam="1">  1        2 0.59722121E-01 0.22149721E+03</pdfrwt>
<pdfrwt beam="2">  1       -2 0.26898055E-01 0.22149721E+03</pdfrwt>
<totfact> 0.10280603E+03</totfact>
</mgrwt>
</event>
<event>
 4    1  0.7245070E-001  0.1829352E+03  0.7546771E-02  0.1164992E+00
          1   -1    0    0  502    0  0.00000000000E+00  0.00000000000E+00  0.51324664026E+03  0.51324664026E+03  0.00000000000E+00 0.  1.
         -1   -1    0    0    0  501 -0.00000000000E+00 -0.00000000000E+00 -0.28208416798E+03  0.28208416798E+03  0.00000000000E+00 0. -1.
          6    1    1    2  502    0  0.41790541622E+02  0.42306393585E+02 -0.23310857678E+03  0.29631889726E+03  0.17300000000E+03 0. -1.
         -6    1    1    2    0  501 -0.41790541622E+02 -0.42306393585E+02  0.46427104906E+03  0.49901191098E+03  0.17300000000E+03 0.  1.
<mgrwt>
<rscale>  2 0.18293518E+03</rscale>
<asrwt>0</asrwt>
<pdfrwt beam="1">  1        1 0.78961022E-01 0.18293518E+03</pdfrwt>
<pdfrwt beam="2">  1       -1 0.43397564E-01 0.18293518E+03</pdfrwt>
<totfact> 0.23722860E+02</totfact>
</mgrwt>
</event>
<event>
 4    1  0.7245070E-001  0.1984831E+03  0.7546771E-02  0.1151025E+00
         -2   -1    0    0    0  501 -0.00000000000E+00  0.00000000000E+00  0.19941671695E+02  0.19941671695E+02  0.00000000000E+00 0. -1.
          2   -1    0    0  502    0  0.00000000000E+00 -0.00000000000E+00 -0.19829485706E+04  0.19829485706E+04  0.00000000000E+00 0.  1.
          6    1    1    2  502    0 -0.93289400324E+02 -0.27634172686E+02 -0.10427178931E+04  0.10614406080E+04  0.17300000000E+03 0.  1.
         -6    1    1    2    0  501  0.93289400324E+02  0.27634172686E+02 -0.92028900572E+03  0.94144963421E+03  0.17300000000E+03 0. -1.
<mgrwt>
<rscale>  2 0.19848315E+03</rscale>
<asrwt>0</asrwt>
<pdfrwt beam="1">  1        2 0.30506900E+00 0.19848315E+03</pdfrwt>
<pdfrwt beam="2">  1       -2 0.30679496E-02 0.19848315E+03</pdfrwt>
<totfact> 0.31092322E+03</totfact>
</mgrwt>
</event>
<event>
 4    1  0.7245070E-001  0.1903412E+03  0.7546771E-02  0.1158154E+00
          3   -1    0    0  502    0  0.00000000000E+00  0.00000000000E+00  0.26076376696E+03  0.26076376696E+03  0.00000000000E+00 0.  1.
         -3   -1    0    0    0  501 -0.00000000000E+00 -0.00000000000E+00 -0.14752796314E+03  0.14752796314E+03  0.00000000000E+00 0. -1.
          6    1    1    2  502    0 -0.15609084324E+02 -0.77827553027E+02  0.10588090121E+03  0.21780848644E+03  0.17300000000E+03 0. -1.
         -6    1    1    2    0  501  0.15609084324E+02  0.77827553027E+02  0.73549026132E+01  0.19048324366E+03  0.17300000000E+03 0. -1.
<mgrwt>
<rscale>  2 0.19034120E+03</rscale>
<asrwt>0</asrwt>
<pdfrwt beam="1">  1        3 0.40117503E-01 0.19034120E+03</pdfrwt>
<pdfrwt beam="2">  1       -3 0.22696610E-01 0.19034120E+03</pdfrwt>
<totfact> 0.26850823E+02</totfact>
</mgrwt>
</event>
<event>
 4    1  0.7245070E-001  0.1817020E+03  0.7546771E-02  0.1166166E+00
         -2   -1    0    0    0  501 -0.00000000000E+00  0.00000000000E+00  0.10419865256E+02  0.10419865256E+02  0.00000000000E+00 0. -1.
          2   -1    0    0  502    0  0.00000000000E+00 -0.00000000000E+00 -0.34125703573E+04  0.34125703573E+04  0.00000000000E+00 0.  1.
          6    1    1    2  502    0 -0.25906941576E+02  0.49147098003E+02 -0.21587635862E+04  0.21663969692E+04  0.17300000000E+03 0. -1.
         -6    1    1    2    0  501  0.25906941576E+02 -0.49147098003E+02 -0.12433869058E+04  0.12565932534E+04  0.17300000000E+03 0. -1.
<mgrwt>
<rscale>  2 0.18170197E+03</rscale>
<asrwt>0</asrwt>
<pdfrwt beam="1">  1        2 0.52501050E+00 0.18170197E+03</pdfrwt>
<pdfrwt beam="2">  1       -2 0.16030572E-02 0.18170197E+03</pdfrwt>
<totfact> 0.12639927E+03</totfact>
</mgrwt>
</event>
<event>
 4    1  0.7245070E-001  0.1785802E+03  0.7546771E-02  0.1169184E+00
         -3   -1    0    0    0  501 -0.00000000000E+00  0.00000000000E+00  0.81777973285E+03  0.81777973285E+03  0.00000000000E+00 0. -1.
          3   -1    0    0  502    0  0.00000000000E+00 -0.00000000000E+00 -0.39079320096E+02  0.39079320096E+02  0.00000000000E+00 0.  1.
          6    1    1    2  502    0  0.23664403528E+02  0.37441752751E+02  0.40902345681E+03  0.44630827582E+03  0.17300000000E+03 0. -1.
         -6    1    1    2    0  501 -0.23664403528E+02 -0.37441752751E+02  0.36967695594E+03  0.41055077713E+03  0.17300000000E+03 0. -1.
<mgrwt>
<rscale>  2 0.17858020E+03</rscale>
<asrwt>0</asrwt>
<pdfrwt beam="1">  1        3 0.60122037E-02 0.17858020E+03</pdfrwt>
<pdfrwt beam="2">  1       -3 0.12581225E+00 0.17858020E+03</pdfrwt>
<totfact> 0.21619014E+02</totfact>
</mgrwt>
</event>
<event>
 4    1  0.7245070E-001  0.1738791E+03  0.7546771E-02  0.1173862E+00
          2   -1    0    0  502    0  0.00000000000E+00  0.00000000000E+00  0.12908860496E+04  0.12908860496E+04  0.00000000000E+00 0.  1.
         -2   -1    0    0    0  501 -0.00000000000E+00 -0.00000000000E+00 -0.24219468878E+02  0.24219468878E+02  0.00000000000E+00 0. -1.
          6    1    1    2  502    0  0.55713332266E+01  0.16549741538E+02  0.51394602361E+03  0.54256285247E+03  0.17300000000E+03 0.  1.
         -6    1    1    2    0  501 -0.55713332266E+01 -0.16549741538E+02  0.75272055709E+03  0.77254266598E+03  0.17300000000E+03 0.  1.
<mgrwt>
<rscale>  2 0.17387908E+03</rscale>
<asrwt>0</asrwt>
<pdfrwt beam="1">  1        2 0.19859780E+00 0.17387908E+03</pdfrwt>
<pdfrwt beam="2">  1       -2 0.37260731E-02 0.17387908E+03</pdfrwt>
<totfact> 0.53681020E+03</totfact>
</mgrwt>
</event>
<event>
 4    1  0.7245070E-001  0.2436780E+03  0.7546771E-02  0.1117367E+00
          2   -1    0    0  502    0  0.00000000000E+00  0.00000000000E+00  0.15916000086E+04  0.15916000086E+04  0.00000000000E+00 0.  1.
         -2   -1    0    0    0  501 -0.00000000000E+00 -0.00000000000E+00 -0.37858623490E+02  0.37858623490E+02  0.00000000000E+00 0. -1.
          6    1    1    2  502    0  0.33087145233E+02 -0.16839010772E+03  0.87515036986E+03  0.90844215964E+03  0.17300000000E+03 0. -1.
         -6    1    1    2    0  501 -0.33087145233E+02  0.16839010772E+03  0.67859101524E+03  0.72101647244E+03  0.17300000000E+03 0.  1.
<mgrwt>
<rscale>  2 0.24367804E+03</rscale>
<asrwt>0</asrwt>
<pdfrwt beam="1">  1        2 0.24486149E+00 0.24367804E+03</pdfrwt>
<pdfrwt beam="2">  1       -2 0.58244048E-02 0.24367804E+03</pdfrwt>
<totfact> 0.18911103E+03</totfact>
</mgrwt>
</event>
<event>
 4    1  0.7245070E-001  0.1757691E+03  0.7546771E-02  0.1171962E+00
         -2   -1    0    0    0  501 -0.00000000000E+00  0.00000000000E+00  0.15168422812E+02  0.15168422812E+02  0.00000000000E+00 0.  1.
          2   -1    0    0  502    0  0.00000000000E+00 -0.00000000000E+00 -0.21920103323E+04  0.21920103323E+04  0.00000000000E+00 0. -1.
          6    1    1    2  502    0  0.89803051930E+01  0.29750922278E+02 -0.79474230024E+03  0.81394722621E+03  0.17300000000E+03 0.  1.
         -6    1    1    2    0  501 -0.89803051930E+01 -0.29750922278E+02 -0.13820996093E+04  0.13932315290E+04  0.17300000000E+03 0. -1.
<mgrwt>
<rscale>  2 0.17576906E+03</rscale>
<asrwt>0</asrwt>
<pdfrwt beam="1">  1        2 0.33723222E+00 0.17576906E+03</pdfrwt>
<pdfrwt beam="2">  1       -2 0.23336044E-02 0.17576906E+03</pdfrwt>
<totfact> 0.36244069E+03</totfact>
</mgrwt>
</event>
<event>
 4    1  0.7245070E-001  0.2322836E+03  0.7546771E-02  0.1125043E+00
         -2   -1    0    0    0  501 -0.00000000000E+00  0.00000000000E+00  0.58163779955E+02  0.58163779955E+02  0.00000000000E+00 0. -1.
          2   -1    0    0  502    0  0.00000000000E+00 -0.00000000000E+00 -0.10275006026E+04  0.10275006026E+04  0.00000000000E+00 0.  1.
          6    1    1    2  502    0  0.70667354819E+02 -0.13795943899E+03 -0.65388696409E+03  0.69391919101E+03  0.17300000000E+03 0. -1.
         -6    1    1    2    0  501 -0.70667354819E+02  0.13795943899E+03 -0.31544985858E+03  0.39174519158E+03  0.17300000000E+03 0. -1.
<mgrwt>
<rscale>  2 0.23228362E+03</rscale>
<asrwt>0</asrwt>
<pdfrwt beam="1">  1        2 0.15807700E+00 0.23228362E+03</pdfrwt>
<pdfrwt beam="2">  1       -2 0.89482745E-02 0.23228362E+03</pdfrwt>
<totfact> 0.19977272E+03</totfact>
</mgrwt>
</event>
<event>
 4    1  0.7245070E-001  0.1924932E+03  0.7546771E-02  0.1156232E+00
         -2   -1    0    0    0  501 -0.00000000000E+00  0.00000000000E+00  0.24774201507E+03  0.24774201507E+03  0.00000000000E+00 0.  1.
          2   -1    0    0  502    0  0.00000000000E+00 -0.00000000000E+00 -0.16974893414E+03  0.16974893414E+03  0.00000000000E+00 0. -1.
          6    1    1    2  502    0 -0.38062429060E+02 -0.75338580448E+02 -0.32983390494E+02  0.19529862841E+03  0.17300000000E+03 0. -1.
         -6    1    1    2    0  501  0.38062429060E+02  0.75338580448E+02  0.11097647143E+03  0.22219232079E+03  0.17300000000E+03 0.  1.
<mgrwt>
<rscale>  2 0.19249325E+03</rscale>
<asrwt>0</asrwt>
<pdfrwt beam="1">  1        2 0.26115221E-01 0.19249325E+03</pdfrwt>
<pdfrwt beam="2">  1       -2 0.38114156E-01 0.19249325E+03</pdfrwt>
<totfact> 0.13261733E+03</totfact>
</mgrwt>
</event>
<event>
 4    1  0.7245070E-001  0.1811102E+03  0.7546771E-02  0.1166733E+00
         -3   -1    0    0    0  501 -0.00000000000E+00  0.00000000000E+00  0.97632412150E+03  0.97632412150E+03  0.00000000000E+00 0. -1.
          3   -1    0    0  502    0  0.00000000000E+00 -0.00000000000E+00 -0.34103575869E+02  0.34103575869E+02  0.00000000000E+00 0.  1.
          6    1    1    2  502    0  0.25151146411E+02  0.47321678456E+02  0.40949641694E+03  0.44775912822E+03  0.17300000000E+03 0.  1.
         -6    1    1    2    0  501 -0.25151146411E+02 -0.47321678456E+02  0.53272412870E+03  0.56266856916E+03  0.17300000000E+03 0. -1.
<mgrwt>
<rscale>  2 0.18111025E+03</rscale>
<asrwt>0</asrwt>
<pdfrwt beam="1">  1        3 0.52467047E-02 0.18111025E+03</pdfrwt>
<pdfrwt beam="2">  1       -3 0.15020369E+00 0.18111025E+03</pdfrwt>
<totfact> 0.17433374E+02</totfact>
</mgrwt>
</event>
<event>
 4    1  0.7245070E-001  0.3644305E+03  0.7546771E-02  0.1056843E+00
          2   -1    0    0  502    0  0.00000000000E+00  0.00000000000E+00  0.59444093617E+03  0.59444093617E+03  0.00000000000E+00 0. -1.
         -2   -1    0    0    0  501 -0.00000000000E+00 -0.00000000000E+00 -0.70257853785E+03  0.70257853785E+03  0.00000000000E+00 0.  1.
          6    1    1    2  502    0 -0.20191899688E+03  0.24921731998E+03  0.48149228410E+03  0.60385790839E+03  0.17300000000E+03 0. -1.
         -6    1    1    2    0  501  0.20191899688E+03 -0.24921731998E+03 -0.58962988577E+03  0.69316156564E+03  0.17300000000E+03 0.  1.
<mgrwt>
<rscale>  2 0.36443045E+03</rscale>
<asrwt>0</asrwt>
<pdfrwt beam="1">  1        2 0.91452452E-01 0.36443045E+03</pdfrwt>
<pdfrwt beam="2">  1       -2 0.10808901E+00 0.36443045E+03</pdfrwt>
<totfact> 0.36304354E+01</totfact>
</mgrwt>
</event>
<event>
 4    1  0.7245070E-001  0.1803005E+03  0.7546771E-02  0.1167512E+00
          2   -1    0    0  502    0  0.00000000000E+00  0.00000000000E+00  0.23829845646E+03  0.23829845646E+03  0.00000000000E+00 0. -1.
         -2   -1    0    0    0  501 -0.00000000000E+00 -0.00000000000E+00 -0.13653275885E+03  0.13653275885E+03  0.00000000000E+00 0.  1.
          6    1    1    2  502    0 -0.32975118741E+01 -0.50679494941E+02  0.45457885611E+02  0.18594274430E+03  0.17300000000E+03 0. -1.
         -6    1    1    2    0  501  0.32975118741E+01  0.50679494941E+02  0.56307811993E+02  0.18888847102E+03  0.17300000000E+03 0. -1.
<mgrwt>
<rscale>  2 0.18030054E+03</rscale>
<asrwt>0</asrwt>
<pdfrwt beam="1">  1        2 0.36661301E-01 0.18030054E+03</pdfrwt>
<pdfrwt beam="2">  1       -2 0.21005040E-01 0.18030054E+03</pdfrwt>
<totfact> 0.26633521E+03</totfact>
</mgrwt>
</event>
<event>
 4    1  0.7245070E-001  0.2591122E+03  0.7546771E-02  0.1107678E+00
         -1   -1    0    0    0  501 -0.00000000000E+00  0.00000000000E+00  0.11880417309E+03  0.11880417309E+03  0.00000000000E+00 0. -1.
          1   -1    0    0  502    0  0.00000000000E+00 -0.00000000000E+00 -0.71283687707E+03  0.71283687707E+03  0.00000000000E+00 0.  1.
          6    1    1    2  502    0 -0.19262376032E+03 -0.10307258598E+02 -0.10773002643E+03  0.28061523696E+03  0.17300000000E+03 0. -1.
         -6    1    1    2    0  501  0.19262376032E+03  0.10307258598E+02 -0.48630267756E+03  0.55102581321E+03  0.17300000000E+03 0.  1.
<mgrwt>
<rscale>  2 0.25911224E+03</rscale>
<asrwt>0</asrwt>
<pdfrwt beam="1">  1        1 0.10966721E+00 0.25911224E+03</pdfrwt>
<pdfrwt beam="2">  1       -1 0.18277565E-01 0.25911224E+03</pdfrwt>
<totfact> 0.64409316E+02</totfact>
</mgrwt>
</event>
<event>
 4    1  0.7245070E-001  0.1861561E+03  0.7546771E-02  0.1161975E+00
          2   -1    0    0  502    0  0.00000000000E+00  0.00000000000E+00  0.40476113453E+03  0.40476113453E+03  0.00000000000E+00 0. -1.
         -2   -1    0    0    0  501 -0.00000000000E+00 -0.00000000000E+00 -0.13060582987E+03  0.13060582987E+03  0.00000000000E+00 0.  1.
          6    1    1    2  502    0  0.18926999334E+02  0.66082364295E+02  0.29418500212E+03  0.34813636071E+03  0.17300000000E+03 0. -1.
         -6    1    1    2    0  501 -0.18926999334E+02 -0.66082364295E+02 -0.20029697463E+02  0.18723060368E+03  0.17300000000E+03 0.  1.
<mgrwt>
<rscale>  2 0.18615614E+03</rscale>
<asrwt>0</asrwt>
<pdfrwt beam="1">  1        2 0.62270943E-01 0.18615614E+03</pdfrwt>
<pdfrwt beam="2">  1       -2 0.20093205E-01 0.18615614E+03</pdfrwt>
<totfact> 0.16290435E+03</totfact>
</mgrwt>
</event>
<event>
 4    1  0.7245070E-001  0.2357656E+03  0.7546771E-02  0.1122646E+00
         -2   -1    0    0    0  501 -0.00000000000E+00  0.00000000000E+00  0.15327882717E+03  0.15327882717E+03  0.00000000000E+00 0.  1.
          2   -1    0    0  502    0  0.00000000000E+00 -0.00000000000E+00 -0.45525270509E+03  0.45525270509E+03  0.00000000000E+00 0. -1.
          6    1    1    2  502    0  0.99860036997E+01 -0.15986467100E+03 -0.13754747502E+02  0.23616652257E+03  0.17300000000E+03 0.  1.
         -6    1    1    2    0  501 -0.99860036997E+01  0.15986467100E+03 -0.28821913041E+03  0.37236500969E+03  0.17300000000E+03 0.  1.
<mgrwt>
<rscale>  2 0.23576563E+03</rscale>
<asrwt>0</asrwt>
<pdfrwt beam="1">  1        2 0.70038876E-01 0.23576563E+03</pdfrwt>
<pdfrwt beam="2">  1       -2 0.23581359E-01 0.23576563E+03</pdfrwt>
<totfact> 0.10905762E+03</totfact>
</mgrwt>
</event>
<event>
 4    1  0.7245070E-001  0.1771137E+03  0.7546771E-02  0.1170626E+00
          4   -1    0    0  502    0  0.00000000000E+00  0.00000000000E+00  0.27877170190E+03  0.27877170190E+03  0.00000000000E+00 0.  1.
         -4   -1    0    0    0  501 -0.00000000000E+00 -0.00000000000E+00 -0.13714043835E+03  0.13714043835E+03  0.00000000000E+00 0. -1.
          6    1    1    2  502    0 -0.21666335243E+02 -0.31158279421E+02 -0.17284659984E+02  0.17795512898E+03  0.17300000000E+03 0. -1.
         -6    1    1    2    0  501  0.21666335243E+02  0.31158279421E+02  0.15891592353E+03  0.23795701127E+03  0.17300000000E+03 0.  1.
<mgrwt>
<rscale>  2 0.17711372E+03</rscale>
<asrwt>0</asrwt>
<pdfrwt beam="1">  1        4 0.42887954E-01 0.17711372E+03</pdfrwt>
<pdfrwt beam="2">  1       -4 0.21098529E-01 0.17711372E+03</pdfrwt>
<totfact> 0.18914125E+02</totfact>
</mgrwt>
</event>
<event>
 4    1  0.7245070E-001  0.2563363E+03  0.7546771E-02  0.1109365E+00
          1   -1    0    0  502    0  0.00000000000E+00  0.00000000000E+00  0.10378608239E+04  0.10378608239E+04  0.00000000000E+00 0.  1.
         -1   -1    0    0    0  501 -0.00000000000E+00 -0.00000000000E+00 -0.81630396258E+02  0.81630396258E+02  0.00000000000E+00 0. -1.
          6    1    1    2  502    0  0.18906211640E+03  0.59007184502E+01  0.21294975875E+03  0.33325050951E+03  0.17300000000E+03 0. -1.
         -6    1    1    2    0  501 -0.18906211640E+03 -0.59007184502E+01  0.74328066893E+03  0.78624071069E+03  0.17300000000E+03 0.  1.
<mgrwt>
<rscale>  2 0.25633631E+03</rscale>
<asrwt>0</asrwt>
<pdfrwt beam="1">  1        1 0.15967089E+00 0.25633631E+03</pdfrwt>
<pdfrwt beam="2">  1       -1 0.12558523E-01 0.25633631E+03</pdfrwt>
<totfact> 0.64164542E+02</totfact>
</mgrwt>
</event>
<event>
 4    1  0.7245070E-001  0.2014452E+03  0.7546771E-02  0.1148525E+00
         -1   -1    0    0    0  501 -0.00000000000E+00  0.00000000000E+00  0.25449856857E+02  0.25449856857E+02  0.00000000000E+00 0. -1.
          1   -1    0    0  502    0  0.00000000000E+00 -0.00000000000E+00 -0.16813959879E+04  0.16813959879E+04  0.00000000000E+00 0.  1.
          6    1    1    2  502    0 -0.84314077169E+02 -0.59517234331E+02 -0.10219691758E+04  0.10416338901E+04  0.17300000000E+03 0.  1.
         -6    1    1    2    0  501  0.84314077169E+02  0.59517234331E+02 -0.63397695520E+03  0.66521195458E+03  0.17300000000E+03 0.  1.
<mgrwt>
<rscale>  2 0.20144519E+03</rscale>
<asrwt>0</asrwt>
<pdfrwt beam="1">  1        1 0.25867648E+00 0.20144519E+03</pdfrwt>
<pdfrwt beam="2">  1       -1 0.39153599E-02 0.20144519E+03</pdfrwt>
<totfact> 0.13851160E+03</totfact>
</mgrwt>
</event>
<event>
 4    1  0.7245070E-001  0.1994815E+03  0.7546771E-02  0.1150177E+00
          3   -1    0    0  502    0  0.00000000000E+00  0.00000000000E+00  0.41480216998E+03  0.41480216998E+03  0.00000000000E+00 0.  1.
         -3   -1    0    0    0  501 -0.00000000000E+00 -0.00000000000E+00 -0.95937270645E+02  0.95937270645E+02  0.00000000000E+00 0. -1.
          6    1    1    2  502    0 -0.91488784353E+02  0.38647946261E+02  0.15756563376E+03  0.25420422961E+03  0.17300000000E+03 0. -1.
         -6    1    1    2    0  501  0.91488784353E+02 -0.38647946261E+02  0.16129926558E+03  0.25653521101E+03  0.17300000000E+03 0.  1.
<mgrwt>
<rscale>  2 0.19948148E+03</rscale>
<asrwt>0</asrwt>
<pdfrwt beam="1">  1        3 0.63815718E-01 0.19948148E+03</pdfrwt>
<pdfrwt beam="2">  1       -3 0.14759580E-01 0.19948148E+03</pdfrwt>
<totfact> 0.22570797E+02</totfact>
</mgrwt>
</event>
<event>
 4    1  0.7245070E-001  0.3094608E+03  0.7546771E-02  0.1080605E+00
          2   -1    0    0  502    0  0.00000000000E+00  0.00000000000E+00  0.81220815908E+03  0.81220815908E+03  0.00000000000E+00 0.  1.
         -2   -1    0    0    0  501 -0.00000000000E+00 -0.00000000000E+00 -0.14497836148E+03  0.14497836148E+03  0.00000000000E+00 0. -1.
          6    1    1    2  502    0  0.24618531955E+03 -0.72317183248E+02  0.54041967338E+03  0.62275148328E+03  0.17300000000E+03 0.  1.
         -6    1    1    2    0  501 -0.24618531955E+03  0.72317183248E+02  0.12681012421E+03  0.33443503728E+03  0.17300000000E+03 0.  1.
<mgrwt>
<rscale>  2 0.30946080E+03</rscale>
<asrwt>0</asrwt>
<pdfrwt beam="1">  1        2 0.12495510E+00 0.30946080E+03</pdfrwt>
<pdfrwt beam="2">  1       -2 0.22304364E-01 0.30946080E+03</pdfrwt>
<totfact> 0.60641546E+02</totfact>
</mgrwt>
</event>
<event>
 4    1  0.7245070E-001  0.1910143E+03  0.7546771E-02  0.1157550E+00
         -2   -1    0    0    0  501 -0.00000000000E+00  0.00000000000E+00  0.20588116595E+03  0.20588116595E+03  0.00000000000E+00 0.  1.
          2   -1    0    0  502    0  0.00000000000E+00 -0.00000000000E+00 -0.22296451887E+03  0.22296451887E+03  0.00000000000E+00 0. -1.
          6    1    1    2  502    0  0.63533277839E+02  0.50209309596E+02  0.88580471022E+02  0.21055391711E+03  0.17300000000E+03 0.  1.
         -6    1    1    2    0  501 -0.63533277839E+02 -0.50209309596E+02 -0.10566382393E+03  0.21829176771E+03  0.17300000000E+03 0. -1.
<mgrwt>
<rscale>  2 0.19101427E+03</rscale>
<asrwt>0</asrwt>
<pdfrwt beam="1">  1        2 0.34302234E-01 0.19101427E+03</pdfrwt>
<pdfrwt beam="2">  1       -2 0.31674026E-01 0.19101427E+03</pdfrwt>
<totfact> 0.13870989E+03</totfact>
</mgrwt>
</event>
<event>
 4    1  0.7245070E-001  0.1904390E+03  0.7546771E-02  0.1158066E+00
         -2   -1    0    0    0  501 -0.00000000000E+00  0.00000000000E+00  0.88253221838E+02  0.88253221838E+02  0.00000000000E+00 0. -1.
          2   -1    0    0  502    0  0.00000000000E+00 -0.00000000000E+00 -0.80091427894E+03  0.80091427894E+03  0.00000000000E+00 0.  1.
          6    1    1    2  502    0  0.73513902484E+02 -0.30556751014E+02 -0.46105310736E+02  0.19594057408E+03  0.17300000000E+03 0. -1.
         -6    1    1    2    0  501 -0.73513902484E+02  0.30556751014E+02 -0.66655574636E+03  0.69322692670E+03  0.17300000000E+03 0.  1.
<mgrwt>
<rscale>  2 0.19043899E+03</rscale>
<asrwt>0</asrwt>
<pdfrwt beam="1">  1        2 0.12321758E+00 0.19043899E+03</pdfrwt>
<pdfrwt beam="2">  1       -2 0.13577419E-01 0.19043899E+03</pdfrwt>
<totfact> 0.14281889E+03</totfact>
</mgrwt>
</event>
<event>
 4    1  0.7245070E-001  0.1944073E+03  0.7546771E-02  0.1154545E+00
          1   -1    0    0  502    0  0.00000000000E+00  0.00000000000E+00  0.20542677889E+04  0.20542677889E+04  0.00000000000E+00 0. -1.
         -1   -1    0    0    0  501 -0.00000000000E+00 -0.00000000000E+00 -0.18697192528E+02  0.18697192528E+02  0.00000000000E+00 0.  1.
          6    1    1    2  502    0 -0.34654400599E+02  0.81634893108E+02  0.11489244403E+04  0.11652560031E+04  0.17300000000E+03 0. -1.
         -6    1    1    2    0  501  0.34654400599E+02 -0.81634893108E+02  0.88664615613E+03  0.90770897838E+03  0.17300000000E+03 0.  1.
<mgrwt>
<rscale>  2 0.19440726E+03</rscale>
<asrwt>0</asrwt>
<pdfrwt beam="1">  1        1 0.31604102E+00 0.19440726E+03</pdfrwt>
<pdfrwt beam="2">  1       -1 0.28764928E-02 0.19440726E+03</pdfrwt>
<totfact> 0.12558577E+03</totfact>
</mgrwt>
</event>
<event>
 4    1  0.7245070E-001  0.1801625E+03  0.7546771E-02  0.1167646E+00
         -1   -1    0    0    0  501 -0.00000000000E+00  0.00000000000E+00  0.14424776705E+03  0.14424776705E+03  0.00000000000E+00 0.  1.
          1   -1    0    0  502    0  0.00000000000E+00 -0.00000000000E+00 -0.22831650737E+03  0.22831650737E+03  0.00000000000E+00 0. -1.
          6    1    1    2  502    0  0.22186818704E+02  0.45136259929E+02 -0.19648537169E+02  0.18123079732E+03  0.17300000000E+03 0. -1.
         -6    1    1    2    0  501 -0.22186818704E+02 -0.45136259929E+02 -0.64420203146E+02  0.19133347710E+03  0.17300000000E+03 0. -1.
<mgrwt>
<rscale>  2 0.18016253E+03</rscale>
<asrwt>0</asrwt>
<pdfrwt beam="1">  1        1 0.35125616E-01 0.18016253E+03</pdfrwt>
<pdfrwt beam="2">  1       -1 0.22191964E-01 0.18016253E+03</pdfrwt>
<totfact> 0.20743995E+03</totfact>
</mgrwt>
</event>
<event>
 4    1  0.7245070E-001  0.2123669E+03  0.7546771E-02  0.1139705E+00
          1   -1    0    0  502    0  0.00000000000E+00  0.00000000000E+00  0.68122254838E+03  0.68122254838E+03  0.00000000000E+00 0. -1.
         -1   -1    0    0    0  501 -0.00000000000E+00 -0.00000000000E+00 -0.68658525087E+02  0.68658525087E+02  0.00000000000E+00 0.  1.
          6    1    1    2  502    0  0.10548269107E+03  0.63593140283E+02  0.37717369051E+03  0.43285064216E+03  0.17300000000E+03 0. -1.
         -6    1    1    2    0  501 -0.10548269107E+03 -0.63593140283E+02  0.23539033278E+03  0.31703043130E+03  0.17300000000E+03 0.  1.
<mgrwt>
<rscale>  2 0.21236687E+03</rscale>
<asrwt>0</asrwt>
<pdfrwt beam="1">  1        1 0.10480346E+00 0.21236687E+03</pdfrwt>
<pdfrwt beam="2">  1       -1 0.10562851E-01 0.21236687E+03</pdfrwt>
<totfact> 0.16366970E+03</totfact>
</mgrwt>
</event>
<event>
 4    1  0.7245070E-001  0.2898519E+03  0.7546771E-02  0.1090426E+00
         -2   -1    0    0    0  501 -0.00000000000E+00  0.00000000000E+00  0.70680359908E+02  0.70680359908E+02  0.00000000000E+00 0.  1.
          2   -1    0    0  502    0  0.00000000000E+00 -0.00000000000E+00 -0.14116266368E+04  0.14116266368E+04  0.00000000000E+00 0. -1.
          6    1    1    2  502    0 -0.22440856279E+03  0.61040519768E+02 -0.96503652950E+03  0.10076257497E+04  0.17300000000E+03 0. -1.
         -6    1    1    2    0  501  0.22440856279E+03 -0.61040519768E+02 -0.37590974735E+03  0.47468124700E+03  0.17300000000E+03 0.  1.
<mgrwt>
<rscale>  2 0.28985194E+03</rscale>
<asrwt>0</asrwt>
<pdfrwt beam="1">  1        2 0.21717332E+00 0.28985194E+03</pdfrwt>
<pdfrwt beam="2">  1       -2 0.10873902E-01 0.28985194E+03</pdfrwt>
<totfact> 0.88398474E+02</totfact>
</mgrwt>
</event>
<event>
 4    1  0.7245070E-001  0.2747747E+03  0.7546771E-02  0.1098578E+00
         -3   -1    0    0    0  501 -0.00000000000E+00  0.00000000000E+00  0.25869067395E+03  0.25869067395E+03  0.00000000000E+00 0.  1.
          3   -1    0    0  502    0  0.00000000000E+00 -0.00000000000E+00 -0.29524278565E+03  0.29524278565E+03  0.00000000000E+00 0. -1.
          6    1    1    2  502    0 -0.66869040584E+02 -0.20273301812E+03 -0.47928009725E+02  0.27892335746E+03  0.17300000000E+03 0. -1.
         -6    1    1    2    0  501  0.66869040584E+02  0.20273301812E+03  0.11375898027E+02  0.27501010214E+03  0.17300000000E+03 0.  1.
<mgrwt>
<rscale>  2 0.27477472E+03</rscale>
<asrwt>0</asrwt>
<pdfrwt beam="1">  1        3 0.45421967E-01 0.27477472E+03</pdfrwt>
<pdfrwt beam="2">  1       -3 0.39798566E-01 0.27477472E+03</pdfrwt>
<totfact> 0.76000941E+01</totfact>
</mgrwt>
</event>
<event>
 4    1  0.7245070E-001  0.3007713E+03  0.7546771E-02  0.1084856E+00
         -2   -1    0    0    0  501 -0.00000000000E+00  0.00000000000E+00  0.51293931452E+02  0.51293931452E+02  0.00000000000E+00 0. -1.
          2   -1    0    0  502    0  0.00000000000E+00 -0.00000000000E+00 -0.17919899518E+04  0.17919899518E+04  0.00000000000E+00 0.  1.
          6    1    1    2  502    0 -0.22730862893E+03 -0.94155014855E+02 -0.98629716748E+03  0.10311379550E+04  0.17300000000E+03 0.  1.
         -6    1    1    2    0  501  0.22730862893E+03  0.94155014855E+02 -0.75439885287E+03  0.81214592828E+03  0.17300000000E+03 0.  1.
<mgrwt>
<rscale>  2 0.30077131E+03</rscale>
<asrwt>0</asrwt>
<pdfrwt beam="1">  1        2 0.27569077E+00 0.30077131E+03</pdfrwt>
<pdfrwt beam="2">  1       -2 0.78913738E-02 0.30077131E+03</pdfrwt>
<totfact> 0.92112538E+02</totfact>
</mgrwt>
</event>
<event>
 4    1  0.7245070E-001  0.2681632E+03  0.7546771E-02  0.1102336E+00
          2   -1    0    0  502    0  0.00000000000E+00  0.00000000000E+00  0.90033743967E+03  0.90033743967E+03  0.00000000000E+00 0. -1.
         -2   -1    0    0    0  501 -0.00000000000E+00 -0.00000000000E+00 -0.79899250117E+02  0.79899250117E+02  0.00000000000E+00 0.  1.
          6    1    1    2  502    0 -0.16406594532E+03 -0.12273892027E+03  0.41932104303E+03  0.49773649061E+03  0.17300000000E+03 0. -1.
         -6    1    1    2    0  501  0.16406594532E+03  0.12273892027E+03  0.40111714653E+03  0.48250019917E+03  0.17300000000E+03 0.  1.
<mgrwt>
<rscale>  2 0.26816315E+03</rscale>
<asrwt>0</asrwt>
<pdfrwt beam="1">  1        2 0.13851344E+00 0.26816315E+03</pdfrwt>
<pdfrwt beam="2">  1       -2 0.12292193E-01 0.26816315E+03</pdfrwt>
<totfact> 0.14438299E+03</totfact>
</mgrwt>
</event>
<event>
 4    1  0.7245070E-001  0.1826871E+03  0.7546771E-02  0.1165227E+00
         -1   -1    0    0    0  501 -0.00000000000E+00  0.00000000000E+00  0.95363799741E+02  0.95363799741E+02  0.00000000000E+00 0.  1.
          1   -1    0    0  502    0  0.00000000000E+00 -0.00000000000E+00 -0.38764262926E+03  0.38764262926E+03  0.00000000000E+00 0. -1.
          6    1    1    2  502    0 -0.10458700054E+02 -0.57759876537E+02 -0.70853637469E+02  0.19594597645E+03  0.17300000000E+03 0.  1.
         -6    1    1    2    0  501  0.10458700054E+02  0.57759876537E+02 -0.22142519205E+03  0.28706045255E+03  0.17300000000E+03 0. -1.
<mgrwt>
<rscale>  2 0.18268713E+03</rscale>
<asrwt>0</asrwt>
<pdfrwt beam="1">  1        1 0.59637327E-01 0.18268713E+03</pdfrwt>
<pdfrwt beam="2">  1       -1 0.14671354E-01 0.18268713E+03</pdfrwt>
<totfact> 0.20760843E+03</totfact>
</mgrwt>
</event>
<event>
 4    1  0.7245070E-001  0.1818485E+03  0.7546771E-02  0.1166026E+00
         -2   -1    0    0    0  501 -0.00000000000E+00  0.00000000000E+00  0.72905244622E+02  0.72905244622E+02  0.00000000000E+00 0.  1.
          2   -1    0    0  502    0  0.00000000000E+00 -0.00000000000E+00 -0.56774356697E+03  0.56774356697E+03  0.00000000000E+00 0. -1.
          6    1    1    2  502    0 -0.17601215527E+02  0.53198495393E+02 -0.10378290799E+03  0.20937949921E+03  0.17300000000E+03 0.  1.
         -6    1    1    2    0  501  0.17601215527E+02 -0.53198495393E+02 -0.39105541436E+03  0.43126931238E+03  0.17300000000E+03 0. -1.
<mgrwt>
<rscale>  2 0.18184852E+03</rscale>
<asrwt>0</asrwt>
<pdfrwt beam="1">  1        2 0.87345163E-01 0.18184852E+03</pdfrwt>
<pdfrwt beam="2">  1       -2 0.11216192E-01 0.18184852E+03</pdfrwt>
<totfact> 0.29267055E+03</totfact>
</mgrwt>
</event>
<event>
 4    1  0.7245070E-001  0.2721228E+03  0.7546771E-02  0.1100071E+00
         -2   -1    0    0    0  501 -0.00000000000E+00  0.00000000000E+00  0.56702623371E+03  0.56702623371E+03  0.00000000000E+00 0. -1.
          2   -1    0    0  502    0  0.00000000000E+00 -0.00000000000E+00 -0.13119606938E+03  0.13119606938E+03  0.00000000000E+00 0.  1.
          6    1    1    2  502    0 -0.10308927675E+03  0.18301477502E+03  0.24154463503E+03  0.36386071177E+03  0.17300000000E+03 0. -1.
         -6    1    1    2    0  501  0.10308927675E+03 -0.18301477502E+03  0.19428552930E+03  0.33436159132E+03  0.17300000000E+03 0.  1.
<mgrwt>
<rscale>  2 0.27212278E+03</rscale>
<asrwt>0</asrwt>
<pdfrwt beam="1">  1        2 0.20184011E-01 0.27212278E+03</pdfrwt>
<pdfrwt beam="2">  1       -2 0.87234804E-01 0.27212278E+03</pdfrwt>
<totfact> 0.32342335E+02</totfact>
</mgrwt>
</event>
<event>
 4    1  0.7245070E-001  0.1945107E+03  0.7546771E-02  0.1154455E+00
          2   -1    0    0  502    0  0.00000000000E+00  0.00000000000E+00  0.23259095108E+04  0.23259095108E+04  0.00000000000E+00 0. -1.
         -2   -1    0    0    0  501 -0.00000000000E+00 -0.00000000000E+00 -0.16278329563E+02  0.16278329563E+02  0.00000000000E+00 0.  1.
          6    1    1    2  502    0 -0.46326335374E+02 -0.75890003808E+02  0.11232544283E+04  0.11399714613E+04  0.17300000000E+03 0. -1.
         -6    1    1    2    0  501  0.46326335374E+02  0.75890003808E+02  0.11863767530E+04  0.12022163791E+04  0.17300000000E+03 0.  1.
<mgrwt>
<rscale>  2 0.19451072E+03</rscale>
<asrwt>0</asrwt>
<pdfrwt beam="1">  1        2 0.35783197E+00 0.19451072E+03</pdfrwt>
<pdfrwt beam="2">  1       -2 0.25043602E-02 0.19451072E+03</pdfrwt>
<totfact> 0.27747975E+03</totfact>
</mgrwt>
</event>
<event>
 4    1  0.7245070E-001  0.2024830E+03  0.7546771E-02  0.1147661E+00
         -1   -1    0    0    0  501 -0.00000000000E+00  0.00000000000E+00  0.37726466765E+02  0.37726466765E+02  0.00000000000E+00 0. -1.
          1   -1    0    0  502    0  0.00000000000E+00 -0.00000000000E+00 -0.10867625336E+04  0.10867625336E+04  0.00000000000E+00 0.  1.
          6    1    1    2  502    0  0.42343817837E+02  0.96318985485E+02 -0.52284108144E+03  0.56068007127E+03  0.17300000000E+03 0. -1.
         -6    1    1    2    0  501 -0.42343817837E+02 -0.96318985485E+02 -0.52619498535E+03  0.56380892905E+03  0.17300000000E+03 0.  1.
<mgrwt>
<rscale>  2 0.20248295E+03</rscale>
<asrwt>0</asrwt>
<pdfrwt beam="1">  1        1 0.16719421E+00 0.20248295E+03</pdfrwt>
<pdfrwt beam="2">  1       -1 0.58040726E-02 0.20248295E+03</pdfrwt>
<totfact> 0.19345173E+03</totfact>
</mgrwt>
</event>
<event>
 4    1  0.7245070E-001  0.1890800E+03  0.7546771E-02  0.1159294E+00
         -2   -1    0    0    0  501 -0.00000000000E+00  0.00000000000E+00  0.21082537202E+02  0.21082537202E+02  0.00000000000E+00 0.  1.
          2   -1    0    0  502    0  0.00000000000E+00 -0.00000000000E+00 -0.16958808850E+04  0.16958808850E+04  0.00000000000E+00 0. -1.
          6    1    1    2  502    0  0.75520339461E+02 -0.10905459828E+02 -0.83063276834E+03  0.85188147448E+03  0.17300000000E+03 0.  1.
         -6    1    1    2    0  501 -0.75520339461E+02  0.10905459828E+02 -0.84416557944E+03  0.86508194770E+03  0.17300000000E+03 0. -1.
<mgrwt>
<rscale>  2 0.18908001E+03</rscale>
<asrwt>0</asrwt>
<pdfrwt beam="1">  1        2 0.26090482E+00 0.18908001E+03</pdfrwt>
<pdfrwt beam="2">  1       -2 0.32434664E-02 0.18908001E+03</pdfrwt>
<totfact> 0.40331727E+03</totfact>
</mgrwt>
</event>
<event>
 4    1  0.7245070E-001  0.1836645E+03  0.7546771E-02  0.1164303E+00
          1   -1    0    0  502    0  0.00000000000E+00  0.00000000000E+00  0.12529384583E+04  0.12529384583E+04  0.00000000000E+00 0.  1.
         -1   -1    0    0    0  501 -0.00000000000E+00 -0.00000000000E+00 -0.27642947311E+02  0.27642947311E+02  0.00000000000E+00 0. -1.
          6    1    1    2  502    0  0.60883563455E+02 -0.98400115396E+01  0.50930256857E+03  0.54140718547E+03  0.17300000000E+03 0. -1.
         -6    1    1    2    0  501 -0.60883563455E+02  0.98400115396E+01  0.71599294238E+03  0.73917422010E+03  0.17300000000E+03 0.  1.
<mgrwt>
<rscale>  2 0.18366446E+03</rscale>
<asrwt>0</asrwt>
<pdfrwt beam="1">  1        1 0.19275972E+00 0.18366446E+03</pdfrwt>
<pdfrwt beam="2">  1       -1 0.42527621E-02 0.18366446E+03</pdfrwt>
<totfact> 0.23524520E+03</totfact>
</mgrwt>
</event>
<event>
 4    1  0.7245070E-001  0.2825635E+03  0.7546771E-02  0.1094297E+00
         -1   -1    0    0    0  501 -0.00000000000E+00  0.00000000000E+00  0.27283553163E+03  0.27283553163E+03  0.00000000000E+00 0.  1.
          1   -1    0    0  502    0  0.00000000000E+00 -0.00000000000E+00 -0.67424611155E+03  0.67424611155E+03  0.00000000000E+00 0. -1.
          6    1    1    2  502    0  0.22332831383E+03  0.61299479091E+01  0.15554633637E+03  0.32254732176E+03  0.17300000000E+03 0.  1.
         -6    1    1    2    0  501 -0.22332831383E+03 -0.61299479091E+01 -0.55695691629E+03  0.62453432142E+03  0.17300000000E+03 0. -1.
<mgrwt>
<rscale>  2 0.28256347E+03</rscale>
<asrwt>0</asrwt>
<pdfrwt beam="1">  1        1 0.10373017E+00 0.28256347E+03</pdfrwt>
<pdfrwt beam="2">  1       -1 0.41974698E-01 0.28256347E+03</pdfrwt>
<totfact> 0.17015812E+02</totfact>
</mgrwt>
</event>
<event>
 4    1  0.7245070E-001  0.1819397E+03  0.7546771E-02  0.1165939E+00
          2   -1    0    0  502    0  0.00000000000E+00  0.00000000000E+00  0.32606754666E+03  0.32606754666E+03  0.00000000000E+00 0. -1.
         -2   -1    0    0    0  501 -0.00000000000E+00 -0.00000000000E+00 -0.10179124277E+03  0.10179124277E+03  0.00000000000E+00 0.  1.
          6    1    1    2  502    0  0.56199835246E+02 -0.38239508813E+01  0.10107418127E+03  0.20812984937E+03  0.17300000000E+03 0.  1.
         -6    1    1    2    0  501 -0.56199835246E+02  0.38239508813E+01  0.12320212262E+03  0.21972894006E+03  0.17300000000E+03 0.  1.
<mgrwt>
<rscale>  2 0.18193967E+03</rscale>
<asrwt>0</asrwt>
<pdfrwt beam="1">  1        2 0.50164238E-01 0.18193967E+03</pdfrwt>
<pdfrwt beam="2">  1       -2 0.15660191E-01 0.18193967E+03</pdfrwt>
<totfact> 0.31202797E+03</totfact>
</mgrwt>
</event>
<event>
 4    1  0.7245070E-001  0.1949848E+03  0.7546771E-02  0.1154041E+00
          2   -1    0    0  502    0  0.00000000000E+00  0.00000000000E+00  0.40940330591E+03  0.40940330591E+03  0.00000000000E+00 0. -1.
         -2   -1    0    0    0  501 -0.00000000000E+00 -0.00000000000E+00 -0.93658010571E+02  0.93658010571E+02  0.00000000000E+00 0.  1.
          6    1    1    2  502    0 -0.79512186080E+02  0.42046226843E+02  0.18102357189E+03  0.26606128337E+03  0.17300000000E+03 0.  1.
         -6    1    1    2    0  501  0.79512186080E+02 -0.42046226843E+02  0.13472172344E+03  0.23700003311E+03  0.17300000000E+03 0.  1.
<mgrwt>
<rscale>  2 0.19498480E+03</rscale>
<asrwt>0</asrwt>
<pdfrwt beam="1">  1        2 0.62985123E-01 0.19498480E+03</pdfrwt>
<pdfrwt beam="2">  1       -2 0.14408925E-01 0.19498480E+03</pdfrwt>
<totfact> 0.28086035E+03</totfact>
</mgrwt>
</event>
<event>
 4    1  0.7245070E-001  0.2173656E+03  0.7546771E-02  0.1135862E+00
         -2   -1    0    0    0  501 -0.00000000000E+00  0.00000000000E+00  0.23170264537E+02  0.23170264537E+02  0.00000000000E+00 0. -1.
          2   -1    0    0  502    0  0.00000000000E+00 -0.00000000000E+00 -0.21090229467E+04  0.21090229467E+04  0.00000000000E+00 0.  1.
          6    1    1    2  502    0 -0.10057016423E+03 -0.84879026092E+02 -0.84888748827E+03  0.87627494243E+03  0.17300000000E+03 0. -1.
         -6    1    1    2    0  501  0.10057016423E+03  0.84879026092E+02 -0.12369651939E+04  0.12559182688E+04  0.17300000000E+03 0.  1.
<mgrwt>
<rscale>  2 0.21736561E+03</rscale>
<asrwt>0</asrwt>
<pdfrwt beam="1">  1        2 0.32446504E+00 0.21736561E+03</pdfrwt>
<pdfrwt beam="2">  1       -2 0.35646564E-02 0.21736561E+03</pdfrwt>
<totfact> 0.21347100E+03</totfact>
</mgrwt>
</event>
<event>
 4    1  0.7245070E-001  0.2722114E+03  0.7546771E-02  0.1100021E+00
         -1   -1    0    0    0  501 -0.00000000000E+00  0.00000000000E+00  0.83289067085E+02  0.83289067085E+02  0.00000000000E+00 0. -1.
          1   -1    0    0  502    0  0.00000000000E+00 -0.00000000000E+00 -0.10182197137E+04  0.10182197137E+04  0.00000000000E+00 0.  1.
          6    1    1    2  502    0  0.17837281080E+03 -0.11114498012E+03 -0.66316375130E+03  0.71685788500E+03  0.17300000000E+03 0.  1.
         -6    1    1    2    0  501 -0.17837281080E+03  0.11114498012E+03 -0.27176689528E+03  0.38465089576E+03  0.17300000000E+03 0. -1.
<mgrwt>
<rscale>  2 0.27221144E+03</rscale>
<asrwt>0</asrwt>
<pdfrwt beam="1">  1        1 0.15664919E+00 0.27221144E+03</pdfrwt>
<pdfrwt beam="2">  1       -1 0.12813702E-01 0.27221144E+03</pdfrwt>
<totfact> 0.64209577E+02</totfact>
</mgrwt>
</event>
<event>
 4    1  0.7245070E-001  0.2298756E+03  0.7546771E-02  0.1126727E+00
          1   -1    0    0  502    0  0.00000000000E+00  0.00000000000E+00  0.26371071465E+03  0.26371071465E+03  0.00000000000E+00 0.  1.
         -1   -1    0    0    0  501 -0.00000000000E+00 -0.00000000000E+00 -0.20038503936E+03  0.20038503936E+03  0.00000000000E+00 0. -1.
          6    1    1    2  502    0  0.14852073245E+03  0.29247204881E+02  0.32607069508E+02  0.23217671706E+03  0.17300000000E+03 0.  1.
         -6    1    1    2    0  501 -0.14852073245E+03 -0.29247204881E+02  0.30718605779E+02  0.23191903696E+03  0.17300000000E+03 0.  1.
<mgrwt>
<rscale>  2 0.22987563E+03</rscale>
<asrwt>0</asrwt>
<pdfrwt beam="1">  1        1 0.40570880E-01 0.22987563E+03</pdfrwt>
<pdfrwt beam="2">  1       -1 0.30828467E-01 0.22987563E+03</pdfrwt>
<totfact> 0.10058849E+03</totfact>
</mgrwt>
</event>
<event>
 4    1  0.7245070E-001  0.1883461E+03  0.7546771E-02  0.1159962E+00
          2   -1    0    0  502    0  0.00000000000E+00  0.00000000000E+00  0.76144942686E+03  0.76144942686E+03  0.00000000000E+00 0.  1.
         -2   -1    0    0    0  501 -0.00000000000E+00 -0.00000000000E+00 -0.46798412778E+02  0.46798412778E+02  0.00000000000E+00 0. -1.
          6    1    1    2  502    0 -0.73501153950E+02 -0.11951308663E+02  0.38443626259E+03  0.42809519199E+03  0.17300000000E+03 0. -1.
         -6    1    1    2    0  501  0.73501153950E+02  0.11951308663E+02  0.33021475149E+03  0.38015264765E+03  0.17300000000E+03 0.  1.
<mgrwt>
<rscale>  2 0.18834610E+03</rscale>
<asrwt>0</asrwt>
<pdfrwt beam="1">  1        2 0.11714606E+00 0.18834610E+03</pdfrwt>
<pdfrwt beam="2">  1       -2 0.71997564E-02 0.18834610E+03</pdfrwt>
<totfact> 0.41538742E+03</totfact>
</mgrwt>
</event>
<event>
 4    1  0.7245070E-001  0.1779658E+03  0.7546771E-02  0.1169786E+00
          2   -1    0    0  502    0  0.00000000000E+00  0.00000000000E+00  0.27900494042E+04  0.27900494042E+04  0.00000000000E+00 0.  1.
         -2   -1    0    0    0  501 -0.00000000000E+00 -0.00000000000E+00 -0.11446939328E+02  0.11446939328E+02  0.00000000000E+00 0. -1.
          6    1    1    2  502    0  0.38987389562E+02 -0.14926692238E+02  0.12615373446E+04  0.12740283728E+04  0.17300000000E+03 0.  1.
         -6    1    1    2    0  501 -0.38987389562E+02  0.14926692238E+02  0.15170651203E+04  0.15274679708E+04  0.17300000000E+03 0. -1.
<mgrwt>
<rscale>  2 0.17796579E+03</rscale>
<asrwt>0</asrwt>
<pdfrwt beam="1">  1        2 0.42923783E+00 0.17796579E+03</pdfrwt>
<pdfrwt beam="2">  1       -2 0.17610698E-02 0.17796579E+03</pdfrwt>
<totfact> 0.25991093E+03</totfact>
</mgrwt>
</event>
<event>
 4    1  0.7245070E-001  0.2133176E+03  0.7546771E-02  0.1138965E+00
          1   -1    0    0  502    0  0.00000000000E+00  0.00000000000E+00  0.25331515657E+03  0.25331515657E+03  0.00000000000E+00 0. -1.
         -1   -1    0    0    0  501 -0.00000000000E+00 -0.00000000000E+00 -0.18812875002E+03  0.18812875002E+03  0.00000000000E+00 0.  1.
          6    1    1    2  502    0 -0.67392894875E+01 -0.12461929667E+03 -0.14304942862E+02  0.21379667564E+03  0.17300000000E+03 0.  1.
         -6    1    1    2    0  501  0.67392894875E+01  0.12461929667E+03  0.79491349421E+02  0.22764723095E+03  0.17300000000E+03 0. -1.
<mgrwt>
<rscale>  2 0.21331757E+03</rscale>
<asrwt>0</asrwt>
<pdfrwt beam="1">  1        1 0.38971563E-01 0.21331757E+03</pdfrwt>
<pdfrwt beam="2">  1       -1 0.28942884E-01 0.21331757E+03</pdfrwt>
<totfact> 0.11764989E+03</totfact>
</mgrwt>
</event>
<event>
 4    1  0.7245070E-001  0.1910580E+03  0.7546771E-02  0.1157511E+00
          1   -1    0    0  502    0  0.00000000000E+00  0.00000000000E+00  0.14930172774E+03  0.14930172774E+03  0.00000000000E+00 0. -1.
         -1   -1    0    0    0  501 -0.00000000000E+00 -0.00000000000E+00 -0.45100830765E+03  0.45100830765E+03  0.00000000000E+00 0.  1.
          6    1    1    2  502    0  0.36368198030E+01  0.80999570146E+02  0.52256079454E+02  0.19807537621E+03  0.17300000000E+03 0. -1.
         -6    1    1    2    0  501 -0.36368198030E+01 -0.80999570146E+02 -0.35396265936E+03  0.40223465918E+03  0.17300000000E+03 0.  1.
<mgrwt>
<rscale>  2 0.19105799E+03</rscale>
<asrwt>0</asrwt>
<pdfrwt beam="1">  1        1 0.22969497E-01 0.19105799E+03</pdfrwt>
<pdfrwt beam="2">  1       -1 0.69385892E-01 0.19105799E+03</pdfrwt>
<totfact> 0.46784484E+02</totfact>
</mgrwt>
</event>
<event>
 4    1  0.7245070E-001  0.1808071E+03  0.7546771E-02  0.1167024E+00
          1   -1    0    0  502    0  0.00000000000E+00  0.00000000000E+00  0.34411799432E+03  0.34411799432E+03  0.00000000000E+00 0.  1.
         -1   -1    0    0    0  501 -0.00000000000E+00 -0.00000000000E+00 -0.11421687767E+03  0.11421687767E+03  0.00000000000E+00 0. -1.
          6    1    1    2  502    0 -0.33413467194E+02 -0.40567926940E+02  0.20895079475E+03  0.27631802531E+03  0.17300000000E+03 0. -1.
         -6    1    1    2    0  501  0.33413467194E+02  0.40567926940E+02  0.20950321901E+02  0.18201684668E+03  0.17300000000E+03 0. -1.
<mgrwt>
<rscale>  2 0.18080713E+03</rscale>
<asrwt>0</asrwt>
<pdfrwt beam="1">  1        1 0.52941229E-01 0.18080713E+03</pdfrwt>
<pdfrwt beam="2">  1       -1 0.17571828E-01 0.18080713E+03</pdfrwt>
<totfact> 0.18118855E+03</totfact>
</mgrwt>
</event>
<event>
 4    1  0.7245070E-001  0.2136270E+03  0.7546771E-02  0.1138726E+00
         -1   -1    0    0    0  501 -0.00000000000E+00  0.00000000000E+00  0.16542345089E+04  0.16542345089E+04  0.00000000000E+00 0.  1.
          1   -1    0    0  502    0  0.00000000000E+00 -0.00000000000E+00 -0.39138908720E+02  0.39138908720E+02  0.00000000000E+00 0. -1.
          6    1    1    2  502    0  0.55402917935E+02 -0.11241886837E+03  0.12675210305E+04  0.12853972335E+04  0.17300000000E+03 0.  1.
         -6    1    1    2    0  501 -0.55402917935E+02  0.11241886837E+03  0.34757456975E+03  0.40797618413E+03  0.17300000000E+03 0. -1.
<mgrwt>
<rscale>  2 0.21362698E+03</rscale>
<asrwt>0</asrwt>
<pdfrwt beam="1">  1        1 0.60213718E-02 0.21362698E+03</pdfrwt>
<pdfrwt beam="2">  1       -1 0.25449756E+00 0.21362698E+03</pdfrwt>
<totfact> 0.96414224E+01</totfact>
</mgrwt>
</event>
<event>
 4    1  0.7245070E-001  0.2179759E+03  0.7546771E-02  0.1135401E+00
          1   -1    0    0  502    0  0.00000000000E+00  0.00000000000E+00  0.90775122021E+03  0.90775122021E+03  0.00000000000E+00 0. -1.
         -1   -1    0    0    0  501 -0.00000000000E+00 -0.00000000000E+00 -0.21028449855E+03  0.21028449855E+03  0.00000000000E+00 0.  1.
          6    1    1    2  502    0  0.30717399426E+02  0.12899966119E+03 -0.13574191720E+03  0.25678656371E+03  0.17300000000E+03 0.  1.
         -6    1    1    2    0  501 -0.30717399426E+02 -0.12899966119E+03  0.83320863886E+03  0.86124915506E+03  0.17300000000E+03 0. -1.
<mgrwt>
<rscale>  2 0.21797585E+03</rscale>
<asrwt>0</asrwt>
<pdfrwt beam="1">  1        1 0.13965403E+00 0.21797585E+03</pdfrwt>
<pdfrwt beam="2">  1       -1 0.32351462E-01 0.21797585E+03</pdfrwt>
<totfact> 0.17248723E+02</totfact>
</mgrwt>
</event>
<event>
 4    1  0.7245070E-001  0.1928068E+03  0.7546771E-02  0.1155954E+00
          4   -1    0    0  502    0  0.00000000000E+00  0.00000000000E+00  0.95692445527E+02  0.95692445527E+02  0.00000000000E+00 0.  1.
         -4   -1    0    0    0  501 -0.00000000000E+00 -0.00000000000E+00 -0.39022569366E+03  0.39022569366E+03  0.00000000000E+00 0. -1.
          6    1    1    2  502    0  0.40899720448E+02 -0.74650433994E+02 -0.16352300919E+03  0.25281267563E+03  0.17300000000E+03 0.  1.
         -6    1    1    2    0  501 -0.40899720448E+02  0.74650433994E+02 -0.13101023894E+03  0.23310546355E+03  0.17300000000E+03 0. -1.
<mgrwt>
<rscale>  2 0.19280683E+03</rscale>
<asrwt>0</asrwt>
<pdfrwt beam="1">  1        4 0.14721915E-01 0.19280683E+03</pdfrwt>
<pdfrwt beam="2">  1       -4 0.60034722E-01 0.19280683E+03</pdfrwt>
<totfact> 0.18255676E+02</totfact>
</mgrwt>
</event>
<event>
 4    1  0.7245070E-001  0.3181601E+03  0.7546771E-02  0.1076499E+00
          1   -1    0    0  502    0  0.00000000000E+00  0.00000000000E+00  0.10874269389E+04  0.10874269389E+04  0.00000000000E+00 0. -1.
         -1   -1    0    0    0  501 -0.00000000000E+00 -0.00000000000E+00 -0.10359559696E+03  0.10359559696E+03  0.00000000000E+00 0.  1.
          6    1    1    2  502    0 -0.13978176784E+03  0.22750359839E+03  0.30225300503E+03  0.43884246484E+03  0.17300000000E+03 0.  1.
         -6    1    1    2    0  501  0.13978176784E+03 -0.22750359839E+03  0.68157833692E+03  0.75218007103E+03  0.17300000000E+03 0. -1.
<mgrwt>
<rscale>  2 0.31816007E+03</rscale>
<asrwt>0</asrwt>
<pdfrwt beam="1">  1        1 0.16729644E+00 0.31816007E+03</pdfrwt>
<pdfrwt beam="2">  1       -1 0.15937785E-01 0.31816007E+03</pdfrwt>
<totfact> 0.40187656E+02</totfact>
</mgrwt>
</event>
<event>
 4    1  0.7245070E-001  0.2676877E+03  0.7546771E-02  0.1102610E+00
         -2   -1    0    0    0  501 -0.00000000000E+00  0.00000000000E+00  0.29432172804E+03  0.29432172804E+03  0.00000000000E+00 0.  1.
          2   -1    0    0  502    0  0.00000000000E+00 -0.00000000000E+00 -0.27244605850E+03  0.27244605850E+03  0.00000000000E+00 0. -1.
          6    1    1    2  502    0  0.42810908985E+01  0.20422868368E+03  0.10336531133E+03  0.28695133832E+03  0.17300000000E+03 0.  1.
         -6    1    1    2    0  501 -0.42810908985E+01 -0.20422868368E+03 -0.81489641794E+02  0.27981644822E+03  0.17300000000E+03 0. -1.
<mgrwt>
<rscale>  2 0.26768766E+03</rscale>
<asrwt>0</asrwt>
<pdfrwt beam="1">  1        2 0.41914778E-01 0.26768766E+03</pdfrwt>
<pdfrwt beam="2">  1       -2 0.45280266E-01 0.26768766E+03</pdfrwt>
<totfact> 0.57023097E+02</totfact>
</mgrwt>
</event>
<event>
 4    1  0.7245070E-001  0.3014411E+03  0.7546771E-02  0.1084522E+00
         -2   -1    0    0    0  501 -0.00000000000E+00  0.00000000000E+00  0.10956357902E+03  0.10956357902E+03  0.00000000000E+00 0. -1.
          2   -1    0    0  502    0  0.00000000000E+00 -0.00000000000E+00 -0.30287395648E+04  0.30287395648E+04  0.00000000000E+00 0.  1.
          6    1    1    2  502    0  0.43041959097E+02  0.24307436841E+03 -0.27967524573E+04  0.28129505979E+04  0.17300000000E+03 0.  1.
         -6    1    1    2    0  501 -0.43041959097E+02 -0.24307436841E+03 -0.12242352851E+03  0.32535254595E+03  0.17300000000E+03 0. -1.
<mgrwt>
<rscale>  2 0.30144114E+03</rscale>
<asrwt>0</asrwt>
<pdfrwt beam="1">  1        2 0.46595986E+00 0.30144114E+03</pdfrwt>
<pdfrwt beam="2">  1       -2 0.16855938E-01 0.30144114E+03</pdfrwt>
<totfact> 0.56046739E+01</totfact>
</mgrwt>
</event>
<event>
 4    1  0.7245070E-001  0.2120736E+03  0.7546771E-02  0.1139934E+00
         -2   -1    0    0    0  501 -0.00000000000E+00  0.00000000000E+00  0.30504050239E+02  0.30504050239E+02  0.00000000000E+00 0.  1.
          2   -1    0    0  502    0  0.00000000000E+00 -0.00000000000E+00 -0.14913666372E+04  0.14913666372E+04  0.00000000000E+00 0. -1.
          6    1    1    2  502    0 -0.53033392648E+02  0.11060591405E+03 -0.81159049909E+03  0.83884107384E+03  0.17300000000E+03 0.  1.
         -6    1    1    2    0  501  0.53033392648E+02 -0.11060591405E+03 -0.64927208792E+03  0.68302961364E+03  0.17300000000E+03 0.  1.
<mgrwt>
<rscale>  2 0.21207359E+03</rscale>
<asrwt>0</asrwt>
<pdfrwt beam="1">  1        2 0.22944101E+00 0.21207359E+03</pdfrwt>
<pdfrwt beam="2">  1       -2 0.46929310E-02 0.21207359E+03</pdfrwt>
<totfact> 0.29709831E+03</totfact>
</mgrwt>
</event>
<event>
 4    1  0.7245070E-001  0.2422408E+03  0.7546771E-02  0.1118309E+00
          1   -1    0    0  502    0  0.00000000000E+00  0.00000000000E+00  0.45913809174E+02  0.45913809174E+02  0.00000000000E+00 0.  1.
         -1   -1    0    0    0  501 -0.00000000000E+00 -0.00000000000E+00 -0.20902654584E+04  0.20902654584E+04  0.00000000000E+00 0. -1.
          6    1    1    2  502    0 -0.13823094729E+03 -0.98202989393E+02 -0.16879697366E+04  0.17052631625E+04  0.17300000000E+03 0. -1.
         -6    1    1    2    0  501  0.13823094729E+03  0.98202989393E+02 -0.35638191264E+03  0.43091610502E+03  0.17300000000E+03 0.  1.
<mgrwt>
<rscale>  2 0.24224083E+03</rscale>
<asrwt>0</asrwt>
<pdfrwt beam="1">  1        1 0.70636632E-02 0.24224083E+03</pdfrwt>
<pdfrwt beam="2">  1       -1 0.32157929E+00 0.24224083E+03</pdfrwt>
<totfact> 0.29390799E+01</totfact>
</mgrwt>
</event>
<event>
 4    1  0.7245070E-001  0.1769975E+03  0.7546771E-02  0.1170741E+00
         -2   -1    0    0    0  501 -0.00000000000E+00  0.00000000000E+00  0.28527454547E+02  0.28527454547E+02  0.00000000000E+00 0.  1.
          2   -1    0    0  502    0  0.00000000000E+00 -0.00000000000E+00 -0.19638109002E+04  0.19638109002E+04  0.00000000000E+00 0. -1.
          6    1    1    2  502    0  0.27890037741E+02 -0.24924978524E+02 -0.30626158477E+03  0.35372908711E+03  0.17300000000E+03 0.  1.
         -6    1    1    2    0  501 -0.27890037741E+02  0.24924978524E+02 -0.16290218609E+04  0.16386092676E+04  0.17300000000E+03 0. -1.
<mgrwt>
<rscale>  2 0.17699748E+03</rscale>
<asrwt>0</asrwt>
<pdfrwt beam="1">  1        2 0.30212488E+00 0.17699748E+03</pdfrwt>
<pdfrwt beam="2">  1       -2 0.43888373E-02 0.17699748E+03</pdfrwt>
<totfact> 0.18658015E+03</totfact>
</mgrwt>
</event>
<event>
 4    1  0.7245070E-001  0.1795543E+03  0.7546771E-02  0.1168235E+00
         -2   -1    0    0    0  501 -0.00000000000E+00  0.00000000000E+00  0.19002486654E+02  0.19002486654E+02  0.00000000000E+00 0.  1.
          2   -1    0    0  502    0  0.00000000000E+00 -0.00000000000E+00 -0.17334107079E+04  0.17334107079E+04  0.00000000000E+00 0. -1.
          6    1    1    2  502    0 -0.16095596397E+02  0.45295312524E+02 -0.72952870233E+03  0.75130011386E+03  0.17300000000E+03 0. -1.
         -6    1    1    2    0  501  0.16095596397E+02 -0.45295312524E+02 -0.98487951896E+03  0.10011130807E+04  0.17300000000E+03 0.  1.
<mgrwt>
<rscale>  2 0.17955426E+03</rscale>
<asrwt>0</asrwt>
<pdfrwt beam="1">  1        2 0.26667869E+00 0.17955426E+03</pdfrwt>
<pdfrwt beam="2">  1       -2 0.29234582E-02 0.17955426E+03</pdfrwt>
<totfact> 0.44957675E+03</totfact>
</mgrwt>
</event>
<event>
 4    1  0.7245070E-001  0.1764213E+03  0.7546771E-02  0.1171312E+00
         -2   -1    0    0    0  501 -0.00000000000E+00  0.00000000000E+00  0.91765864742E+02  0.91765864742E+02  0.00000000000E+00 0. -1.
          2   -1    0    0  502    0  0.00000000000E+00 -0.00000000000E+00 -0.71419159322E+03  0.71419159322E+03  0.00000000000E+00 0.  1.
          6    1    1    2  502    0 -0.29741546947E+02 -0.17632631096E+02 -0.60322531740E+03  0.62849443342E+03  0.17300000000E+03 0.  1.
         -6    1    1    2    0  501  0.29741546947E+02  0.17632631096E+02 -0.19200411084E+02  0.17746302454E+03  0.17300000000E+03 0. -1.
<mgrwt>
<rscale>  2 0.17642128E+03</rscale>
<asrwt>0</asrwt>
<pdfrwt beam="1">  1        2 0.10987563E+00 0.17642128E+03</pdfrwt>
<pdfrwt beam="2">  1       -2 0.14117825E-01 0.17642128E+03</pdfrwt>
<totfact> 0.15423717E+03</totfact>
</mgrwt>
</event>
<event>
 4    1  0.7245070E-001  0.1901771E+03  0.7546771E-02  0.1158302E+00
         -2   -1    0    0    0  501 -0.00000000000E+00  0.00000000000E+00  0.24480037056E+02  0.24480037056E+02  0.00000000000E+00 0.  1.
          2   -1    0    0  502    0  0.00000000000E+00 -0.00000000000E+00 -0.16139242573E+04  0.16139242573E+04  0.00000000000E+00 0. -1.
          6    1    1    2  502    0 -0.32494884783E+02 -0.71988994938E+02 -0.10329651536E+04  0.10503258263E+04  0.17300000000E+03 0. -1.
         -6    1    1    2    0  501  0.32494884783E+02  0.71988994938E+02 -0.55647906664E+03  0.58807846801E+03  0.17300000000E+03 0. -1.
<mgrwt>
<rscale>  2 0.19017711E+03</rscale>
<asrwt>0</asrwt>
<pdfrwt beam="1">  1        2 0.24829605E+00 0.19017711E+03</pdfrwt>
<pdfrwt beam="2">  1       -2 0.37661594E-02 0.19017711E+03</pdfrwt>
<totfact> 0.35618873E+03</totfact>
</mgrwt>
</event>
<event>
 4    1  0.7245070E-001  0.1803340E+03  0.7546771E-02  0.1167480E+00
         -1   -1    0    0    0  501 -0.00000000000E+00  0.00000000000E+00  0.32429052717E+02  0.32429052717E+02  0.00000000000E+00 0. -1.
          1   -1    0    0  502    0  0.00000000000E+00 -0.00000000000E+00 -0.10698701928E+04  0.10698701928E+04  0.00000000000E+00 0.  1.
          6    1    1    2  502    0  0.19753104013E+02 -0.46916486851E+02 -0.65670180986E+03  0.68101219441E+03  0.17300000000E+03 0.  1.
         -6    1    1    2    0  501 -0.19753104013E+02  0.46916486851E+02 -0.38073933024E+03  0.42128705113E+03  0.17300000000E+03 0. -1.
<mgrwt>
<rscale>  2 0.18033397E+03</rscale>
<asrwt>0</asrwt>
<pdfrwt beam="1">  1        1 0.16459540E+00 0.18033397E+03</pdfrwt>
<pdfrwt beam="2">  1       -1 0.49890855E-02 0.18033397E+03</pdfrwt>
<totfact> 0.24914151E+03</totfact>
</mgrwt>
</event>
<event>
 4    1  0.7245070E-001  0.2506828E+03  0.7546771E-02  0.1112874E+00
          2   -1    0    0  502    0  0.00000000000E+00  0.00000000000E+00  0.12901848453E+04  0.12901848453E+04  0.00000000000E+00 0. -1.
         -2   -1    0    0    0  501 -0.00000000000E+00 -0.00000000000E+00 -0.50750663090E+02  0.50750663090E+02  0.00000000000E+00 0.  1.
          6    1    1    2  502    0  0.59306440186E+02 -0.17145146646E+03  0.48519498617E+03  0.54612822103E+03  0.17300000000E+03 0.  1.
         -6    1    1    2    0  501 -0.59306440186E+02  0.17145146646E+03  0.75423919601E+03  0.79480728733E+03  0.17300000000E+03 0.  1.
<mgrwt>
<rscale>  2 0.25068279E+03</rscale>
<asrwt>0</asrwt>
<pdfrwt beam="1">  1        2 0.19848995E+00 0.25068279E+03</pdfrwt>
<pdfrwt beam="2">  1       -2 0.78077953E-02 0.25068279E+03</pdfrwt>
<totfact> 0.17466033E+03</totfact>
</mgrwt>
</event>
<event>
 4    1  0.7245070E-001  0.1920930E+03  0.7546771E-02  0.1156587E+00
          1   -1    0    0  502    0  0.00000000000E+00  0.00000000000E+00  0.36289167573E+03  0.36289167573E+03  0.00000000000E+00 0. -1.
         -1   -1    0    0    0  501 -0.00000000000E+00 -0.00000000000E+00 -0.10204979691E+03  0.10204979691E+03  0.00000000000E+00 0.  1.
          6    1    1    2  502    0 -0.56106234869E+02 -0.61828951362E+02  0.14436782928E+03  0.24029523289E+03  0.17300000000E+03 0.  1.
         -6    1    1    2    0  501  0.56106234869E+02  0.61828951362E+02  0.11647404954E+03  0.22464623975E+03  0.17300000000E+03 0. -1.
<mgrwt>
<rscale>  2 0.19209302E+03</rscale>
<asrwt>0</asrwt>
<pdfrwt beam="1">  1        1 0.55829488E-01 0.19209302E+03</pdfrwt>
<pdfrwt beam="2">  1       -1 0.15699969E-01 0.19209302E+03</pdfrwt>
<totfact> 0.20305898E+03</totfact>
</mgrwt>
</event>
<event>
 4    1  0.7245070E-001  0.2243987E+03  0.7546771E-02  0.1130645E+00
         -1   -1    0    0    0  501 -0.00000000000E+00  0.00000000000E+00  0.41658261403E+03  0.41658261403E+03  0.00000000000E+00 0. -1.
          1   -1    0    0  502    0  0.00000000000E+00 -0.00000000000E+00 -0.12282606176E+03  0.12282606176E+03  0.00000000000E+00 0.  1.
          6    1    1    2  502    0 -0.10367017271E+03 -0.98378250125E+02  0.11289371871E+03  0.25119668894E+03  0.17300000000E+03 0.  1.
         -6    1    1    2    0  501  0.10367017271E+03  0.98378250125E+02  0.18086283355E+03  0.28821198686E+03  0.17300000000E+03 0.  1.
<mgrwt>
<rscale>  2 0.22439872E+03</rscale>
<asrwt>0</asrwt>
<pdfrwt beam="1">  1        1 0.18896317E-01 0.22439872E+03</pdfrwt>
<pdfrwt beam="2">  1       -1 0.64089632E-01 0.22439872E+03</pdfrwt>
<totfact> 0.70292872E+02</totfact>
</mgrwt>
</event>
<event>
 4    1  0.7245070E-001  0.1794832E+03  0.7546771E-02  0.1168304E+00
         -2   -1    0    0    0  501 -0.00000000000E+00  0.00000000000E+00  0.49794385664E+02  0.49794385664E+02  0.00000000000E+00 0. -1.
          2   -1    0    0  502    0  0.00000000000E+00 -0.00000000000E+00 -0.69816618763E+03  0.69816618763E+03  0.00000000000E+00 0.  1.
          6    1    1    2  502    0 -0.17724123623E+01 -0.47771141191E+02 -0.42548243617E+03  0.46178948328E+03  0.17300000000E+03 0.  1.
         -6    1    1    2    0  501  0.17724123623E+01  0.47771141191E+02 -0.22288936579E+03  0.28617109001E+03  0.17300000000E+03 0. -1.
<mgrwt>
<rscale>  2 0.17948321E+03</rscale>
<asrwt>0</asrwt>
<pdfrwt beam="1">  1        2 0.10741018E+00 0.17948321E+03</pdfrwt>
<pdfrwt beam="2">  1       -2 0.76606751E-02 0.17948321E+03</pdfrwt>
<totfact> 0.41870334E+03</totfact>
</mgrwt>
</event>
<event>
 4    1  0.7245070E-001  0.1738593E+03  0.7546771E-02  0.1173882E+00
         -1   -1    0    0    0  501 -0.00000000000E+00  0.00000000000E+00  0.66474532200E+02  0.66474532200E+02  0.00000000000E+00 0. -1.
          1   -1    0    0  502    0  0.00000000000E+00 -0.00000000000E+00 -0.46824885893E+03  0.46824885893E+03  0.00000000000E+00 0.  1.
          6    1    1    2  502    0 -0.11313529592E+02  0.13040682584E+02 -0.24633888066E+03  0.30151268544E+03  0.17300000000E+03 0.  1.
         -6    1    1    2    0  501  0.11313529592E+02 -0.13040682584E+02 -0.15543544606E+03  0.23321070569E+03  0.17300000000E+03 0. -1.
<mgrwt>
<rscale>  2 0.17385930E+03</rscale>
<asrwt>0</asrwt>
<pdfrwt beam="1">  1        1 0.72038283E-01 0.17385930E+03</pdfrwt>
<pdfrwt beam="2">  1       -1 0.10226851E-01 0.17385930E+03</pdfrwt>
<totfact> 0.28522317E+03</totfact>
</mgrwt>
</event>
<event>
 4    1  0.7245070E-001  0.1978064E+03  0.7546771E-02  0.1151603E+00
         -2   -1    0    0    0  501 -0.00000000000E+00  0.00000000000E+00  0.74558286811E+02  0.74558286811E+02  0.00000000000E+00 0. -1.
          2   -1    0    0  502    0  0.00000000000E+00 -0.00000000000E+00 -0.62751284705E+03  0.62751284705E+03  0.00000000000E+00 0.  1.
          6    1    1    2  502    0 -0.87491330579E+02 -0.39289105811E+02 -0.41850578181E+03  0.46289788957E+03  0.17300000000E+03 0.  1.
         -6    1    1    2    0  501  0.87491330579E+02  0.39289105811E+02 -0.13444877842E+03  0.23917324428E+03  0.17300000000E+03 0. -1.
<mgrwt>
<rscale>  2 0.19780639E+03</rscale>
<asrwt>0</asrwt>
<pdfrwt beam="1">  1        2 0.96540444E-01 0.19780639E+03</pdfrwt>
<pdfrwt beam="2">  1       -2 0.11470505E-01 0.19780639E+03</pdfrwt>
<totfact> 0.25220809E+03</totfact>
</mgrwt>
</event>
<event>
 4    1  0.7245070E-001  0.2347435E+03  0.7546771E-02  0.1123345E+00
         -2   -1    0    0    0  501 -0.00000000000E+00  0.00000000000E+00  0.74630690839E+03  0.74630690839E+03  0.00000000000E+00 0.  1.
          2   -1    0    0  502    0  0.00000000000E+00 -0.00000000000E+00 -0.75147977915E+02  0.75147977915E+02  0.00000000000E+00 0. -1.
          6    1    1    2  502    0  0.78367776299E+02  0.13796373355E+03  0.38984420080E+03  0.45506373294E+03  0.17300000000E+03 0. -1.
         -6    1    1    2    0  501 -0.78367776299E+02 -0.13796373355E+03  0.28131472968E+03  0.36639115337E+03  0.17300000000E+03 0. -1.
<mgrwt>
<rscale>  2 0.23474348E+03</rscale>
<asrwt>0</asrwt>
<pdfrwt beam="1">  1        2 0.11561228E-01 0.23474348E+03</pdfrwt>
<pdfrwt beam="2">  1       -2 0.11481644E+00 0.23474348E+03</pdfrwt>
<totfact> 0.33058522E+02</totfact>
</mgrwt>
</event>
<event>
 4    1  0.7245070E-001  0.2061863E+03  0.7546771E-02  0.1144622E+00
         -2   -1    0    0    0  501 -0.00000000000E+00  0.00000000000E+00  0.14421348451E+03  0.14421348451E+03  0.00000000000E+00 0. -1.
          2   -1    0    0  502    0  0.00000000000E+00 -0.00000000000E+00 -0.43173034594E+03  0.43173034594E+03  0.00000000000E+00 0.  1.
          6    1    1    2  502    0 -0.10930356666E+03  0.25229233771E+02  0.18425775094E+02  0.20700795422E+03  0.17300000000E+03 0. -1.
         -6    1    1    2    0  501  0.10930356666E+03 -0.25229233771E+02 -0.30594263653E+03  0.36893587623E+03  0.17300000000E+03 0.  1.
<mgrwt>
<rscale>  2 0.20618628E+03</rscale>
<asrwt>0</asrwt>
<pdfrwt beam="1">  1        2 0.66420054E-01 0.20618628E+03</pdfrwt>
<pdfrwt beam="2">  1       -2 0.22186690E-01 0.20618628E+03</pdfrwt>
<totfact> 0.12833590E+03</totfact>
</mgrwt>
</event>
<event>
 4    1  0.7245070E-001  0.4033230E+03  0.7546771E-02  0.1042635E+00
          2   -1    0    0  502    0  0.00000000000E+00  0.00000000000E+00  0.11464906392E+04  0.11464906392E+04  0.00000000000E+00 0.  1.
         -2   -1    0    0    0  501 -0.00000000000E+00 -0.00000000000E+00 -0.17192233320E+03  0.17192233320E+03  0.00000000000E+00 0. -1.
          6    1    1    2  502    0  0.34262686389E+03 -0.12388413169E+03  0.76282652700E+03  0.86288687337E+03  0.17300000000E+03 0. -1.
         -6    1    1    2    0  501 -0.34262686389E+03  0.12388413169E+03  0.21174177904E+03  0.45552609907E+03  0.17300000000E+03 0. -1.
<mgrwt>
<rscale>  2 0.40332300E+03</rscale>
<asrwt>0</asrwt>
<pdfrwt beam="1">  1        2 0.17638317E+00 0.40332300E+03</pdfrwt>
<pdfrwt beam="2">  1       -2 0.26449590E-01 0.40332300E+03</pdfrwt>
<totfact> 0.27355041E+02</totfact>
</mgrwt>
</event>
<event>
 4    1  0.7245070E-001  0.2469217E+03  0.7546771E-02  0.1115266E+00
          2   -1    0    0  502    0  0.00000000000E+00  0.00000000000E+00  0.12376093225E+03  0.12376093225E+03  0.00000000000E+00 0. -1.
         -2   -1    0    0    0  501 -0.00000000000E+00 -0.00000000000E+00 -0.49378386323E+03  0.49378386323E+03  0.00000000000E+00 0.  1.
          6    1    1    2  502    0  0.17425451091E+03 -0.26013585175E+02 -0.19983306496E+03  0.31765326228E+03  0.17300000000E+03 0. -1.
         -6    1    1    2    0  501 -0.17425451091E+03  0.26013585175E+02 -0.17018986603E+03  0.29989153320E+03  0.17300000000E+03 0.  1.
<mgrwt>
<rscale>  2 0.24692173E+03</rscale>
<asrwt>0</asrwt>
<pdfrwt beam="1">  1        2 0.19040143E-01 0.24692173E+03</pdfrwt>
<pdfrwt beam="2">  1       -2 0.75966749E-01 0.24692173E+03</pdfrwt>
<totfact> 0.47005922E+02</totfact>
</mgrwt>
</event>
<event>
 4    1  0.7245070E-001  0.1791613E+03  0.7546771E-02  0.1168617E+00
         -2   -1    0    0    0  501 -0.00000000000E+00  0.00000000000E+00  0.23019831940E+02  0.23019831940E+02  0.00000000000E+00 0.  1.
          2   -1    0    0  502    0  0.00000000000E+00 -0.00000000000E+00 -0.14084850055E+04  0.14084850055E+04  0.00000000000E+00 0. -1.
          6    1    1    2  502    0 -0.44280004054E+02  0.14459217080E+02 -0.76431550127E+03  0.78503310325E+03  0.17300000000E+03 0.  1.
         -6    1    1    2    0  501  0.44280004054E+02 -0.14459217080E+02 -0.62114967227E+03  0.64647173416E+03  0.17300000000E+03 0.  1.
<mgrwt>
<rscale>  2 0.17916135E+03</rscale>
<asrwt>0</asrwt>
<pdfrwt beam="1">  1        2 0.21669007E+00 0.17916135E+03</pdfrwt>
<pdfrwt beam="2">  1       -2 0.35415116E-02 0.17916135E+03</pdfrwt>
<totfact> 0.50063604E+03</totfact>
</mgrwt>
</event>
<event>
 4    1  0.7245070E-001  0.1798322E+03  0.7546771E-02  0.1167965E+00
          1   -1    0    0  502    0  0.00000000000E+00  0.00000000000E+00  0.17583198953E+03  0.17583198953E+03  0.00000000000E+00 0. -1.
         -1   -1    0    0    0  501 -0.00000000000E+00 -0.00000000000E+00 -0.20253166142E+03  0.20253166142E+03  0.00000000000E+00 0.  1.
          6    1    1    2  502    0  0.27848001948E+01  0.49019201791E+02 -0.70693379505E+02  0.19322833944E+03  0.17300000000E+03 0.  1.
         -6    1    1    2    0  501 -0.27848001948E+01 -0.49019201791E+02  0.43993707616E+02  0.18513531151E+03  0.17300000000E+03 0. -1.
<mgrwt>
<rscale>  2 0.17983225E+03</rscale>
<asrwt>0</asrwt>
<pdfrwt beam="1">  1        1 0.27051075E-01 0.17983225E+03</pdfrwt>
<pdfrwt beam="2">  1       -1 0.31158717E-01 0.17983225E+03</pdfrwt>
<totfact> 0.16355923E+03</totfact>
</mgrwt>
</event>
<event>
 4    1  0.7245070E-001  0.2236541E+03  0.7546771E-02  0.1131188E+00
          1   -1    0    0  502    0  0.00000000000E+00  0.00000000000E+00  0.82746777764E+03  0.82746777764E+03  0.00000000000E+00 0.  1.
         -1   -1    0    0    0  501 -0.00000000000E+00 -0.00000000000E+00 -0.87125971689E+02  0.87125971689E+02  0.00000000000E+00 0. -1.
          6    1    1    2  502    0  0.13757326460E+03  0.34143422389E+02  0.11713790051E+03  0.25247269983E+03  0.17300000000E+03 0. -1.
         -6    1    1    2    0  501 -0.13757326460E+03 -0.34143422389E+02  0.62320390545E+03  0.66212104950E+03  0.17300000000E+03 0.  1.
<mgrwt>
<rscale>  2 0.22365414E+03</rscale>
<asrwt>0</asrwt>
<pdfrwt beam="1">  1        1 0.12730273E+00 0.22365414E+03</pdfrwt>
<pdfrwt beam="2">  1       -1 0.13403996E-01 0.22365414E+03</pdfrwt>
<totfact> 0.84400896E+02</totfact>
</mgrwt>
</event>
<event>
 4    1  0.7245070E-001  0.1996276E+03  0.7546771E-02  0.1150054E+00
          1   -1    0    0  502    0  0.00000000000E+00  0.00000000000E+00  0.34514361659E+03  0.34514361659E+03  0.00000000000E+00 0.  1.
         -1   -1    0    0    0  501 -0.00000000000E+00 -0.00000000000E+00 -0.17848039281E+03  0.17848039281E+03  0.00000000000E+00 0. -1.
          6    1    1    2  502    0  0.14716354598E+01  0.99599168783E+02 -0.72238471810E+02  0.21229591834E+03  0.17300000000E+03 0. -1.
         -6    1    1    2    0  501 -0.14716354598E+01 -0.99599168783E+02  0.23890169558E+03  0.31132809106E+03  0.17300000000E+03 0.  1.
<mgrwt>
<rscale>  2 0.19962755E+03</rscale>
<asrwt>0</asrwt>
<pdfrwt beam="1">  1        1 0.53099018E-01 0.19962755E+03</pdfrwt>
<pdfrwt beam="2">  1       -1 0.27458522E-01 0.19962755E+03</pdfrwt>
<totfact> 0.87143985E+02</totfact>
</mgrwt>
</event>
<event>
 4    1  0.7245070E-001  0.2223114E+03  0.7546771E-02  0.1132171E+00
         -2   -1    0    0    0  501 -0.00000000000E+00  0.00000000000E+00  0.74848918630E+02  0.74848918630E+02  0.00000000000E+00 0.  1.
          2   -1    0    0  502    0  0.00000000000E+00 -0.00000000000E+00 -0.67800107700E+03  0.67800107700E+03  0.00000000000E+00 0. -1.
          6    1    1    2  502    0 -0.13853739012E+03 -0.17341604914E+02 -0.36240762653E+03  0.42516070784E+03  0.17300000000E+03 0.  1.
         -6    1    1    2    0  501  0.13853739012E+03  0.17341604914E+02 -0.24074453184E+03  0.32768928779E+03  0.17300000000E+03 0. -1.
<mgrwt>
<rscale>  2 0.22231136E+03</rscale>
<asrwt>0</asrwt>
<pdfrwt beam="1">  1        2 0.10430786E+00 0.22231136E+03</pdfrwt>
<pdfrwt beam="2">  1       -2 0.11515218E-01 0.22231136E+03</pdfrwt>
<totfact> 0.22929393E+03</totfact>
</mgrwt>
</event>
<event>
 4    1  0.7245070E-001  0.1828350E+03  0.7546771E-02  0.1165087E+00
          2   -1    0    0  502    0  0.00000000000E+00  0.00000000000E+00  0.12032814081E+03  0.12032814081E+03  0.00000000000E+00 0. -1.
         -2   -1    0    0    0  501 -0.00000000000E+00 -0.00000000000E+00 -0.39910283705E+03  0.39910283705E+03  0.00000000000E+00 0.  1.
          6    1    1    2  502    0 -0.47297859896E+02  0.35532157841E+02  0.37882932934E+01  0.18287419981E+03  0.17300000000E+03 0. -1.
         -6    1    1    2    0  501  0.47297859896E+02 -0.35532157841E+02 -0.28256298954E+03  0.33655677805E+03  0.17300000000E+03 0.  1.
<mgrwt>
<rscale>  2 0.18283496E+03</rscale>
<asrwt>0</asrwt>
<pdfrwt beam="1">  1        2 0.18512022E-01 0.18283496E+03</pdfrwt>
<pdfrwt beam="2">  1       -2 0.61400435E-01 0.18283496E+03</pdfrwt>
<totfact> 0.76058653E+02</totfact>
</mgrwt>
</event>
<event>
 4    1  0.7245070E-001  0.1762677E+03  0.7546771E-02  0.1171465E+00
          1   -1    0    0  502    0  0.00000000000E+00  0.00000000000E+00  0.17038253122E+02  0.17038253122E+02  0.00000000000E+00 0.  1.
         -1   -1    0    0    0  501 -0.00000000000E+00 -0.00000000000E+00 -0.20935001031E+04  0.20935001031E+04  0.00000000000E+00 0. -1.
          6    1    1    2  502    0  0.28757560064E+02 -0.17728353886E+02 -0.65930025290E+03  0.68245667648E+03  0.17300000000E+03 0.  1.
         -6    1    1    2    0  501 -0.28757560064E+02  0.17728353886E+02 -0.14171615970E+04  0.14280816797E+04  0.17300000000E+03 0. -1.
<mgrwt>
<rscale>  2 0.17626767E+03</rscale>
<asrwt>0</asrwt>
<pdfrwt beam="1">  1        1 0.26212704E-02 0.17626767E+03</pdfrwt>
<pdfrwt beam="2">  1       -1 0.32207686E+00 0.17626767E+03</pdfrwt>
<totfact> 0.11714641E+02</totfact>
</mgrwt>
</event>
<event>
 4    1  0.7245070E-001  0.2409991E+03  0.7546771E-02  0.1119129E+00
         -3   -1    0    0    0  501 -0.00000000000E+00  0.00000000000E+00  0.69883263992E+03  0.69883263992E+03  0.00000000000E+00 0.  1.
          3   -1    0    0  502    0  0.00000000000E+00 -0.00000000000E+00 -0.92397065303E+02  0.92397065303E+02  0.00000000000E+00 0. -1.
          6    1    1    2  502    0  0.16714892788E+03  0.14587182427E+02  0.42863689339E+03  0.49174194082E+03  0.17300000000E+03 0.  1.
         -6    1    1    2    0  501 -0.16714892788E+03 -0.14587182427E+02  0.17779868123E+03  0.29948776441E+03  0.17300000000E+03 0. -1.
<mgrwt>
<rscale>  2 0.24099907E+03</rscale>
<asrwt>0</asrwt>
<pdfrwt beam="1">  1        3 0.14214934E-01 0.24099907E+03</pdfrwt>
<pdfrwt beam="2">  1       -3 0.10751271E+00 0.24099907E+03</pdfrwt>
<totfact> 0.77249056E+01</totfact>
</mgrwt>
</event>
<event>
 4    1  0.7245070E-001  0.1731143E+03  0.7546771E-02  0.1174638E+00
         -1   -1    0    0    0  501 -0.00000000000E+00  0.00000000000E+00  0.56908821894E+02  0.56908821894E+02  0.00000000000E+00 0.  1.
          1   -1    0    0  502    0  0.00000000000E+00 -0.00000000000E+00 -0.53478507392E+03  0.53478507392E+03  0.00000000000E+00 0. -1.
          6    1    1    2  502    0  0.53649380823E+01  0.32847525790E+01 -0.27552358272E+03  0.32539486289E+03  0.17300000000E+03 0. -1.
         -6    1    1    2    0  501 -0.53649380823E+01 -0.32847525790E+01 -0.20235266930E+03  0.26629903292E+03  0.17300000000E+03 0.  1.
<mgrwt>
<rscale>  2 0.17311433E+03</rscale>
<asrwt>0</asrwt>
<pdfrwt beam="1">  1        1 0.82274627E-01 0.17311433E+03</pdfrwt>
<pdfrwt beam="2">  1       -1 0.87552033E-02 0.17311433E+03</pdfrwt>
<totfact> 0.30373620E+03</totfact>
</mgrwt>
</event>
<event>
 4    1  0.7245070E-001  0.2185800E+03  0.7546771E-02  0.1134946E+00
         -2   -1    0    0    0  501 -0.00000000000E+00  0.00000000000E+00  0.94418177701E+02  0.94418177701E+02  0.00000000000E+00 0. -1.
          2   -1    0    0  502    0  0.00000000000E+00 -0.00000000000E+00 -0.67985534540E+03  0.67985534540E+03  0.00000000000E+00 0.  1.
          6    1    1    2  502    0 -0.13200013472E+03 -0.20595659185E+02 -0.48848075044E+03  0.53515480031E+03  0.17300000000E+03 0.  1.
         -6    1    1    2    0  501  0.13200013472E+03  0.20595659185E+02 -0.96956417262E+02  0.23911872280E+03  0.17300000000E+03 0. -1.
<mgrwt>
<rscale>  2 0.21858000E+03</rscale>
<asrwt>0</asrwt>
<pdfrwt beam="1">  1        2 0.10459313E+00 0.21858000E+03</pdfrwt>
<pdfrwt beam="2">  1       -2 0.14525874E-01 0.21858000E+03</pdfrwt>
<totfact> 0.15658834E+03</totfact>
</mgrwt>
</event>
<event>
 4    1  0.7245070E-001  0.2132839E+03  0.7546771E-02  0.1138992E+00
         -2   -1    0    0    0  501 -0.00000000000E+00  0.00000000000E+00  0.56917774897E+02  0.56917774897E+02  0.00000000000E+00 0. -1.
          2   -1    0    0  502    0  0.00000000000E+00 -0.00000000000E+00 -0.84541069098E+03  0.84541069098E+03  0.00000000000E+00 0.  1.
          6    1    1    2  502    0  0.11636282076E+03 -0.44952318577E+02 -0.28879269367E+03  0.35901425726E+03  0.17300000000E+03 0. -1.
         -6    1    1    2    0  501 -0.11636282076E+03  0.44952318577E+02 -0.49970022242E+03  0.54331420862E+03  0.17300000000E+03 0. -1.
<mgrwt>
<rscale>  2 0.21328389E+03</rscale>
<asrwt>0</asrwt>
<pdfrwt beam="1">  1        2 0.13006318E+00 0.21328389E+03</pdfrwt>
<pdfrwt beam="2">  1       -2 0.87565807E-02 0.21328389E+03</pdfrwt>
<totfact> 0.26908529E+03</totfact>
</mgrwt>
</event>
<event>
 4    1  0.7245070E-001  0.1789895E+03  0.7546771E-02  0.1168785E+00
          2   -1    0    0  502    0  0.00000000000E+00  0.00000000000E+00  0.28694989108E+04  0.28694989108E+04  0.00000000000E+00 0.  1.
         -2   -1    0    0    0  501 -0.00000000000E+00 -0.00000000000E+00 -0.23317724399E+02  0.23317724399E+02  0.00000000000E+00 0. -1.
          6    1    1    2  502    0  0.45900209913E+02  0.11906488429E+01  0.24673035168E+04  0.24737873576E+04  0.17300000000E+03 0.  1.
         -6    1    1    2    0  501 -0.45900209913E+02 -0.11906488429E+01  0.37887766965E+03  0.41902927758E+03  0.17300000000E+03 0. -1.
<mgrwt>
<rscale>  2 0.17898952E+03</rscale>
<asrwt>0</asrwt>
<pdfrwt beam="1">  1        2 0.44146109E+00 0.17898952E+03</pdfrwt>
<pdfrwt beam="2">  1       -2 0.35873445E-02 0.17898952E+03</pdfrwt>
<totfact> 0.82206073E+02</totfact>
</mgrwt>
</event>
<event>
 4    1  0.7245070E-001  0.2287635E+03  0.7546771E-02  0.1127513E+00
          2   -1    0    0  502    0  0.00000000000E+00  0.00000000000E+00  0.20223103799E+04  0.20223103799E+04  0.00000000000E+00 0. -1.
         -2   -1    0    0    0  501 -0.00000000000E+00 -0.00000000000E+00 -0.35537441140E+02  0.35537441140E+02  0.00000000000E+00 0.  1.
          6    1    1    2  502    0  0.71821028717E+02 -0.13132206445E+03  0.15298286123E+04  0.15468381712E+04  0.17300000000E+03 0. -1.
         -6    1    1    2    0  501 -0.71821028717E+02  0.13132206445E+03  0.45694432645E+03  0.51100964986E+03  0.17300000000E+03 0.  1.
<mgrwt>
<rscale>  2 0.22876351E+03</rscale>
<asrwt>0</asrwt>
<pdfrwt beam="1">  1        2 0.31112458E+00 0.22876351E+03</pdfrwt>
<pdfrwt beam="2">  1       -2 0.54673002E-02 0.22876351E+03</pdfrwt>
<totfact> 0.12405922E+03</totfact>
</mgrwt>
</event>
<event>
 4    1  0.7245070E-001  0.1825679E+03  0.7546771E-02  0.1165341E+00
         -1   -1    0    0    0  501 -0.00000000000E+00  0.00000000000E+00  0.69216603724E+03  0.69216603724E+03  0.00000000000E+00 0. -1.
          1   -1    0    0  502    0  0.00000000000E+00 -0.00000000000E+00 -0.56788252093E+02  0.56788252093E+02  0.00000000000E+00 0.  1.
          6    1    1    2  502    0  0.39941384705E+02  0.42505718802E+02  0.17167615853E+03  0.25060677116E+03  0.17300000000E+03 0.  1.
         -6    1    1    2    0  501 -0.39941384705E+02 -0.42505718802E+02  0.46370162662E+03  0.49834751818E+03  0.17300000000E+03 0. -1.
<mgrwt>
<rscale>  2 0.18256793E+03</rscale>
<asrwt>0</asrwt>
<pdfrwt beam="1">  1        1 0.87366546E-02 0.18256793E+03</pdfrwt>
<pdfrwt beam="2">  1       -1 0.10648708E+00 0.18256793E+03</pdfrwt>
<totfact> 0.67139786E+02</totfact>
</mgrwt>
</event>
<event>
 4    1  0.7245070E-001  0.3009475E+03  0.7546771E-02  0.1084768E+00
         -1   -1    0    0    0  501 -0.00000000000E+00  0.00000000000E+00  0.10697079112E+04  0.10697079112E+04  0.00000000000E+00 0.  1.
          1   -1    0    0  502    0  0.00000000000E+00 -0.00000000000E+00 -0.89074383378E+02  0.89074383378E+02  0.00000000000E+00 0. -1.
          6    1    1    2  502    0 -0.20221640853E+03 -0.14053092228E+03  0.61919062521E+03  0.68845221064E+03  0.17300000000E+03 0.  1.
         -6    1    1    2    0  501  0.20221640853E+03  0.14053092228E+03  0.36144290257E+03  0.47033008389E+03  0.17300000000E+03 0. -1.
<mgrwt>
<rscale>  2 0.30094753E+03</rscale>
<asrwt>0</asrwt>
<pdfrwt beam="1">  1        1 0.13703752E-01 0.30094753E+03</pdfrwt>
<pdfrwt beam="2">  1       -1 0.16457044E+00 0.30094753E+03</pdfrwt>
<totfact> 0.12372600E+02</totfact>
</mgrwt>
</event>
<event>
 4    1  0.7245070E-001  0.2428109E+03  0.7546771E-02  0.1117934E+00
          2   -1    0    0  502    0  0.00000000000E+00  0.00000000000E+00  0.14473955551E+04  0.14473955551E+04  0.00000000000E+00 0.  1.
         -2   -1    0    0    0  501 -0.00000000000E+00 -0.00000000000E+00 -0.42402838776E+02  0.42402838776E+02  0.00000000000E+00 0. -1.
          6    1    1    2  502    0  0.16707224626E+03 -0.33391599991E+02  0.55468631251E+03  0.60550312939E+03  0.17300000000E+03 0. -1.
         -6    1    1    2    0  501 -0.16707224626E+03  0.33391599991E+02  0.85030640386E+03  0.88429526453E+03  0.17300000000E+03 0.  1.
<mgrwt>
<rscale>  2 0.24281090E+03</rscale>
<asrwt>0</asrwt>
<pdfrwt beam="1">  1        2 0.22267620E+00 0.24281090E+03</pdfrwt>
<pdfrwt beam="2">  1       -2 0.65235148E-02 0.24281090E+03</pdfrwt>
<totfact> 0.18957694E+03</totfact>
</mgrwt>
</event>
<event>
 4    1  0.7245070E-001  0.2286993E+03  0.7546771E-02  0.1127559E+00
          1   -1    0    0  502    0  0.00000000000E+00  0.00000000000E+00  0.12352580590E+03  0.12352580590E+03  0.00000000000E+00 0.  1.
         -1   -1    0    0    0  501 -0.00000000000E+00 -0.00000000000E+00 -0.76212238469E+03  0.76212238469E+03  0.00000000000E+00 0. -1.
          6    1    1    2  502    0  0.26722982784E+02  0.14717416200E+03 -0.61450602038E+03  0.65568361338E+03  0.17300000000E+03 0. -1.
         -6    1    1    2    0  501 -0.26722982784E+02 -0.14717416200E+03 -0.24090558403E+02  0.22996457721E+03  0.17300000000E+03 0.  1.
<mgrwt>
<rscale>  2 0.22869926E+03</rscale>
<asrwt>0</asrwt>
<pdfrwt beam="1">  1        1 0.19003970E-01 0.22869926E+03</pdfrwt>
<pdfrwt beam="2">  1       -1 0.11724960E+00 0.22869926E+03</pdfrwt>
<totfact> 0.19236821E+02</totfact>
</mgrwt>
</event>
<event>
 4    1  0.7245070E-001  0.1735919E+03  0.7546771E-02  0.1174153E+00
          1   -1    0    0  502    0  0.00000000000E+00  0.00000000000E+00  0.91202191810E+03  0.91202191810E+03  0.00000000000E+00 0.  1.
         -1   -1    0    0    0  501 -0.00000000000E+00 -0.00000000000E+00 -0.36935944497E+02  0.36935944497E+02  0.00000000000E+00 0. -1.
          6    1    1    2  502    0  0.13140028224E+02 -0.56998914564E+01  0.28346487296E+03  0.33239507113E+03  0.17300000000E+03 0. -1.
         -6    1    1    2    0  501 -0.13140028224E+02  0.56998914564E+01  0.59162110064E+03  0.61656279147E+03  0.17300000000E+03 0.  1.
<mgrwt>
<rscale>  2 0.17359190E+03</rscale>
<asrwt>0</asrwt>
<pdfrwt beam="1">  1        1 0.14031105E+00 0.17359190E+03</pdfrwt>
<pdfrwt beam="2">  1       -1 0.56824537E-02 0.17359190E+03</pdfrwt>
<totfact> 0.26859376E+03</totfact>
</mgrwt>
</event>
<event>
 4    1  0.7245070E-001  0.1843722E+03  0.7546771E-02  0.1163637E+00
          1   -1    0    0  502    0  0.00000000000E+00  0.00000000000E+00  0.39190113518E+03  0.39190113518E+03  0.00000000000E+00 0. -1.
         -1   -1    0    0    0  501 -0.00000000000E+00 -0.00000000000E+00 -0.10602617769E+03  0.10602617769E+03  0.00000000000E+00 0.  1.
          6    1    1    2  502    0  0.47034734009E+02 -0.43032965555E+02  0.36752267351E+02  0.18799955182E+03  0.17300000000E+03 0.  1.
         -6    1    1    2    0  501 -0.47034734009E+02  0.43032965555E+02  0.24912269014E+03  0.30992776105E+03  0.17300000000E+03 0. -1.
<mgrwt>
<rscale>  2 0.18437218E+03</rscale>
<asrwt>0</asrwt>
<pdfrwt beam="1">  1        1 0.60292481E-01 0.18437218E+03</pdfrwt>
<pdfrwt beam="2">  1       -1 0.16311720E-01 0.18437218E+03</pdfrwt>
<totfact> 0.17317160E+03</totfact>
</mgrwt>
</event>
<event>
 4    1  0.7245070E-001  0.1767391E+03  0.7546771E-02  0.1170997E+00
         -3   -1    0    0    0  501 -0.00000000000E+00  0.00000000000E+00  0.13192734514E+03  0.13192734514E+03  0.00000000000E+00 0. -1.
          3   -1    0    0  502    0  0.00000000000E+00 -0.00000000000E+00 -0.23844713888E+03  0.23844713888E+03  0.00000000000E+00 0.  1.
          6    1    1    2  502    0 -0.16936141221E+02 -0.31951332695E+02 -0.68780963784E+02  0.18965110471E+03  0.17300000000E+03 0.  1.
         -6    1    1    2    0  501  0.16936141221E+02  0.31951332695E+02 -0.37738829956E+02  0.18072337930E+03  0.17300000000E+03 0. -1.
<mgrwt>
<rscale>  2 0.17673913E+03</rscale>
<asrwt>0</asrwt>
<pdfrwt beam="1">  1        3 0.36684175E-01 0.17673913E+03</pdfrwt>
<pdfrwt beam="2">  1       -3 0.20296515E-01 0.17673913E+03</pdfrwt>
<totfact> 0.38607740E+02</totfact>
</mgrwt>
</event>
<event>
 4    1  0.7245070E-001  0.2978550E+03  0.7546771E-02  0.1086318E+00
          1   -1    0    0  502    0  0.00000000000E+00  0.00000000000E+00  0.69551883449E+03  0.69551883449E+03  0.00000000000E+00 0. -1.
         -1   -1    0    0    0  501 -0.00000000000E+00 -0.00000000000E+00 -0.15560914375E+03  0.15560914375E+03  0.00000000000E+00 0.  1.
          6    1    1    2  502    0  0.16338391539E+03  0.17914878604E+03  0.45064653734E+03  0.54018505437E+03  0.17300000000E+03 0. -1.
         -6    1    1    2    0  501 -0.16338391539E+03 -0.17914878604E+03  0.89263153402E+02  0.31094292387E+03  0.17300000000E+03 0.  1.
<mgrwt>
<rscale>  2 0.29785498E+03</rscale>
<asrwt>0</asrwt>
<pdfrwt beam="1">  1        1 0.10700290E+00 0.29785498E+03</pdfrwt>
<pdfrwt beam="2">  1       -1 0.23939869E-01 0.29785498E+03</pdfrwt>
<totfact> 0.42785968E+02</totfact>
</mgrwt>
</event>
<event>
 4    1  0.7245070E-001  0.1804242E+03  0.7546771E-02  0.1167393E+00
          2   -1    0    0  502    0  0.00000000000E+00  0.00000000000E+00  0.33768840163E+02  0.33768840163E+02  0.00000000000E+00 0. -1.
         -2   -1    0    0    0  501 -0.00000000000E+00 -0.00000000000E+00 -0.10208863656E+04  0.10208863656E+04  0.00000000000E+00 0.  1.
          6    1    1    2  502    0  0.45932521606E+02 -0.22673363679E+02 -0.61804690699E+03  0.64384381429E+03  0.17300000000E+03 0. -1.
         -6    1    1    2    0  501 -0.45932521606E+02  0.22673363679E+02 -0.36907061845E+03  0.41081139147E+03  0.17300000000E+03 0.  1.
<mgrwt>
<rscale>  2 0.18042416E+03</rscale>
<asrwt>0</asrwt>
<pdfrwt beam="1">  1        2 0.51952061E-02 0.18042416E+03</pdfrwt>
<pdfrwt beam="2">  1       -2 0.15705944E+00 0.18042416E+03</pdfrwt>
<totfact> 0.41627014E+02</totfact>
</mgrwt>
</event>
<event>
 4    1  0.7245070E-001  0.1822446E+03  0.7546771E-02  0.1165648E+00
         -1   -1    0    0    0  501 -0.00000000000E+00  0.00000000000E+00  0.34202126022E+03  0.34202126022E+03  0.00000000000E+00 0. -1.
          1   -1    0    0  502    0  0.00000000000E+00 -0.00000000000E+00 -0.12628422540E+03  0.12628422540E+03  0.00000000000E+00 0.  1.
          6    1    1    2  502    0 -0.29250299047E+02  0.49279800177E+02 -0.46794221867E+01  0.18230462334E+03  0.17300000000E+03 0.  1.
         -6    1    1    2    0  501  0.29250299047E+02 -0.49279800177E+02  0.22041645701E+03  0.28600086228E+03  0.17300000000E+03 0.  1.
<mgrwt>
<rscale>  2 0.18224456E+03</rscale>
<asrwt>0</asrwt>
<pdfrwt beam="1">  1        1 0.19428343E-01 0.18224456E+03</pdfrwt>
<pdfrwt beam="2">  1       -1 0.52618655E-01 0.18224456E+03</pdfrwt>
<totfact> 0.98483622E+02</totfact>
</mgrwt>
</event>
<event>
 4    1  0.7245070E-001  0.2577077E+03  0.7546771E-02  0.1108528E+00
          2   -1    0    0  502    0  0.00000000000E+00  0.00000000000E+00  0.56534889035E+03  0.56534889035E+03  0.00000000000E+00 0.  1.
         -2   -1    0    0    0  501 -0.00000000000E+00 -0.00000000000E+00 -0.17158993956E+03  0.17158993956E+03  0.00000000000E+00 0. -1.
          6    1    1    2  502    0 -0.43079937709E+02 -0.18608698370E+03 -0.10049845429E+02  0.25790355935E+03  0.17300000000E+03 0. -1.
         -6    1    1    2    0  501  0.43079937709E+02  0.18608698370E+03  0.40380879622E+03  0.47903527056E+03  0.17300000000E+03 0.  1.
<mgrwt>
<rscale>  2 0.25770768E+03</rscale>
<asrwt>0</asrwt>
<pdfrwt beam="1">  1        2 0.86976751E-01 0.25770768E+03</pdfrwt>
<pdfrwt beam="2">  1       -2 0.26398453E-01 0.25770768E+03</pdfrwt>
<totfact> 0.70023676E+02</totfact>
</mgrwt>
</event>
<event>
 4    1  0.7245070E-001  0.2194628E+03  0.7546771E-02  0.1134284E+00
          2   -1    0    0  502    0  0.00000000000E+00  0.00000000000E+00  0.28699549046E+03  0.28699549046E+03  0.00000000000E+00 0. -1.
         -2   -1    0    0    0  501 -0.00000000000E+00 -0.00000000000E+00 -0.17133935662E+03  0.17133935662E+03  0.00000000000E+00 0.  1.
          6    1    1    2  502    0 -0.45683950052E+01 -0.13495938360E+03  0.90666820448E+02  0.23745394877E+03  0.17300000000E+03 0. -1.
         -6    1    1    2    0  501  0.45683950052E+01  0.13495938360E+03  0.24989313392E+02  0.22088089831E+03  0.17300000000E+03 0.  1.
<mgrwt>
<rscale>  2 0.21946277E+03</rscale>
<asrwt>0</asrwt>
<pdfrwt beam="1">  1        2 0.44153152E-01 0.21946277E+03</pdfrwt>
<pdfrwt beam="2">  1       -2 0.26359901E-01 0.21946277E+03</pdfrwt>
<totfact> 0.14758692E+03</totfact>
</mgrwt>
</event>
<event>
 4    1  0.7245070E-001  0.1821838E+03  0.7546771E-02  0.1165706E+00
          2   -1    0    0  502    0  0.00000000000E+00  0.00000000000E+00  0.83039652002E+03  0.83039652002E+03  0.00000000000E+00 0.  1.
         -2   -1    0    0    0  501 -0.00000000000E+00 -0.00000000000E+00 -0.40706976067E+02  0.40706976067E+02  0.00000000000E+00 0. -1.
          6    1    1    2  502    0 -0.36977691615E+02  0.43526771700E+02  0.33623920033E+03  0.38242349480E+03  0.17300000000E+03 0. -1.
         -6    1    1    2    0  501  0.36977691615E+02 -0.43526771700E+02  0.45345034362E+03  0.48868000129E+03  0.17300000000E+03 0.  1.
<mgrwt>
<rscale>  2 0.18218378E+03</rscale>
<asrwt>0</asrwt>
<pdfrwt beam="1">  1        2 0.12775330E+00 0.18218378E+03</pdfrwt>
<pdfrwt beam="2">  1       -2 0.62626123E-02 0.18218378E+03</pdfrwt>
<totfact> 0.46108862E+03</totfact>
</mgrwt>
</event>
<event>
 4    1  0.7245070E-001  0.2149670E+03  0.7546771E-02  0.1137692E+00
         -2   -1    0    0    0  501 -0.00000000000E+00  0.00000000000E+00  0.24565040909E+02  0.24565040909E+02  0.00000000000E+00 0.  1.
          2   -1    0    0  502    0  0.00000000000E+00 -0.00000000000E+00 -0.19681591607E+04  0.19681591607E+04  0.00000000000E+00 0. -1.
          6    1    1    2  502    0  0.11826391517E+03  0.47911135946E+02 -0.76231892071E+03  0.79204858908E+03  0.17300000000E+03 0.  1.
         -6    1    1    2    0  501 -0.11826391517E+03 -0.47911135946E+02 -0.11812751991E+04  0.12006756125E+04  0.17300000000E+03 0. -1.
<mgrwt>
<rscale>  2 0.21496705E+03</rscale>
<asrwt>0</asrwt>
<pdfrwt beam="1">  1        2 0.30279382E+00 0.21496705E+03</pdfrwt>
<pdfrwt beam="2">  1       -2 0.37792358E-02 0.21496705E+03</pdfrwt>
<totfact> 0.23175018E+03</totfact>
</mgrwt>
</event>
<event>
 4    1  0.7245070E-001  0.1833663E+03  0.7546771E-02  0.1164584E+00
          2   -1    0    0  502    0  0.00000000000E+00  0.00000000000E+00  0.52956373246E+03  0.52956373246E+03  0.00000000000E+00 0.  1.
         -2   -1    0    0    0  501 -0.00000000000E+00 -0.00000000000E+00 -0.64428462805E+02  0.64428462805E+02  0.00000000000E+00 0. -1.
          6    1    1    2  502    0  0.47486863783E+02  0.37936598600E+02  0.26836914949E+03  0.32503105720E+03  0.17300000000E+03 0. -1.
         -6    1    1    2    0  501 -0.47486863783E+02 -0.37936598600E+02  0.19676612016E+03  0.26896113806E+03  0.17300000000E+03 0.  1.
<mgrwt>
<rscale>  2 0.18336627E+03</rscale>
<asrwt>0</asrwt>
<pdfrwt beam="1">  1        2 0.81471341E-01 0.18336627E+03</pdfrwt>
<pdfrwt beam="2">  1       -2 0.99120715E-02 0.18336627E+03</pdfrwt>
<totfact> 0.38543511E+03</totfact>
</mgrwt>
</event>
<event>
 4    1  0.7245070E-001  0.1760560E+03  0.7546771E-02  0.1171676E+00
         -1   -1    0    0    0  501 -0.00000000000E+00  0.00000000000E+00  0.50966791889E+02  0.50966791889E+02  0.00000000000E+00 0. -1.
          1   -1    0    0  502    0  0.00000000000E+00 -0.00000000000E+00 -0.64715278121E+03  0.64715278121E+03  0.00000000000E+00 0.  1.
          6    1    1    2  502    0 -0.26881529434E+01  0.32549599841E+02 -0.21240557013E+03  0.27588372341E+03  0.17300000000E+03 0. -1.
         -6    1    1    2    0  501  0.26881529434E+01 -0.32549599841E+02 -0.38378041919E+03  0.42223584970E+03  0.17300000000E+03 0.  1.
<mgrwt>
<rscale>  2 0.17605596E+03</rscale>
<asrwt>0</asrwt>
<pdfrwt beam="1">  1        1 0.99561967E-01 0.17605596E+03</pdfrwt>
<pdfrwt beam="2">  1       -1 0.78410448E-02 0.17605596E+03</pdfrwt>
<totfact> 0.27687367E+03</totfact>
</mgrwt>
</event>
<event>
 4    1  0.7245070E-001  0.1862519E+03  0.7546771E-02  0.1161886E+00
         -1   -1    0    0    0  501 -0.00000000000E+00  0.00000000000E+00  0.67026087756E+02  0.67026087756E+02  0.00000000000E+00 0.  1.
          1   -1    0    0  502    0  0.00000000000E+00 -0.00000000000E+00 -0.52947023155E+03  0.52947023155E+03  0.00000000000E+00 0. -1.
          6    1    1    2  502    0 -0.63721777692E+02  0.26463346796E+02 -0.27596090291E+03  0.33293271635E+03  0.17300000000E+03 0. -1.
         -6    1    1    2    0  501  0.63721777692E+02 -0.26463346796E+02 -0.18648324088E+03  0.26356360296E+03  0.17300000000E+03 0.  1.
<mgrwt>
<rscale>  2 0.18625191E+03</rscale>
<asrwt>0</asrwt>
<pdfrwt beam="1">  1        1 0.81456960E-01 0.18625191E+03</pdfrwt>
<pdfrwt beam="2">  1       -1 0.10311706E-01 0.18625191E+03</pdfrwt>
<totfact> 0.24006901E+03</totfact>
</mgrwt>
</event>
<event>
 4    1  0.7245070E-001  0.1894557E+03  0.7546771E-02  0.1158953E+00
         -1   -1    0    0    0  501 -0.00000000000E+00  0.00000000000E+00  0.13112913113E+03  0.13112913113E+03  0.00000000000E+00 0. -1.
          1   -1    0    0  502    0  0.00000000000E+00 -0.00000000000E+00 -0.33990085162E+03  0.33990085162E+03  0.00000000000E+00 0.  1.
          6    1    1    2  502    0 -0.62025260120E+02  0.46014298182E+02 -0.20830343894E+03  0.28157374026E+03  0.17300000000E+03 0. -1.
         -6    1    1    2    0  501  0.62025260120E+02 -0.46014298182E+02 -0.46828155042E+00  0.18945624249E+03  0.17300000000E+03 0. -1.
<mgrwt>
<rscale>  2 0.18945566E+03</rscale>
<asrwt>0</asrwt>
<pdfrwt beam="1">  1        1 0.52292438E-01 0.18945566E+03</pdfrwt>
<pdfrwt beam="2">  1       -1 0.20173713E-01 0.18945566E+03</pdfrwt>
<totfact> 0.14751932E+03</totfact>
</mgrwt>
</event>
<event>
 4    1  0.7245070E-001  0.1819567E+03  0.7546771E-02  0.1165923E+00
         -1   -1    0    0    0  501 -0.00000000000E+00  0.00000000000E+00  0.32056274237E+02  0.32056274237E+02  0.00000000000E+00 0. -1.
          1   -1    0    0  502    0  0.00000000000E+00 -0.00000000000E+00 -0.11738221632E+04  0.11738221632E+04  0.00000000000E+00 0.  1.
          6    1    1    2  502    0 -0.35267905096E+02 -0.43993529159E+02 -0.36190986944E+03  0.40507654750E+03  0.17300000000E+03 0. -1.
         -6    1    1    2    0  501  0.35267905096E+02  0.43993529159E+02 -0.77985601954E+03  0.80080188996E+03  0.17300000000E+03 0.  1.
<mgrwt>
<rscale>  2 0.18195674E+03</rscale>
<asrwt>0</asrwt>
<pdfrwt beam="1">  1        1 0.18058807E+00 0.18195674E+03</pdfrwt>
<pdfrwt beam="2">  1       -1 0.49317332E-02 0.18195674E+03</pdfrwt>
<totfact> 0.21400756E+03</totfact>
</mgrwt>
</event>
<event>
 4    1  0.7245070E-001  0.1929764E+03  0.7546771E-02  0.1155804E+00
          2   -1    0    0  502    0  0.00000000000E+00  0.00000000000E+00  0.11052005480E+04  0.11052005480E+04  0.00000000000E+00 0. -1.
         -2   -1    0    0    0  501 -0.00000000000E+00 -0.00000000000E+00 -0.33735057687E+02  0.33735057687E+02  0.00000000000E+00 0.  1.
          6    1    1    2  502    0  0.28783704592E+02  0.80513225835E+02  0.55532302760E+03  0.58789756435E+03  0.17300000000E+03 0.  1.
         -6    1    1    2    0  501 -0.28783704592E+02 -0.80513225835E+02  0.51614246267E+03  0.55103804130E+03  0.17300000000E+03 0.  1.
<mgrwt>
<rscale>  2 0.19297637E+03</rscale>
<asrwt>0</asrwt>
<pdfrwt beam="1">  1        2 0.17003083E+00 0.19297637E+03</pdfrwt>
<pdfrwt beam="2">  1       -2 0.51900097E-02 0.19297637E+03</pdfrwt>
<totfact> 0.41582884E+03</totfact>
</mgrwt>
</event>
<event>
 4    1  0.7245070E-001  0.1878454E+03  0.7546771E-02  0.1160419E+00
         -1   -1    0    0    0  501 -0.00000000000E+00  0.00000000000E+00  0.58825947067E+03  0.58825947067E+03  0.00000000000E+00 0. -1.
          1   -1    0    0  502    0  0.00000000000E+00 -0.00000000000E+00 -0.60078892060E+02  0.60078892060E+02  0.00000000000E+00 0.  1.
          6    1    1    2  502    0  0.69289632626E+02  0.23576525500E+02  0.25117817442E+03  0.31365009334E+03  0.17300000000E+03 0.  1.
         -6    1    1    2    0  501 -0.69289632626E+02 -0.23576525500E+02  0.27700240419E+03  0.33468826939E+03  0.17300000000E+03 0.  1.
<mgrwt>
<rscale>  2 0.18784543E+03</rscale>
<asrwt>0</asrwt>
<pdfrwt beam="1">  1        1 0.92429069E-02 0.18784543E+03</pdfrwt>
<pdfrwt beam="2">  1       -1 0.90501453E-01 0.18784543E+03</pdfrwt>
<totfact> 0.89084778E+02</totfact>
</mgrwt>
</event>
<event>
 4    1  0.7245070E-001  0.2582398E+03  0.7546771E-02  0.1108205E+00
          3   -1    0    0  502    0  0.00000000000E+00  0.00000000000E+00  0.28683489090E+03  0.28683489090E+03  0.00000000000E+00 0. -1.
         -3   -1    0    0    0  501 -0.00000000000E+00 -0.00000000000E+00 -0.29046683262E+03  0.29046683262E+03  0.00000000000E+00 0.  1.
          6    1    1    2  502    0 -0.46432064012E+02  0.18601847169E+03 -0.13076895466E+03  0.28946213549E+03  0.17300000000E+03 0.  1.
         -6    1    1    2    0  501  0.46432064012E+02 -0.18601847169E+03  0.12713701295E+03  0.28783958803E+03  0.17300000000E+03 0. -1.
<mgrwt>
<rscale>  2 0.25823983E+03</rscale>
<asrwt>0</asrwt>
<pdfrwt beam="1">  1        3 0.44128445E-01 0.25823983E+03</pdfrwt>
<pdfrwt beam="2">  1       -3 0.44687205E-01 0.25823983E+03</pdfrwt>
<totfact> 0.63785950E+01</totfact>
</mgrwt>
</event>
<event>
 4    1  0.7245070E-001  0.1766673E+03  0.7546771E-02  0.1171068E+00
         -1   -1    0    0    0  501 -0.00000000000E+00  0.00000000000E+00  0.52189456832E+02  0.52189456832E+02  0.00000000000E+00 0. -1.
          1   -1    0    0  502    0  0.00000000000E+00 -0.00000000000E+00 -0.60467691303E+03  0.60467691303E+03  0.00000000000E+00 0.  1.
          6    1    1    2  502    0  0.35236140200E+02  0.63823987243E+01 -0.24183192925E+03  0.29948957009E+03  0.17300000000E+03 0. -1.
         -6    1    1    2    0  501 -0.35236140200E+02 -0.63823987243E+01 -0.31065552695E+03  0.35737679977E+03  0.17300000000E+03 0.  1.
<mgrwt>
<rscale>  2 0.17666726E+03</rscale>
<asrwt>0</asrwt>
<pdfrwt beam="1">  1        1 0.93027217E-01 0.17666726E+03</pdfrwt>
<pdfrwt beam="2">  1       -1 0.80291472E-02 0.17666726E+03</pdfrwt>
<totfact> 0.29356995E+03</totfact>
</mgrwt>
</event>
<event>
 4    1  0.7245070E-001  0.1807928E+03  0.7546771E-02  0.1167038E+00
         -2   -1    0    0    0  501 -0.00000000000E+00  0.00000000000E+00  0.20589723551E+03  0.20589723551E+03  0.00000000000E+00 0. -1.
          2   -1    0    0  502    0  0.00000000000E+00 -0.00000000000E+00 -0.17412923611E+03  0.17412923611E+03  0.00000000000E+00 0.  1.
          6    1    1    2  502    0  0.18757551074E+02  0.49042708762E+02 -0.40587053752E+02  0.18529258468E+03  0.17300000000E+03 0.  1.
         -6    1    1    2    0  501 -0.18757551074E+02 -0.49042708762E+02  0.72355053153E+02  0.19473388694E+03  0.17300000000E+03 0. -1.
<mgrwt>
<rscale>  2 0.18079279E+03</rscale>
<asrwt>0</asrwt>
<pdfrwt beam="1">  1        2 0.26789113E-01 0.18079279E+03</pdfrwt>
<pdfrwt beam="2">  1       -2 0.31676498E-01 0.18079279E+03</pdfrwt>
<totfact> 0.18139794E+03</totfact>
</mgrwt>
</event>
<event>
 4    1  0.7245070E-001  0.2627013E+03  0.7546771E-02  0.1105531E+00
         -2   -1    0    0    0  501 -0.00000000000E+00  0.00000000000E+00  0.33201690140E+02  0.33201690140E+02  0.00000000000E+00 0.  1.
          2   -1    0    0  502    0  0.00000000000E+00 -0.00000000000E+00 -0.29291066608E+04  0.29291066608E+04  0.00000000000E+00 0. -1.
          6    1    1    2  502    0 -0.11825858551E+03 -0.15842311587E+03 -0.64981141838E+03  0.70090431311E+03  0.17300000000E+03 0.  1.
         -6    1    1    2    0  501  0.11825858551E+03  0.15842311587E+03 -0.22460935523E+04  0.22614040379E+04  0.17300000000E+03 0. -1.
<mgrwt>
<rscale>  2 0.26270131E+03</rscale>
<asrwt>0</asrwt>
<pdfrwt beam="1">  1        2 0.45063186E+00 0.26270131E+03</pdfrwt>
<pdfrwt beam="2">  1       -2 0.51079515E-02 0.26270131E+03</pdfrwt>
<totfact> 0.43577501E+02</totfact>
</mgrwt>
</event>
<event>
 4    1  0.7245070E-001  0.3429531E+03  0.7546771E-02  0.1065545E+00
         -1   -1    0    0    0  501 -0.00000000000E+00  0.00000000000E+00  0.52089515851E+03  0.52089515851E+03  0.00000000000E+00 0.  1.
          1   -1    0    0  502    0  0.00000000000E+00 -0.00000000000E+00 -0.22639262883E+03  0.22639262883E+03  0.00000000000E+00 0. -1.
          6    1    1    2  502    0 -0.29610072558E+03  0.34910091908E+01  0.16640840360E+03  0.38119363010E+03  0.17300000000E+03 0. -1.
         -6    1    1    2    0  501  0.29610072558E+03 -0.34910091908E+01  0.12809412608E+03  0.36609415725E+03  0.17300000000E+03 0.  1.
<mgrwt>
<rscale>  2 0.34295310E+03</rscale>
<asrwt>0</asrwt>
<pdfrwt beam="1">  1        1 0.34829635E-01 0.34295310E+03</pdfrwt>
<pdfrwt beam="2">  1       -1 0.80137716E-01 0.34295310E+03</pdfrwt>
<totfact> 0.20376627E+02</totfact>
</mgrwt>
</event>
<event>
 4    1  0.7245070E-001  0.1795702E+03  0.7546771E-02  0.1168220E+00
          2   -1    0    0  502    0  0.00000000000E+00  0.00000000000E+00  0.15883456072E+04  0.15883456072E+04  0.00000000000E+00 0. -1.
         -2   -1    0    0    0  501 -0.00000000000E+00 -0.00000000000E+00 -0.21654079500E+02  0.21654079500E+02  0.00000000000E+00 0.  1.
          6    1    1    2  502    0  0.31268037687E+01  0.48028067424E+02  0.58214005479E+03  0.60920646381E+03  0.17300000000E+03 0.  1.
         -6    1    1    2    0  501 -0.31268037687E+01 -0.48028067424E+02  0.98455147289E+03  0.10007932229E+04  0.17300000000E+03 0. -1.
<mgrwt>
<rscale>  2 0.17957024E+03</rscale>
<asrwt>0</asrwt>
<pdfrwt beam="1">  1        2 0.24436077E+00 0.17957024E+03</pdfrwt>
<pdfrwt beam="2">  1       -2 0.33313981E-02 0.17957024E+03</pdfrwt>
<totfact> 0.44069041E+03</totfact>
</mgrwt>
</event>
<event>
 4    1  0.7245070E-001  0.1920424E+03  0.7546771E-02  0.1156632E+00
          2   -1    0    0  502    0  0.00000000000E+00  0.00000000000E+00  0.25174581485E+03  0.25174581485E+03  0.00000000000E+00 0. -1.
         -2   -1    0    0    0  501 -0.00000000000E+00 -0.00000000000E+00 -0.25209119440E+03  0.25209119440E+03  0.00000000000E+00 0.  1.
          6    1    1    2  502    0  0.59609291402E+02  0.58292540637E+02  0.16286910771E+03  0.25180673971E+03  0.17300000000E+03 0. -1.
         -6    1    1    2    0  501 -0.59609291402E+02 -0.58292540637E+02 -0.16321448726E+03  0.25203026954E+03  0.17300000000E+03 0.  1.
<mgrwt>
<rscale>  2 0.19204241E+03</rscale>
<asrwt>0</asrwt>
<pdfrwt beam="1">  1        2 0.38730125E-01 0.19204241E+03</pdfrwt>
<pdfrwt beam="2">  1       -2 0.38783261E-01 0.19204241E+03</pdfrwt>
<totfact> 0.83489563E+02</totfact>
</mgrwt>
</event>
<event>
 4    1  0.7245070E-001  0.1798214E+03  0.7546771E-02  0.1167976E+00
          1   -1    0    0  502    0  0.00000000000E+00  0.00000000000E+00  0.83633619332E+03  0.83633619332E+03  0.00000000000E+00 0. -1.
         -1   -1    0    0    0  501 -0.00000000000E+00 -0.00000000000E+00 -0.59580280210E+02  0.59580280210E+02  0.00000000000E+00 0.  1.
          6    1    1    2  502    0  0.42593866320E+02  0.24340993457E+02  0.65379769264E+03  0.67807606086E+03  0.17300000000E+03 0. -1.
         -6    1    1    2    0  501 -0.42593866320E+02 -0.24340993457E+02  0.12295822047E+03  0.21784041267E+03  0.17300000000E+03 0.  1.
<mgrwt>
<rscale>  2 0.17982136E+03</rscale>
<asrwt>0</asrwt>
<pdfrwt beam="1">  1        1 0.12866710E+00 0.17982136E+03</pdfrwt>
<pdfrwt beam="2">  1       -1 0.91661976E-02 0.17982136E+03</pdfrwt>
<totfact> 0.14963687E+03</totfact>
</mgrwt>
</event>
<event>
 4    1  0.7245070E-001  0.2496080E+03  0.7546771E-02  0.1113553E+00
         -2   -1    0    0    0  501 -0.00000000000E+00  0.00000000000E+00  0.13780797516E+03  0.13780797516E+03  0.00000000000E+00 0. -1.
          2   -1    0    0  502    0  0.00000000000E+00 -0.00000000000E+00 -0.49848260388E+03  0.49848260388E+03  0.00000000000E+00 0.  1.
          6    1    1    2  502    0  0.96470913520E+02  0.15188330272E+03 -0.83300249333E+02  0.26314084886E+03  0.17300000000E+03 0. -1.
         -6    1    1    2    0  501 -0.96470913520E+02 -0.15188330272E+03 -0.27737437939E+03  0.37314973019E+03  0.17300000000E+03 0.  1.
<mgrwt>
<rscale>  2 0.24960804E+03</rscale>
<asrwt>0</asrwt>
<pdfrwt beam="1">  1        2 0.76689630E-01 0.24960804E+03</pdfrwt>
<pdfrwt beam="2">  1       -2 0.21201227E-01 0.24960804E+03</pdfrwt>
<totfact> 0.11868943E+03</totfact>
</mgrwt>
</event>
<event>
 4    1  0.7245070E-001  0.1840270E+03  0.7546771E-02  0.1163962E+00
         -2   -1    0    0    0  501 -0.00000000000E+00  0.00000000000E+00  0.66473218708E+02  0.66473218708E+02  0.00000000000E+00 0. -1.
          2   -1    0    0  502    0  0.00000000000E+00 -0.00000000000E+00 -0.11005458676E+04  0.11005458676E+04  0.00000000000E+00 0.  1.
          6    1    1    2  502    0 -0.54859169244E+02  0.30453326996E+02 -0.94466466792E+03  0.96242260384E+03  0.17300000000E+03 0.  1.
         -6    1    1    2    0  501  0.54859169244E+02 -0.30453326996E+02 -0.89407980973E+02  0.20459648246E+03  0.17300000000E+03 0. -1.
<mgrwt>
<rscale>  2 0.18402699E+03</rscale>
<asrwt>0</asrwt>
<pdfrwt beam="1">  1        2 0.16931474E+00 0.18402699E+03</pdfrwt>
<pdfrwt beam="2">  1       -2 0.10226650E-01 0.18402699E+03</pdfrwt>
<totfact> 0.14631443E+03</totfact>
</mgrwt>
</event>
<event>
 4    1  0.7245070E-001  0.1854432E+03  0.7546771E-02  0.1162637E+00
         -2   -1    0    0    0  501 -0.00000000000E+00  0.00000000000E+00  0.39968167378E+02  0.39968167378E+02  0.00000000000E+00 0.  1.
          2   -1    0    0  502    0  0.00000000000E+00 -0.00000000000E+00 -0.96626698624E+03  0.96626698624E+03  0.00000000000E+00 0. -1.
          6    1    1    2  502    0 -0.66554684527E+02  0.55378788299E+01 -0.62967127860E+03  0.65641078086E+03  0.17300000000E+03 0. -1.
         -6    1    1    2    0  501  0.66554684527E+02 -0.55378788299E+01 -0.29662754026E+03  0.34982437276E+03  0.17300000000E+03 0.  1.
<mgrwt>
<rscale>  2 0.18544324E+03</rscale>
<asrwt>0</asrwt>
<pdfrwt beam="1">  1        2 0.14865646E+00 0.18544324E+03</pdfrwt>
<pdfrwt beam="2">  1       -2 0.61489489E-02 0.18544324E+03</pdfrwt>
<totfact> 0.38833471E+03</totfact>
</mgrwt>
</event>
<event>
 4    1  0.7245070E-001  0.1803500E+03  0.7546771E-02  0.1167465E+00
         -2   -1    0    0    0  501 -0.00000000000E+00  0.00000000000E+00  0.12076686433E+02  0.12076686433E+02  0.00000000000E+00 0.  1.
          2   -1    0    0  502    0  0.00000000000E+00 -0.00000000000E+00 -0.32776938044E+04  0.32776938044E+04  0.00000000000E+00 0. -1.
          6    1    1    2  502    0 -0.35367333793E+02 -0.36691794577E+02 -0.23273598510E+04  0.23343371676E+04  0.17300000000E+03 0.  1.
         -6    1    1    2    0  501  0.35367333793E+02  0.36691794577E+02 -0.93825726698E+03  0.95543332323E+03  0.17300000000E+03 0. -1.
<mgrwt>
<rscale>  2 0.18035004E+03</rscale>
<asrwt>0</asrwt>
<pdfrwt beam="1">  1        2 0.50426115E+00 0.18035004E+03</pdfrwt>
<pdfrwt beam="2">  1       -2 0.18579497E-02 0.18035004E+03</pdfrwt>
<totfact> 0.12399866E+03</totfact>
</mgrwt>
</event>
<event>
 4    1  0.7245070E-001  0.1857170E+03  0.7546771E-02  0.1162382E+00
          1   -1    0    0  502    0  0.00000000000E+00  0.00000000000E+00  0.92643960217E+03  0.92643960217E+03  0.00000000000E+00 0. -1.
         -1   -1    0    0    0  501 -0.00000000000E+00 -0.00000000000E+00 -0.38102362857E+02  0.38102362857E+02  0.00000000000E+00 0.  1.
          6    1    1    2  502    0 -0.29981735567E+02 -0.60521880763E+02  0.51716643119E+03  0.54950151962E+03  0.17300000000E+03 0. -1.
         -6    1    1    2    0  501  0.29981735567E+02  0.60521880763E+02  0.37117080813E+03  0.41504044541E+03  0.17300000000E+03 0.  1.
<mgrwt>
<rscale>  2 0.18571700E+03</rscale>
<asrwt>0</asrwt>
<pdfrwt beam="1">  1        1 0.14252915E+00 0.18571700E+03</pdfrwt>
<pdfrwt beam="2">  1       -1 0.58619027E-02 0.18571700E+03</pdfrwt>
<totfact> 0.25025214E+03</totfact>
</mgrwt>
</event>
<event>
 4    1  0.7245070E-001  0.1895502E+03  0.7546771E-02  0.1158868E+00
          2   -1    0    0  502    0  0.00000000000E+00  0.00000000000E+00  0.54559166718E+02  0.54559166718E+02  0.00000000000E+00 0.  1.
         -2   -1    0    0    0  501 -0.00000000000E+00 -0.00000000000E+00 -0.67395358479E+03  0.67395358479E+03  0.00000000000E+00 0. -1.
          6    1    1    2  502    0  0.69172152636E+02 -0.34863992285E+02 -0.36478712856E+03  0.41109479907E+03  0.17300000000E+03 0. -1.
         -6    1    1    2    0  501 -0.69172152636E+02  0.34863992285E+02 -0.25460728952E+03  0.31741795245E+03  0.17300000000E+03 0.  1.
<mgrwt>
<rscale>  2 0.18955022E+03</rscale>
<asrwt>0</asrwt>
<pdfrwt beam="1">  1        2 0.83937183E-02 0.18955022E+03</pdfrwt>
<pdfrwt beam="2">  1       -2 0.10368516E+00 0.18955022E+03</pdfrwt>
<totfact> 0.62433944E+02</totfact>
</mgrwt>
</event>
<event>
 4    1  0.7245070E-001  0.1730764E+03  0.7546771E-02  0.1174677E+00
          1   -1    0    0  502    0  0.00000000000E+00  0.00000000000E+00  0.43837768924E+03  0.43837768924E+03  0.00000000000E+00 0.  1.
         -1   -1    0    0    0  501 -0.00000000000E+00 -0.00000000000E+00 -0.11983867239E+03  0.11983867239E+03  0.00000000000E+00 0. -1.
          6    1    1    2  502    0 -0.50241097838E+01 -0.11021832438E+01 -0.23710475320E+02  0.17469299679E+03  0.17300000000E+03 0. -1.
         -6    1    1    2    0  501  0.50241097838E+01  0.11021832438E+01  0.34224949217E+03  0.38352336484E+03  0.17300000000E+03 0.  1.
<mgrwt>
<rscale>  2 0.17307645E+03</rscale>
<asrwt>0</asrwt>
<pdfrwt beam="1">  1        1 0.67442721E-01 0.17307645E+03</pdfrwt>
<pdfrwt beam="2">  1       -1 0.18436719E-01 0.17307645E+03</pdfrwt>
<totfact> 0.12327599E+03</totfact>
</mgrwt>
</event>
<event>
 4    1  0.7245070E-001  0.1730369E+03  0.7546771E-02  0.1174717E+00
         -2   -1    0    0    0  501 -0.00000000000E+00  0.00000000000E+00  0.10966159585E+03  0.10966159585E+03  0.00000000000E+00 0.  1.
          2   -1    0    0  502    0  0.00000000000E+00 -0.00000000000E+00 -0.47940373750E+03  0.47940373750E+03  0.00000000000E+00 0. -1.
          6    1    1    2  502    0 -0.33317166338E+01  0.12954961755E+01  0.83709625150E+01  0.17323929017E+03  0.17300000000E+03 0.  1.
         -6    1    1    2    0  501  0.33317166338E+01 -0.12954961755E+01 -0.37811310417E+03  0.41582604318E+03  0.17300000000E+03 0. -1.
<mgrwt>
<rscale>  2 0.17303693E+03</rscale>
<asrwt>0</asrwt>
<pdfrwt beam="1">  1        2 0.73754421E-01 0.17303693E+03</pdfrwt>
<pdfrwt beam="2">  1       -2 0.16871015E-01 0.17303693E+03</pdfrwt>
<totfact> 0.18151989E+03</totfact>
</mgrwt>
</event>
<event>
 4    1  0.7245070E-001  0.1788289E+03  0.7546771E-02  0.1168941E+00
         -2   -1    0    0    0  501 -0.00000000000E+00  0.00000000000E+00  0.51544054715E+02  0.51544054715E+02  0.00000000000E+00 0. -1.
          2   -1    0    0  502    0  0.00000000000E+00 -0.00000000000E+00 -0.11110771802E+04  0.11110771802E+04  0.00000000000E+00 0.  1.
          6    1    1    2  502    0 -0.24404530090E+00  0.45284849761E+02 -0.14347232942E+03  0.22926859027E+03  0.17300000000E+03 0. -1.
         -6    1    1    2    0  501  0.24404530090E+00 -0.45284849761E+02 -0.91606079609E+03  0.93335264466E+03  0.17300000000E+03 0.  1.
<mgrwt>
<rscale>  2 0.17882890E+03</rscale>
<asrwt>0</asrwt>
<pdfrwt beam="1">  1        2 0.17093496E+00 0.17882890E+03</pdfrwt>
<pdfrwt beam="2">  1       -2 0.79298541E-02 0.17882890E+03</pdfrwt>
<totfact> 0.21501567E+03</totfact>
</mgrwt>
</event>
<event>
 4    1  0.7245070E-001  0.2187391E+03  0.7546771E-02  0.1134827E+00
         -2   -1    0    0    0  501 -0.00000000000E+00  0.00000000000E+00  0.28763994672E+03  0.28763994672E+03  0.00000000000E+00 0. -1.
          2   -1    0    0  502    0  0.00000000000E+00 -0.00000000000E+00 -0.16840684236E+03  0.16840684236E+03  0.00000000000E+00 0.  1.
          6    1    1    2  502    0 -0.13376532468E+03 -0.49619411836E+01  0.34371425024E+02  0.22142307424E+03  0.17300000000E+03 0. -1.
         -6    1    1    2    0  501  0.13376532468E+03  0.49619411836E+01  0.84861679339E+02  0.23462371484E+03  0.17300000000E+03 0.  1.
<mgrwt>
<rscale>  2 0.21873908E+03</rscale>
<asrwt>0</asrwt>
<pdfrwt beam="1">  1        2 0.25908745E-01 0.21873908E+03</pdfrwt>
<pdfrwt beam="2">  1       -2 0.44252300E-01 0.21873908E+03</pdfrwt>
<totfact> 0.10078301E+03</totfact>
</mgrwt>
</event>
<event>
 4    1  0.7245070E-001  0.1851173E+03  0.7546771E-02  0.1162940E+00
          2   -1    0    0  502    0  0.00000000000E+00  0.00000000000E+00  0.21092029717E+04  0.21092029717E+04  0.00000000000E+00 0.  1.
         -2   -1    0    0    0  501 -0.00000000000E+00 -0.00000000000E+00 -0.18480278382E+02  0.18480278382E+02  0.00000000000E+00 0. -1.
          6    1    1    2  502    0 -0.53365786680E+02 -0.38620213872E+02  0.67554628657E+03  0.70045072161E+03  0.17300000000E+03 0. -1.
         -6    1    1    2    0  501  0.53365786680E+02  0.38620213872E+02  0.14151764067E+04  0.14272325285E+04  0.17300000000E+03 0.  1.
<mgrwt>
<rscale>  2 0.18511734E+03</rscale>
<asrwt>0</asrwt>
<pdfrwt beam="1">  1        2 0.32449257E+00 0.18511734E+03</pdfrwt>
<pdfrwt beam="2">  1       -2 0.28431214E-02 0.18511734E+03</pdfrwt>
<totfact> 0.29926873E+03</totfact>
</mgrwt>
</event>
<event>
 4    1  0.7245070E-001  0.1785831E+03  0.7546771E-02  0.1169181E+00
         -2   -1    0    0    0  501 -0.00000000000E+00  0.00000000000E+00  0.35152912433E+02  0.35152912433E+02  0.00000000000E+00 0. -1.
          2   -1    0    0  502    0  0.00000000000E+00 -0.00000000000E+00 -0.11855679725E+04  0.11855679725E+04  0.00000000000E+00 0.  1.
          6    1    1    2  502    0  0.32643635977E+02  0.29955492609E+02 -0.87094461623E+03  0.88906493747E+03  0.17300000000E+03 0. -1.
         -6    1    1    2    0  501 -0.32643635977E+02 -0.29955492609E+02 -0.27947044385E+03  0.33165594747E+03  0.17300000000E+03 0. -1.
<mgrwt>
<rscale>  2 0.17858314E+03</rscale>
<asrwt>0</asrwt>
<pdfrwt beam="1">  1        2 0.18239507E+00 0.17858314E+03</pdfrwt>
<pdfrwt beam="2">  1       -2 0.54081404E-02 0.17858314E+03</pdfrwt>
<totfact> 0.35087455E+03</totfact>
</mgrwt>
</event>
<event>
 4    1  0.7245070E-001  0.1747781E+03  0.7546771E-02  0.1172955E+00
          2   -1    0    0  502    0  0.00000000000E+00  0.00000000000E+00  0.72700570040E+02  0.72700570040E+02  0.00000000000E+00 0. -1.
         -2   -1    0    0    0  501 -0.00000000000E+00 -0.00000000000E+00 -0.56590362910E+03  0.56590362910E+03  0.00000000000E+00 0.  1.
          6    1    1    2  502    0 -0.20811797514E+02  0.13610912004E+02 -0.84571971822E+02  0.19416437948E+03  0.17300000000E+03 0. -1.
         -6    1    1    2    0  501  0.20811797514E+02 -0.13610912004E+02 -0.40863108723E+03  0.44443981966E+03  0.17300000000E+03 0.  1.
<mgrwt>
<rscale>  2 0.17477811E+03</rscale>
<asrwt>0</asrwt>
<pdfrwt beam="1">  1        2 0.11184703E-01 0.17477811E+03</pdfrwt>
<pdfrwt beam="2">  1       -2 0.87062098E-01 0.17477811E+03</pdfrwt>
<totfact> 0.65054830E+02</totfact>
</mgrwt>
</event>
<event>
 4    1  0.7245070E-001  0.2928096E+03  0.7546771E-02  0.1088891E+00
         -1   -1    0    0    0  501 -0.00000000000E+00  0.00000000000E+00  0.81686178515E+02  0.81686178515E+02  0.00000000000E+00 0.  1.
          1   -1    0    0  502    0  0.00000000000E+00 -0.00000000000E+00 -0.10659086680E+04  0.10659086680E+04  0.00000000000E+00 0. -1.
          6    1    1    2  502    0  0.23547003884E+03  0.19035026415E+02 -0.42112674800E+03  0.51291832615E+03  0.17300000000E+03 0. -1.
         -6    1    1    2    0  501 -0.23547003884E+03 -0.19035026415E+02 -0.56309574151E+03  0.63467652039E+03  0.17300000000E+03 0.  1.
<mgrwt>
<rscale>  2 0.29280962E+03</rscale>
<asrwt>0</asrwt>
<pdfrwt beam="1">  1        1 0.16398595E+00 0.29280962E+03</pdfrwt>
<pdfrwt beam="2">  1       -1 0.12567104E-01 0.29280962E+03</pdfrwt>
<totfact> 0.60951669E+02</totfact>
</mgrwt>
</event>
<event>
 4    1  0.7245070E-001  0.2050909E+03  0.7546771E-02  0.1145514E+00
          2   -1    0    0  502    0  0.00000000000E+00  0.00000000000E+00  0.35414608208E+04  0.35414608208E+04  0.00000000000E+00 0.  1.
         -2   -1    0    0    0  501 -0.00000000000E+00 -0.00000000000E+00 -0.12323538112E+02  0.12323538112E+02  0.00000000000E+00 0. -1.
          6    1    1    2  502    0  0.10407807828E+03 -0.36069638251E+02  0.21027709974E+04  0.21127489516E+04  0.17300000000E+03 0.  1.
         -6    1    1    2    0  501 -0.10407807828E+03  0.36069638251E+02  0.14263662853E+04  0.14410354073E+04  0.17300000000E+03 0. -1.
<mgrwt>
<rscale>  2 0.20509087E+03</rscale>
<asrwt>0</asrwt>
<pdfrwt beam="1">  1        2 0.54483932E+00 0.20509087E+03</pdfrwt>
<pdfrwt beam="2">  1       -2 0.18959318E-02 0.20509087E+03</pdfrwt>
<totfact> 0.81012490E+02</totfact>
</mgrwt>
</event>
<event>
 4    1  0.7245070E-001  0.1857902E+03  0.7546771E-02  0.1162314E+00
          2   -1    0    0  502    0  0.00000000000E+00  0.00000000000E+00  0.30706173515E+03  0.30706173515E+03  0.00000000000E+00 0.  1.
         -2   -1    0    0    0  501 -0.00000000000E+00 -0.00000000000E+00 -0.21112325412E+03  0.21112325412E+03  0.00000000000E+00 0. -1.
          6    1    1    2  502    0 -0.52503936851E+01  0.67538272555E+02  0.22512942008E+03  0.29189251562E+03  0.17300000000E+03 0.  1.
         -6    1    1    2    0  501  0.52503936851E+01 -0.67538272555E+02 -0.12919093905E+03  0.22629247364E+03  0.17300000000E+03 0. -1.
<mgrwt>
<rscale>  2 0.18579016E+03</rscale>
<asrwt>0</asrwt>
<pdfrwt beam="1">  1        2 0.47240267E-01 0.18579016E+03</pdfrwt>
<pdfrwt beam="2">  1       -2 0.32480501E-01 0.18579016E+03</pdfrwt>
<totfact> 0.93859139E+02</totfact>
</mgrwt>
</event>
<event>
 4    1  0.7245070E-001  0.2440693E+03  0.7546771E-02  0.1117111E+00
          2   -1    0    0  502    0  0.00000000000E+00  0.00000000000E+00  0.17041195096E+03  0.17041195096E+03  0.00000000000E+00 0.  1.
         -2   -1    0    0    0  501 -0.00000000000E+00 -0.00000000000E+00 -0.35471762724E+03  0.35471762724E+03  0.00000000000E+00 0. -1.
          6    1    1    2  502    0 -0.15890306679E+03  0.66261766553E+02 -0.60503064332E+02  0.25145661084E+03  0.17300000000E+03 0. -1.
         -6    1    1    2    0  501  0.15890306679E+03 -0.66261766553E+02 -0.12380261195E+03  0.27367296737E+03  0.17300000000E+03 0. -1.
<mgrwt>
<rscale>  2 0.24406927E+03</rscale>
<asrwt>0</asrwt>
<pdfrwt beam="1">  1        2 0.26217223E-01 0.24406927E+03</pdfrwt>
<pdfrwt beam="2">  1       -2 0.54571942E-01 0.24406927E+03</pdfrwt>
<totfact> 0.65645680E+02</totfact>
</mgrwt>
</event>
<event>
 4    1  0.7245070E-001  0.1826338E+03  0.7546771E-02  0.1165278E+00
          2   -1    0    0  502    0  0.00000000000E+00  0.00000000000E+00  0.79868662344E+03  0.79868662344E+03  0.00000000000E+00 0. -1.
         -2   -1    0    0    0  501 -0.00000000000E+00 -0.00000000000E+00 -0.49864062617E+02  0.49864062617E+02  0.00000000000E+00 0.  1.
          6    1    1    2  502    0 -0.40195388618E+02 -0.42549137374E+02  0.20339396018E+03  0.27335727792E+03  0.17300000000E+03 0. -1.
         -6    1    1    2    0  501  0.40195388618E+02  0.42549137374E+02  0.54542860065E+03  0.57519340814E+03  0.17300000000E+03 0.  1.
<mgrwt>
<rscale>  2 0.18263378E+03</rscale>
<asrwt>0</asrwt>
<pdfrwt beam="1">  1        2 0.12287486E+00 0.18263378E+03</pdfrwt>
<pdfrwt beam="2">  1       -2 0.76713948E-02 0.18263378E+03</pdfrwt>
<totfact> 0.35439758E+03</totfact>
</mgrwt>
</event>
<event>
 4    1  0.7245070E-001  0.1938199E+03  0.7546771E-02  0.1155060E+00
          1   -1    0    0  502    0  0.00000000000E+00  0.00000000000E+00  0.11610207537E+03  0.11610207537E+03  0.00000000000E+00 0. -1.
         -1   -1    0    0    0  501 -0.00000000000E+00 -0.00000000000E+00 -0.37829913380E+03  0.37829913380E+03  0.00000000000E+00 0.  1.
          6    1    1    2  502    0 -0.76824330396E+02  0.41655416637E+02 -0.37066628877E+02  0.19733242626E+03  0.17300000000E+03 0. -1.
         -6    1    1    2    0  501  0.76824330396E+02 -0.41655416637E+02 -0.22513042955E+03  0.29706878292E+03  0.17300000000E+03 0.  1.
<mgrwt>
<rscale>  2 0.19381989E+03</rscale>
<asrwt>0</asrwt>
<pdfrwt beam="1">  1        1 0.17861858E-01 0.19381989E+03</pdfrwt>
<pdfrwt beam="2">  1       -1 0.58199867E-01 0.19381989E+03</pdfrwt>
<totfact> 0.90903009E+02</totfact>
</mgrwt>
</event>
<event>
 4    1  0.7245070E-001  0.2196076E+03  0.7546771E-02  0.1134176E+00
         -2   -1    0    0    0  501 -0.00000000000E+00  0.00000000000E+00  0.80817147834E+02  0.80817147834E+02  0.00000000000E+00 0. -1.
          2   -1    0    0  502    0  0.00000000000E+00 -0.00000000000E+00 -0.98432729544E+03  0.98432729544E+03  0.00000000000E+00 0.  1.
          6    1    1    2  502    0 -0.13522441844E+03 -0.35839133443E+01 -0.78594158521E+03  0.81604636090E+03  0.17300000000E+03 0.  1.
         -6    1    1    2    0  501  0.13522441844E+03  0.35839133443E+01 -0.11756856239E+03  0.24909808237E+03  0.17300000000E+03 0. -1.
<mgrwt>
<rscale>  2 0.21960758E+03</rscale>
<asrwt>0</asrwt>
<pdfrwt beam="1">  1        2 0.15143497E+00 0.21960758E+03</pdfrwt>
<pdfrwt beam="2">  1       -2 0.12433408E-01 0.21960758E+03</pdfrwt>
<totfact> 0.12547117E+03</totfact>
</mgrwt>
</event>
<event>
 4    1  0.7245070E-001  0.2222432E+03  0.7546771E-02  0.1132222E+00
         -2   -1    0    0    0  501 -0.00000000000E+00  0.00000000000E+00  0.55919026626E+02  0.55919026626E+02  0.00000000000E+00 0.  1.
          2   -1    0    0  502    0  0.00000000000E+00 -0.00000000000E+00 -0.10363778338E+04  0.10363778338E+04  0.00000000000E+00 0. -1.
          6    1    1    2  502    0  0.13227849080E+03  0.44333300738E+02 -0.70014230253E+03  0.73456877451E+03  0.17300000000E+03 0. -1.
         -6    1    1    2    0  501 -0.13227849080E+03 -0.44333300738E+02 -0.28031650464E+03  0.35772808592E+03  0.17300000000E+03 0. -1.
<mgrwt>
<rscale>  2 0.22224320E+03</rscale>
<asrwt>0</asrwt>
<pdfrwt beam="1">  1        2 0.15944275E+00 0.22224320E+03</pdfrwt>
<pdfrwt beam="2">  1       -2 0.86029269E-02 0.22224320E+03</pdfrwt>
<totfact> 0.20986904E+03</totfact>
</mgrwt>
</event>
<event>
 4    1  0.7245070E-001  0.1775478E+03  0.7546771E-02  0.1170198E+00
         -2   -1    0    0    0  501 -0.00000000000E+00  0.00000000000E+00  0.21833689092E+02  0.21833689092E+02  0.00000000000E+00 0. -1.
          2   -1    0    0  502    0  0.00000000000E+00 -0.00000000000E+00 -0.14551272640E+04  0.14551272640E+04  0.00000000000E+00 0.  1.
          6    1    1    2  502    0 -0.38658789390E+02  0.99862509941E+01 -0.78183561301E+03  0.80174194912E+03  0.17300000000E+03 0. -1.
         -6    1    1    2    0  501  0.38658789390E+02 -0.99862509941E+01 -0.65145796192E+03  0.67521900399E+03  0.17300000000E+03 0. -1.
<mgrwt>
<rscale>  2 0.17754782E+03</rscale>
<asrwt>0</asrwt>
<pdfrwt beam="1">  1        2 0.22386580E+00 0.17754782E+03</pdfrwt>
<pdfrwt beam="2">  1       -2 0.33590280E-02 0.17754782E+03</pdfrwt>
<totfact> 0.51142616E+03</totfact>
</mgrwt>
</event>
<event>
 4    1  0.7245070E-001  0.2357726E+03  0.7546771E-02  0.1122641E+00
         -3   -1    0    0    0  501 -0.00000000000E+00  0.00000000000E+00  0.12842190853E+03  0.12842190853E+03  0.00000000000E+00 0. -1.
          3   -1    0    0  502    0  0.00000000000E+00 -0.00000000000E+00 -0.49131991741E+03  0.49131991741E+03  0.00000000000E+00 0.  1.
          6    1    1    2  502    0 -0.15146207344E+03 -0.52143420098E+02 -0.28833678376E+03  0.37246046343E+03  0.17300000000E+03 0.  1.
         -6    1    1    2    0  501  0.15146207344E+03  0.52143420098E+02 -0.74561225130E+02  0.24728136251E+03  0.17300000000E+03 0. -1.
<mgrwt>
<rscale>  2 0.23577255E+03</rscale>
<asrwt>0</asrwt>
<pdfrwt beam="1">  1        3 0.75587678E-01 0.23577255E+03</pdfrwt>
<pdfrwt beam="2">  1       -3 0.19757217E-01 0.23577255E+03</pdfrwt>
<totfact> 0.95928796E+01</totfact>
</mgrwt>
</event>
<event>
 4    1  0.7245070E-001  0.2122285E+03  0.7546771E-02  0.1139813E+00
         -1   -1    0    0    0  501 -0.00000000000E+00  0.00000000000E+00  0.53542685168E+02  0.53542685168E+02  0.00000000000E+00 0.  1.
          1   -1    0    0  502    0  0.00000000000E+00 -0.00000000000E+00 -0.10325657043E+04  0.10325657043E+04  0.00000000000E+00 0. -1.
          6    1    1    2  502    0 -0.75028353815E+02  0.97379150599E+02 -0.25573630435E+03  0.33232816644E+03  0.17300000000E+03 0.  1.
         -6    1    1    2    0  501  0.75028353815E+02 -0.97379150599E+02 -0.72328671476E+03  0.75378022301E+03  0.17300000000E+03 0.  1.
<mgrwt>
<rscale>  2 0.21222854E+03</rscale>
<asrwt>0</asrwt>
<pdfrwt beam="1">  1        1 0.15885627E+00 0.21222854E+03</pdfrwt>
<pdfrwt beam="2">  1       -1 0.82373355E-02 0.21222854E+03</pdfrwt>
<totfact> 0.12465110E+03</totfact>
</mgrwt>
</event>
<event>
 4    1  0.7245070E-001  0.3295716E+03  0.7546771E-02  0.1071327E+00
         -2   -1    0    0    0  501 -0.00000000000E+00  0.00000000000E+00  0.61670597398E+02  0.61670597398E+02  0.00000000000E+00 0.  1.
          2   -1    0    0  502    0  0.00000000000E+00 -0.00000000000E+00 -0.20839590493E+04  0.20839590493E+04  0.00000000000E+00 0. -1.
          6    1    1    2  502    0 -0.27759197470E+03 -0.40387251910E+02 -0.14333116437E+04  0.14707140112E+04  0.17300000000E+03 0. -1.
         -6    1    1    2    0  501  0.27759197470E+03  0.40387251910E+02 -0.58897680812E+03  0.67491563549E+03  0.17300000000E+03 0.  1.
<mgrwt>
<rscale>  2 0.32957159E+03</rscale>
<asrwt>0</asrwt>
<pdfrwt beam="1">  1        2 0.32060904E+00 0.32957159E+03</pdfrwt>
<pdfrwt beam="2">  1       -2 0.94877856E-02 0.32957159E+03</pdfrwt>
<totfact> 0.48028114E+02</totfact>
</mgrwt>
</event>
<event>
 4    1  0.7245070E-001  0.1878355E+03  0.7546771E-02  0.1160428E+00
         -2   -1    0    0    0  501 -0.00000000000E+00  0.00000000000E+00  0.86543845988E+02  0.86543845988E+02  0.00000000000E+00 0. -1.
          2   -1    0    0  502    0  0.00000000000E+00 -0.00000000000E+00 -0.66380959900E+03  0.66380959900E+03  0.00000000000E+00 0.  1.
          6    1    1    2  502    0  0.44542038851E+02  0.58044807489E+02 -0.55585602301E+02  0.19588760064E+03  0.17300000000E+03 0. -1.
         -6    1    1    2    0  501 -0.44542038851E+02 -0.58044807489E+02 -0.52168015071E+03  0.55446584434E+03  0.17300000000E+03 0.  1.
<mgrwt>
<rscale>  2 0.18783555E+03</rscale>
<asrwt>0</asrwt>
<pdfrwt beam="1">  1        2 0.10212455E+00 0.18783555E+03</pdfrwt>
<pdfrwt beam="2">  1       -2 0.13314438E-01 0.18783555E+03</pdfrwt>
<totfact> 0.18537526E+03</totfact>
</mgrwt>
</event>
<event>
 4    1  0.7245070E-001  0.1786648E+03  0.7546771E-02  0.1169101E+00
         -2   -1    0    0    0  501 -0.00000000000E+00  0.00000000000E+00  0.20209209714E+03  0.20209209714E+03  0.00000000000E+00 0. -1.
          2   -1    0    0  502    0  0.00000000000E+00 -0.00000000000E+00 -0.33784395376E+03  0.33784395376E+03  0.00000000000E+00 0.  1.
          6    1    1    2  502    0  0.10559581256E+02  0.43366158197E+02 -0.26487240842E+03  0.31949729448E+03  0.17300000000E+03 0.  1.
         -6    1    1    2    0  501 -0.10559581256E+02 -0.43366158197E+02  0.12912055180E+03  0.22043875642E+03  0.17300000000E+03 0. -1.
<mgrwt>
<rscale>  2 0.17866485E+03</rscale>
<asrwt>0</asrwt>
<pdfrwt beam="1">  1        2 0.51975993E-01 0.17866485E+03</pdfrwt>
<pdfrwt beam="2">  1       -2 0.31091092E-01 0.17866485E+03</pdfrwt>
<totfact> 0.91728207E+02</totfact>
</mgrwt>
</event>
<event>
 4    1  0.7245070E-001  0.1903153E+03  0.7546771E-02  0.1158177E+00
         -2   -1    0    0    0  501 -0.00000000000E+00  0.00000000000E+00  0.34414241020E+03  0.34414241020E+03  0.00000000000E+00 0.  1.
          2   -1    0    0  502    0  0.00000000000E+00 -0.00000000000E+00 -0.11445806146E+03  0.11445806146E+03  0.00000000000E+00 0. -1.
          6    1    1    2  502    0 -0.96425059000E+01 -0.78726904840E+02  0.17989104545E+03  0.26187915477E+03  0.17300000000E+03 0. -1.
         -6    1    1    2    0  501  0.96425059000E+01  0.78726904840E+02  0.49793303284E+02  0.19672131689E+03  0.17300000000E+03 0. -1.
<mgrwt>
<rscale>  2 0.19031527E+03</rscale>
<asrwt>0</asrwt>
<pdfrwt beam="1">  1        2 0.17608933E-01 0.19031527E+03</pdfrwt>
<pdfrwt beam="2">  1       -2 0.52944986E-01 0.19031527E+03</pdfrwt>
<totfact> 0.10919688E+03</totfact>
</mgrwt>
</event>
<event>
 4    1  0.7245070E-001  0.1942947E+03  0.7546771E-02  0.1154644E+00
         -2   -1    0    0    0  501 -0.00000000000E+00  0.00000000000E+00  0.35444364597E+02  0.35444364597E+02  0.00000000000E+00 0.  1.
          2   -1    0    0  502    0  0.00000000000E+00 -0.00000000000E+00 -0.13266831656E+04  0.13266831656E+04  0.00000000000E+00 0. -1.
          6    1    1    2  502    0  0.16774364589E+02  0.86833545568E+02 -0.34317841227E+03  0.39436260800E+03  0.17300000000E+03 0.  1.
         -6    1    1    2    0  501 -0.16774364589E+02 -0.86833545568E+02 -0.94806038876E+03  0.96776492222E+03  0.17300000000E+03 0. -1.
<mgrwt>
<rscale>  2 0.19429473E+03</rscale>
<asrwt>0</asrwt>
<pdfrwt beam="1">  1        2 0.20410510E+00 0.19429473E+03</pdfrwt>
<pdfrwt beam="2">  1       -2 0.54529792E-02 0.19429473E+03</pdfrwt>
<totfact> 0.28987901E+03</totfact>
</mgrwt>
</event>
<event>
 4    1  0.7245070E-001  0.1730281E+03  0.7546771E-02  0.1174726E+00
         -3   -1    0    0    0  501 -0.00000000000E+00  0.00000000000E+00  0.11500455081E+03  0.11500455081E+03  0.00000000000E+00 0. -1.
          3   -1    0    0  502    0  0.00000000000E+00 -0.00000000000E+00 -0.46242785994E+03  0.46242785994E+03  0.00000000000E+00 0.  1.
          6    1    1    2  502    0  0.27842646248E+01  0.14084191492E+01  0.17156621112E+02  0.17387663852E+03  0.17300000000E+03 0. -1.
         -6    1    1    2    0  501 -0.27842646248E+01 -0.14084191492E+01 -0.36457993024E+03  0.40355577224E+03  0.17300000000E+03 0.  1.
<mgrwt>
<rscale>  2 0.17302814E+03</rscale>
<asrwt>0</asrwt>
<pdfrwt beam="1">  1        3 0.71142748E-01 0.17302814E+03</pdfrwt>
<pdfrwt beam="2">  1       -3 0.17693008E-01 0.17302814E+03</pdfrwt>
<totfact> 0.12905484E+02</totfact>
</mgrwt>
</event>
<event>
 4    1  0.7245070E-001  0.2464290E+03  0.7546771E-02  0.1115583E+00
         -1   -1    0    0    0  501 -0.00000000000E+00  0.00000000000E+00  0.67154883471E+02  0.67154883471E+02  0.00000000000E+00 0.  1.
          1   -1    0    0  502    0  0.00000000000E+00 -0.00000000000E+00 -0.91112572401E+03  0.91112572401E+03  0.00000000000E+00 0. -1.
          6    1    1    2  502    0  0.79135606417E+02 -0.15663915677E+03 -0.46436343103E+03  0.52570016712E+03  0.17300000000E+03 0. -1.
         -6    1    1    2    0  501 -0.79135606417E+02  0.15663915677E+03 -0.37960740951E+03  0.45258044036E+03  0.17300000000E+03 0. -1.
<mgrwt>
<rscale>  2 0.24642904E+03</rscale>
<asrwt>0</asrwt>
<pdfrwt beam="1">  1        1 0.14017318E+00 0.24642904E+03</pdfrwt>
<pdfrwt beam="2">  1       -1 0.10331521E-01 0.24642904E+03</pdfrwt>
<totfact> 0.10861606E+03</totfact>
</mgrwt>
</event>
<event>
 4    1  0.7245070E-001  0.1890156E+03  0.7546771E-02  0.1159352E+00
         -1   -1    0    0    0  501 -0.00000000000E+00  0.00000000000E+00  0.40809823264E+02  0.40809823264E+02  0.00000000000E+00 0. -1.
          1   -1    0    0  502    0  0.00000000000E+00 -0.00000000000E+00 -0.96592704336E+03  0.96592704336E+03  0.00000000000E+00 0.  1.
          6    1    1    2  502    0  0.46992302855E+02 -0.59913562843E+02 -0.30850004398E+03  0.36179992907E+03  0.17300000000E+03 0. -1.
         -6    1    1    2    0  501 -0.46992302855E+02  0.59913562843E+02 -0.61661717611E+03  0.64493693755E+03  0.17300000000E+03 0.  1.
<mgrwt>
<rscale>  2 0.18901564E+03</rscale>
<asrwt>0</asrwt>
<pdfrwt beam="1">  1        1 0.14860416E+00 0.18901564E+03</pdfrwt>
<pdfrwt beam="2">  1       -1 0.62784345E-02 0.18901564E+03</pdfrwt>
<totfact> 0.21072833E+03</totfact>
</mgrwt>
</event>
<event>
 4    1  0.7245070E-001  0.2073794E+03  0.7546771E-02  0.1143658E+00
          2   -1    0    0  502    0  0.00000000000E+00  0.00000000000E+00  0.94017702736E+03  0.94017702736E+03  0.00000000000E+00 0. -1.
         -2   -1    0    0    0  501 -0.00000000000E+00 -0.00000000000E+00 -0.10516746555E+03  0.10516746555E+03  0.00000000000E+00 0.  1.
          6    1    1    2  502    0 -0.11106177448E+03 -0.27249040523E+02  0.24613397211E+02  0.20883497620E+03  0.17300000000E+03 0.  1.
         -6    1    1    2    0  501  0.11106177448E+03  0.27249040523E+02  0.81039616459E+03  0.83650951671E+03  0.17300000000E+03 0. -1.
<mgrwt>
<rscale>  2 0.20737943E+03</rscale>
<asrwt>0</asrwt>
<pdfrwt beam="1">  1        2 0.14464261E+00 0.20737943E+03</pdfrwt>
<pdfrwt beam="2">  1       -2 0.16179611E-01 0.20737943E+03</pdfrwt>
<totfact> 0.86767353E+02</totfact>
</mgrwt>
</event>
<event>
 4    1  0.7245070E-001  0.1969783E+03  0.7546771E-02  0.1152314E+00
         -2   -1    0    0    0  501 -0.00000000000E+00  0.00000000000E+00  0.30360949307E+02  0.30360949307E+02  0.00000000000E+00 0.  1.
          2   -1    0    0  502    0  0.00000000000E+00 -0.00000000000E+00 -0.13001885205E+04  0.13001885205E+04  0.00000000000E+00 0. -1.
          6    1    1    2  502    0 -0.94043121716E+02  0.52306304931E+01 -0.72187544079E+03  0.74826774637E+03  0.17300000000E+03 0.  1.
         -6    1    1    2    0  501  0.94043121716E+02 -0.52306304931E+01 -0.54795213036E+03  0.58228172340E+03  0.17300000000E+03 0.  1.
<mgrwt>
<rscale>  2 0.19697834E+03</rscale>
<asrwt>0</asrwt>
<pdfrwt beam="1">  1        2 0.20002905E+00 0.19697834E+03</pdfrwt>
<pdfrwt beam="2">  1       -2 0.46709142E-02 0.19697834E+03</pdfrwt>
<totfact> 0.37902578E+03</totfact>
</mgrwt>
</event>
<event>
 4    1  0.7245070E-001  0.1980750E+03  0.7546771E-02  0.1151373E+00
         -2   -1    0    0    0  501 -0.00000000000E+00  0.00000000000E+00  0.14543829337E+03  0.14543829337E+03  0.00000000000E+00 0. -1.
          2   -1    0    0  502    0  0.00000000000E+00 -0.00000000000E+00 -0.28200846906E+03  0.28200846906E+03  0.00000000000E+00 0.  1.
          6    1    1    2  502    0  0.84991862071E+02  0.45619063097E+02 -0.23747412324E+02  0.19949349646E+03  0.17300000000E+03 0. -1.
         -6    1    1    2    0  501 -0.84991862071E+02 -0.45619063097E+02 -0.11282276337E+03  0.22795326598E+03  0.17300000000E+03 0.  1.
<mgrwt>
<rscale>  2 0.19807503E+03</rscale>
<asrwt>0</asrwt>
<pdfrwt beam="1">  1        2 0.43385919E-01 0.19807503E+03</pdfrwt>
<pdfrwt beam="2">  1       -2 0.22375122E-01 0.19807503E+03</pdfrwt>
<totfact> 0.19997963E+03</totfact>
</mgrwt>
</event>
<event>
 4    1  0.7245070E-001  0.2866376E+03  0.7546771E-02  0.1092118E+00
         -2   -1    0    0    0  501 -0.00000000000E+00  0.00000000000E+00  0.75627774487E+02  0.75627774487E+02  0.00000000000E+00 0. -1.
          2   -1    0    0  502    0  0.00000000000E+00 -0.00000000000E+00 -0.11395512140E+04  0.11395512140E+04  0.00000000000E+00 0.  1.
          6    1    1    2  502    0 -0.13266940485E+03  0.18609388517E+03 -0.40072691425E+03  0.49268972476E+03  0.17300000000E+03 0. -1.
         -6    1    1    2    0  501  0.13266940485E+03 -0.18609388517E+03 -0.66319652529E+03  0.72248926375E+03  0.17300000000E+03 0.  1.
<mgrwt>
<rscale>  2 0.28663758E+03</rscale>
<asrwt>0</asrwt>
<pdfrwt beam="1">  1        2 0.17531555E+00 0.28663758E+03</pdfrwt>
<pdfrwt beam="2">  1       -2 0.11635044E-01 0.28663758E+03</pdfrwt>
<totfact> 0.11265709E+03</totfact>
</mgrwt>
</event>
<event>
 4    1  0.7245070E-001  0.3327627E+03  0.7546771E-02  0.1069921E+00
         -1   -1    0    0    0  501 -0.00000000000E+00  0.00000000000E+00  0.19557208564E+03  0.19557208564E+03  0.00000000000E+00 0. -1.
          1   -1    0    0  502    0  0.00000000000E+00 -0.00000000000E+00 -0.60055388856E+03  0.60055388856E+03  0.00000000000E+00 0.  1.
          6    1    1    2  502    0  0.28135778308E+03 -0.40494370850E+02 -0.10727143111E+03  0.34962573719E+03  0.17300000000E+03 0. -1.
         -6    1    1    2    0  501 -0.28135778308E+03  0.40494370850E+02 -0.29771037180E+03  0.44650023701E+03  0.17300000000E+03 0.  1.
<mgrwt>
<rscale>  2 0.33276267E+03</rscale>
<asrwt>0</asrwt>
<pdfrwt beam="1">  1        1 0.92392906E-01 0.33276267E+03</pdfrwt>
<pdfrwt beam="2">  1       -1 0.30088013E-01 0.33276267E+03</pdfrwt>
<totfact> 0.35797196E+02</totfact>
</mgrwt>
</event>
<event>
 4    1  0.7245070E-001  0.2543166E+03  0.7546771E-02  0.1110607E+00
          2   -1    0    0  502    0  0.00000000000E+00  0.00000000000E+00  0.96491275738E+03  0.96491275738E+03  0.00000000000E+00 0.  1.
         -2   -1    0    0    0  501 -0.00000000000E+00 -0.00000000000E+00 -0.12671601333E+03  0.12671601333E+03  0.00000000000E+00 0. -1.
          6    1    1    2  502    0 -0.18568967061E+03  0.16348537232E+02  0.79370023964E+03  0.83344885797E+03  0.17300000000E+03 0.  1.
         -6    1    1    2    0  501  0.18568967061E+03 -0.16348537232E+02  0.44496504404E+02  0.25817991275E+03  0.17300000000E+03 0. -1.
<mgrwt>
<rscale>  2 0.25431659E+03</rscale>
<asrwt>0</asrwt>
<pdfrwt beam="1">  1        2 0.14844811E+00 0.25431659E+03</pdfrwt>
<pdfrwt beam="2">  1       -2 0.19494772E-01 0.25431659E+03</pdfrwt>
<totfact> 0.60983373E+02</totfact>
</mgrwt>
</event>
<event>
 4    1  0.7245070E-001  0.1804467E+03  0.7546771E-02  0.1167371E+00
          2   -1    0    0  502    0  0.00000000000E+00  0.00000000000E+00  0.13590733753E+04  0.13590733753E+04  0.00000000000E+00 0. -1.
         -2   -1    0    0    0  501 -0.00000000000E+00 -0.00000000000E+00 -0.50515200763E+02  0.50515200763E+02  0.00000000000E+00 0.  1.
          6    1    1    2  502    0  0.30059886891E+02 -0.41574183916E+02  0.14325602615E+03  0.23039813062E+03  0.17300000000E+03 0.  1.
         -6    1    1    2    0  501 -0.30059886891E+02  0.41574183916E+02  0.11653021484E+04  0.11791904455E+04  0.17300000000E+03 0. -1.
<mgrwt>
<rscale>  2 0.18044669E+03</rscale>
<asrwt>0</asrwt>
<pdfrwt beam="1">  1        2 0.20908818E+00 0.18044669E+03</pdfrwt>
<pdfrwt beam="2">  1       -2 0.77715704E-02 0.18044669E+03</pdfrwt>
<totfact> 0.16151920E+03</totfact>
</mgrwt>
</event>
<event>
 4    1  0.7245070E-001  0.2156246E+03  0.7546771E-02  0.1137188E+00
         -2   -1    0    0    0  501 -0.00000000000E+00  0.00000000000E+00  0.28249036531E+02  0.28249036531E+02  0.00000000000E+00 0. -1.
          2   -1    0    0  502    0  0.00000000000E+00 -0.00000000000E+00 -0.17493909704E+04  0.17493909704E+04  0.00000000000E+00 0.  1.
          6    1    1    2  502    0  0.73573555998E+02  0.10560256565E+03 -0.64434655525E+03  0.67946777206E+03  0.17300000000E+03 0.  1.
         -6    1    1    2    0  501 -0.73573555998E+02 -0.10560256565E+03 -0.10767953786E+04  0.10981722348E+04  0.17300000000E+03 0.  1.
<mgrwt>
<rscale>  2 0.21562460E+03</rscale>
<asrwt>0</asrwt>
<pdfrwt beam="1">  1        2 0.26913709E+00 0.21562460E+03</pdfrwt>
<pdfrwt beam="2">  1       -2 0.43460054E-02 0.21562460E+03</pdfrwt>
<totfact> 0.24417801E+03</totfact>
</mgrwt>
</event>
<event>
 4    1  0.7245070E-001  0.2097689E+03  0.7546771E-02  0.1141749E+00
         -1   -1    0    0    0  501 -0.00000000000E+00  0.00000000000E+00  0.53280746182E+02  0.53280746182E+02  0.00000000000E+00 0. -1.
          1   -1    0    0  502    0  0.00000000000E+00 -0.00000000000E+00 -0.82915168139E+03  0.82915168139E+03  0.00000000000E+00 0.  1.
          6    1    1    2  502    0  0.73795670495E+02 -0.92887974187E+02 -0.41569257018E+03  0.46562140161E+03  0.17300000000E+03 0.  1.
         -6    1    1    2    0  501 -0.73795670495E+02  0.92887974187E+02 -0.36017836503E+03  0.41681102597E+03  0.17300000000E+03 0. -1.
<mgrwt>
<rscale>  2 0.20976887E+03</rscale>
<asrwt>0</asrwt>
<pdfrwt beam="1">  1        1 0.12756178E+00 0.20976887E+03</pdfrwt>
<pdfrwt beam="2">  1       -1 0.81970388E-02 0.20976887E+03</pdfrwt>
<totfact> 0.18016463E+03</totfact>
</mgrwt>
</event>
<event>
 4    1  0.7245070E-001  0.2672117E+03  0.7546771E-02  0.1102886E+00
         -2   -1    0    0    0  501 -0.00000000000E+00  0.00000000000E+00  0.83057470129E+02  0.83057470129E+02  0.00000000000E+00 0. -1.
          2   -1    0    0  502    0  0.00000000000E+00 -0.00000000000E+00 -0.10184498755E+04  0.10184498755E+04  0.00000000000E+00 0.  1.
          6    1    1    2  502    0  0.19479348804E+03 -0.59401874127E+02 -0.68515858602E+03  0.73542122190E+03  0.17300000000E+03 0.  1.
         -6    1    1    2    0  501 -0.19479348804E+03  0.59401874127E+02 -0.25023381935E+03  0.36608612372E+03  0.17300000000E+03 0. -1.
<mgrwt>
<rscale>  2 0.26721169E+03</rscale>
<asrwt>0</asrwt>
<pdfrwt beam="1">  1        2 0.15668459E+00 0.26721169E+03</pdfrwt>
<pdfrwt beam="2">  1       -2 0.12778073E-01 0.26721169E+03</pdfrwt>
<totfact> 0.11427898E+03</totfact>
</mgrwt>
</event>
<event>
 4    1  0.7245070E-001  0.1740963E+03  0.7546771E-02  0.1173642E+00
          2   -1    0    0  502    0  0.00000000000E+00  0.00000000000E+00  0.85153634343E+02  0.85153634343E+02  0.00000000000E+00 0.  1.
         -2   -1    0    0    0  501 -0.00000000000E+00 -0.00000000000E+00 -0.43152956008E+03  0.43152956008E+03  0.00000000000E+00 0. -1.
          6    1    1    2  502    0 -0.18421508658E+02 -0.64155899262E+01 -0.28131204431E+03  0.33082620520E+03  0.17300000000E+03 0. -1.
         -6    1    1    2    0  501  0.18421508658E+02  0.64155899262E+01 -0.65063881427E+02  0.18585698922E+03  0.17300000000E+03 0.  1.
<mgrwt>
<rscale>  2 0.17409627E+03</rscale>
<asrwt>0</asrwt>
<pdfrwt beam="1">  1        2 0.13100559E-01 0.17409627E+03</pdfrwt>
<pdfrwt beam="2">  1       -2 0.66389165E-01 0.17409627E+03</pdfrwt>
<totfact> 0.96827890E+02</totfact>
</mgrwt>
</event>
<event>
 4    1  0.7245070E-001  0.2232726E+03  0.7546771E-02  0.1131466E+00
         -2   -1    0    0    0  501 -0.00000000000E+00  0.00000000000E+00  0.72018230722E+02  0.72018230722E+02  0.00000000000E+00 0.  1.
          2   -1    0    0  502    0  0.00000000000E+00 -0.00000000000E+00 -0.87942191572E+03  0.87942191572E+03  0.00000000000E+00 0. -1.
          6    1    1    2  502    0  0.72321959293E+02  0.12120713513E+03 -0.18420040948E+03  0.28944848636E+03  0.17300000000E+03 0.  1.
         -6    1    1    2    0  501 -0.72321959293E+02 -0.12120713513E+03 -0.62320327552E+03  0.66199166009E+03  0.17300000000E+03 0. -1.
<mgrwt>
<rscale>  2 0.22327256E+03</rscale>
<asrwt>0</asrwt>
<pdfrwt beam="1">  1        2 0.13529568E+00 0.22327256E+03</pdfrwt>
<pdfrwt beam="2">  1       -2 0.11079727E-01 0.22327256E+03</pdfrwt>
<totfact> 0.17602361E+03</totfact>
</mgrwt>
</event>
<event>
 4    1  0.7245070E-001  0.2748569E+03  0.7546771E-02  0.1098532E+00
          1   -1    0    0  502    0  0.00000000000E+00  0.00000000000E+00  0.98618812060E+02  0.98618812060E+02  0.00000000000E+00 0.  1.
         -1   -1    0    0    0  501 -0.00000000000E+00 -0.00000000000E+00 -0.84561673255E+03  0.84561673255E+03  0.00000000000E+00 0. -1.
          6    1    1    2  502    0  0.87233813897E+02  0.19495526528E+03 -0.51832519422E+03  0.58669182772E+03  0.17300000000E+03 0. -1.
         -6    1    1    2    0  501 -0.87233813897E+02 -0.19495526528E+03 -0.22867272627E+03  0.35754371689E+03  0.17300000000E+03 0.  1.
<mgrwt>
<rscale>  2 0.27485686E+03</rscale>
<asrwt>0</asrwt>
<pdfrwt beam="1">  1        1 0.15172125E-01 0.27485686E+03</pdfrwt>
<pdfrwt beam="2">  1       -1 0.13009488E+00 0.27485686E+03</pdfrwt>
<totfact> 0.20005183E+02</totfact>
</mgrwt>
</event>
<event>
 4    1  0.7245070E-001  0.4066093E+03  0.7546771E-02  0.1041515E+00
         -1   -1    0    0    0  501 -0.00000000000E+00  0.00000000000E+00  0.15108017090E+03  0.15108017090E+03  0.00000000000E+00 0. -1.
          1   -1    0    0  502    0  0.00000000000E+00 -0.00000000000E+00 -0.13871089329E+04  0.13871089329E+04  0.00000000000E+00 0.  1.
          6    1    1    2  502    0 -0.16613387884E+03  0.32833161623E+03 -0.97135743569E+03  0.10530272474E+04  0.17300000000E+03 0.  1.
         -6    1    1    2    0  501  0.16613387884E+03 -0.32833161623E+03 -0.26467132629E+03  0.48516185636E+03  0.17300000000E+03 0. -1.
<mgrwt>
<rscale>  2 0.40660929E+03</rscale>
<asrwt>0</asrwt>
<pdfrwt beam="1">  1        1 0.21340137E+00 0.40660929E+03</pdfrwt>
<pdfrwt beam="2">  1       -1 0.23243104E-01 0.40660929E+03</pdfrwt>
<totfact> 0.13183842E+02</totfact>
</mgrwt>
</event>
<event>
 4    1  0.7245070E-001  0.2978972E+03  0.7546771E-02  0.1086297E+00
          2   -1    0    0  502    0  0.00000000000E+00  0.00000000000E+00  0.10498897345E+04  0.10498897345E+04  0.00000000000E+00 0. -1.
         -2   -1    0    0    0  501 -0.00000000000E+00 -0.00000000000E+00 -0.91735288347E+02  0.91735288347E+02  0.00000000000E+00 0.  1.
          6    1    1    2  502    0 -0.21738419260E+03 -0.10750753237E+03  0.31905589745E+03  0.43650821574E+03  0.17300000000E+03 0.  1.
         -6    1    1    2    0  501  0.21738419260E+03  0.10750753237E+03  0.63909854870E+03  0.70511680711E+03  0.17300000000E+03 0. -1.
<mgrwt>
<rscale>  2 0.29789723E+03</rscale>
<asrwt>0</asrwt>
<pdfrwt beam="1">  1        2 0.16152149E+00 0.29789723E+03</pdfrwt>
<pdfrwt beam="2">  1       -2 0.14113122E-01 0.29789723E+03</pdfrwt>
<totfact> 0.92805039E+02</totfact>
</mgrwt>
</event>
<event>
 4    1  0.7245070E-001  0.2204535E+03  0.7546771E-02  0.1133545E+00
         -2   -1    0    0    0  501 -0.00000000000E+00  0.00000000000E+00  0.80959475353E+02  0.80959475353E+02  0.00000000000E+00 0.  1.
          2   -1    0    0  502    0  0.00000000000E+00 -0.00000000000E+00 -0.63893290426E+03  0.63893290426E+03  0.00000000000E+00 0. -1.
          6    1    1    2  502    0  0.10071129174E+03  0.92346985276E+02 -0.36749939806E+03  0.42855050758E+03  0.17300000000E+03 0. -1.
         -6    1    1    2    0  501 -0.10071129174E+03 -0.92346985276E+02 -0.19047403085E+03  0.29134187204E+03  0.17300000000E+03 0.  1.
<mgrwt>
<rscale>  2 0.22045346E+03</rscale>
<asrwt>0</asrwt>
<pdfrwt beam="1">  1        2 0.98297373E-01 0.22045346E+03</pdfrwt>
<pdfrwt beam="2">  1       -2 0.12455303E-01 0.22045346E+03</pdfrwt>
<totfact> 0.21673425E+03</totfact>
</mgrwt>
</event>
<event>
 4    1  0.7245070E-001  0.2188352E+03  0.7546771E-02  0.1134754E+00
         -2   -1    0    0    0  501 -0.00000000000E+00  0.00000000000E+00  0.70504675439E+02  0.70504675439E+02  0.00000000000E+00 0. -1.
          2   -1    0    0  502    0  0.00000000000E+00 -0.00000000000E+00 -0.92959610820E+03  0.92959610820E+03  0.00000000000E+00 0.  1.
          6    1    1    2  502    0 -0.12088388285E+02 -0.13346810423E+03 -0.68905608911E+03  0.72297106299E+03  0.17300000000E+03 0.  1.
         -6    1    1    2    0  501  0.12088388285E+02  0.13346810423E+03 -0.17003534364E+03  0.27712972065E+03  0.17300000000E+03 0. -1.
<mgrwt>
<rscale>  2 0.21883524E+03</rscale>
<asrwt>0</asrwt>
<pdfrwt beam="1">  1        2 0.14301478E+00 0.21883524E+03</pdfrwt>
<pdfrwt beam="2">  1       -2 0.10846874E-01 0.21883524E+03</pdfrwt>
<totfact> 0.16907249E+03</totfact>
</mgrwt>
</event>
<event>
 4    1  0.7245070E-001  0.1781686E+03  0.7546771E-02  0.1169587E+00
         -3   -1    0    0    0  501 -0.00000000000E+00  0.00000000000E+00  0.30440138167E+03  0.30440138167E+03  0.00000000000E+00 0.  1.
          3   -1    0    0  502    0  0.00000000000E+00 -0.00000000000E+00 -0.12682859758E+03  0.12682859758E+03  0.00000000000E+00 0. -1.
          6    1    1    2  502    0  0.11855852249E+02  0.40920635945E+02 -0.21202966563E+01  0.17818124294E+03  0.17300000000E+03 0. -1.
         -6    1    1    2    0  501 -0.11855852249E+02 -0.40920635945E+02  0.17969308075E+03  0.25304873631E+03  0.17300000000E+03 0.  1.
<mgrwt>
<rscale>  2 0.17816863E+03</rscale>
<asrwt>0</asrwt>
<pdfrwt beam="1">  1        3 0.19512092E-01 0.17816863E+03</pdfrwt>
<pdfrwt beam="2">  1       -3 0.46830982E-01 0.17816863E+03</pdfrwt>
<totfact> 0.25742903E+02</totfact>
</mgrwt>
</event>
<event>
 4    1  0.7245070E-001  0.2178381E+03  0.7546771E-02  0.1135505E+00
          1   -1    0    0  502    0  0.00000000000E+00  0.00000000000E+00  0.25579399620E+03  0.25579399620E+03  0.00000000000E+00 0. -1.
         -1   -1    0    0    0  501 -0.00000000000E+00 -0.00000000000E+00 -0.18949592702E+03  0.18949592702E+03  0.00000000000E+00 0.  1.
          6    1    1    2  502    0  0.84931267916E+02  0.10154360936E+03  0.87544076259E+00  0.21783982939E+03  0.17300000000E+03 0.  1.
         -6    1    1    2    0  501 -0.84931267916E+02 -0.10154360936E+03  0.65422628422E+02  0.22745009383E+03  0.17300000000E+03 0.  1.
<mgrwt>
<rscale>  2 0.21783807E+03</rscale>
<asrwt>0</asrwt>
<pdfrwt beam="1">  1        1 0.39352922E-01 0.21783807E+03</pdfrwt>
<pdfrwt beam="2">  1       -1 0.29153220E-01 0.21783807E+03</pdfrwt>
<totfact> 0.11484266E+03</totfact>
</mgrwt>
</event>
<event>
 4    1  0.7245070E-001  0.2350835E+03  0.7546771E-02  0.1123112E+00
          2   -1    0    0  502    0  0.00000000000E+00  0.00000000000E+00  0.15111564555E+03  0.15111564555E+03  0.00000000000E+00 0.  1.
         -2   -1    0    0    0  501 -0.00000000000E+00 -0.00000000000E+00 -0.40515558866E+03  0.40515558866E+03  0.00000000000E+00 0. -1.
          6    1    1    2  502    0 -0.72348930020E+02  0.14177761952E+03 -0.40233163864E+02  0.23850150638E+03  0.17300000000E+03 0.  1.
         -6    1    1    2    0  501  0.72348930020E+02 -0.14177761952E+03 -0.21380677924E+03  0.31776972782E+03  0.17300000000E+03 0. -1.
<mgrwt>
<rscale>  2 0.23508352E+03</rscale>
<asrwt>0</asrwt>
<pdfrwt beam="1">  1        2 0.23248561E-01 0.23508352E+03</pdfrwt>
<pdfrwt beam="2">  1       -2 0.62331628E-01 0.23508352E+03</pdfrwt>
<totfact> 0.57087443E+02</totfact>
</mgrwt>
</event>
<event>
 4    1  0.7245070E-001  0.3587054E+03  0.7546771E-02  0.1059098E+00
         -1   -1    0    0    0  501 -0.00000000000E+00  0.00000000000E+00  0.22647117910E+03  0.22647117910E+03  0.00000000000E+00 0. -1.
          1   -1    0    0  502    0  0.00000000000E+00 -0.00000000000E+00 -0.70606070956E+03  0.70606070956E+03  0.00000000000E+00 0.  1.
          6    1    1    2  502    0  0.28489053992E+03  0.13258192218E+03 -0.44586334198E+03  0.57224444562E+03  0.17300000000E+03 0.  1.
         -6    1    1    2    0  501 -0.28489053992E+03 -0.13258192218E+03 -0.33726188476E+02  0.36028744304E+03  0.17300000000E+03 0. -1.
<mgrwt>
<rscale>  2 0.35870543E+03</rscale>
<asrwt>0</asrwt>
<pdfrwt beam="1">  1        1 0.10862472E+00 0.35870543E+03</pdfrwt>
<pdfrwt beam="2">  1       -1 0.34841720E-01 0.35870543E+03</pdfrwt>
<totfact> 0.21926292E+02</totfact>
</mgrwt>
</event>
<event>
 4    1  0.7245070E-001  0.2217836E+03  0.7546771E-02  0.1132560E+00
          2   -1    0    0  502    0  0.00000000000E+00  0.00000000000E+00  0.66823060483E+03  0.66823060483E+03  0.00000000000E+00 0.  1.
         -2   -1    0    0    0  501 -0.00000000000E+00 -0.00000000000E+00 -0.75326167784E+02  0.75326167784E+02  0.00000000000E+00 0. -1.
          6    1    1    2  502    0  0.81792420808E+02 -0.11211135147E+03  0.35258100484E+03  0.41653489674E+03  0.17300000000E+03 0.  1.
         -6    1    1    2    0  501 -0.81792420808E+02  0.11211135147E+03  0.24032343221E+03  0.32702187587E+03  0.17300000000E+03 0.  1.
<mgrwt>
<rscale>  2 0.22178358E+03</rscale>
<asrwt>0</asrwt>
<pdfrwt beam="1">  1        2 0.10280470E+00 0.22178358E+03</pdfrwt>
<pdfrwt beam="2">  1       -2 0.11588642E-01 0.22178358E+03</pdfrwt>
<totfact> 0.23092503E+03</totfact>
</mgrwt>
</event>
<event>
 4    1  0.7245070E-001  0.1744672E+03  0.7546771E-02  0.1173268E+00
         -2   -1    0    0    0  501 -0.00000000000E+00  0.00000000000E+00  0.35164950172E+02  0.35164950172E+02  0.00000000000E+00 0.  1.
          2   -1    0    0  502    0  0.00000000000E+00 -0.00000000000E+00 -0.88053125541E+03  0.88053125541E+03  0.00000000000E+00 0. -1.
          6    1    1    2  502    0  0.54337922363E+00 -0.22572145139E+02 -0.48230295371E+03  0.51288881461E+03  0.17300000000E+03 0. -1.
         -6    1    1    2    0  501 -0.54337922363E+00  0.22572145139E+02 -0.36306335154E+03  0.40280739098E+03  0.17300000000E+03 0.  1.
<mgrwt>
<rscale>  2 0.17446718E+03</rscale>
<asrwt>0</asrwt>
<pdfrwt beam="1">  1        2 0.13546634E+00 0.17446718E+03</pdfrwt>
<pdfrwt beam="2">  1       -2 0.54099925E-02 0.17446718E+03</pdfrwt>
<totfact> 0.53339003E+03</totfact>
</mgrwt>
</event>
<event>
 4    1  0.7245070E-001  0.2051459E+03  0.7546771E-02  0.1145469E+00
          1   -1    0    0  502    0  0.00000000000E+00  0.00000000000E+00  0.59510903598E+03  0.59510903598E+03  0.00000000000E+00 0.  1.
         -1   -1    0    0    0  501 -0.00000000000E+00 -0.00000000000E+00 -0.71174373090E+02  0.71174373090E+02  0.00000000000E+00 0. -1.
          6    1    1    2  502    0  0.36515393200E+02 -0.10403099543E+03  0.23528607871E+03  0.31216079316E+03  0.17300000000E+03 0.  1.
         -6    1    1    2    0  501 -0.36515393200E+02  0.10403099543E+03  0.28864858418E+03  0.35412261591E+03  0.17300000000E+03 0. -1.
<mgrwt>
<rscale>  2 0.20514586E+03</rscale>
<asrwt>0</asrwt>
<pdfrwt beam="1">  1        1 0.91555233E-01 0.20514586E+03</pdfrwt>
<pdfrwt beam="2">  1       -1 0.10949904E-01 0.20514586E+03</pdfrwt>
<totfact> 0.18713432E+03</totfact>
</mgrwt>
</event>
<event>
 4    1  0.7245070E-001  0.2440487E+03  0.7546771E-02  0.1117125E+00
         -2   -1    0    0    0  501 -0.00000000000E+00  0.00000000000E+00  0.66194445788E+02  0.66194445788E+02  0.00000000000E+00 0. -1.
          2   -1    0    0  502    0  0.00000000000E+00 -0.00000000000E+00 -0.90355146708E+03  0.90355146708E+03  0.00000000000E+00 0.  1.
          6    1    1    2  502    0  0.55744632348E+02 -0.16285975135E+03 -0.38731001543E+03  0.45778686165E+03  0.17300000000E+03 0.  1.
         -6    1    1    2    0  501 -0.55744632348E+02  0.16285975135E+03 -0.45004700586E+03  0.51195905123E+03  0.17300000000E+03 0.  1.
<mgrwt>
<rscale>  2 0.24404869E+03</rscale>
<asrwt>0</asrwt>
<pdfrwt beam="1">  1        2 0.13900793E+00 0.24404869E+03</pdfrwt>
<pdfrwt beam="2">  1       -2 0.10183760E-01 0.24404869E+03</pdfrwt>
<totfact> 0.19444865E+03</totfact>
</mgrwt>
</event>
<event>
 4    1  0.7245070E-001  0.3394314E+03  0.7546771E-02  0.1067038E+00
         -2   -1    0    0    0  501 -0.00000000000E+00  0.00000000000E+00  0.17109336865E+03  0.17109336865E+03  0.00000000000E+00 0. -1.
          2   -1    0    0  502    0  0.00000000000E+00 -0.00000000000E+00 -0.99831018850E+03  0.99831018850E+03  0.00000000000E+00 0.  1.
          6    1    1    2  502    0  0.60867992991E+02 -0.28562172201E+03 -0.74717738284E+03  0.82066297716E+03  0.17300000000E+03 0.  1.
         -6    1    1    2    0  501 -0.60867992991E+02  0.28562172201E+03 -0.80039437011E+02  0.34874057999E+03  0.17300000000E+03 0. -1.
<mgrwt>
<rscale>  2 0.33943141E+03</rscale>
<asrwt>0</asrwt>
<pdfrwt beam="1">  1        2 0.15358618E+00 0.33943141E+03</pdfrwt>
<pdfrwt beam="2">  1       -2 0.26322057E-01 0.33943141E+03</pdfrwt>
<totfact> 0.34120730E+02</totfact>
</mgrwt>
</event>
<event>
 4    1  0.7245070E-001  0.1832429E+03  0.7546771E-02  0.1164701E+00
          4   -1    0    0  502    0  0.00000000000E+00  0.00000000000E+00  0.74664177233E+02  0.74664177233E+02  0.00000000000E+00 0.  1.
         -4   -1    0    0    0  501 -0.00000000000E+00 -0.00000000000E+00 -0.45023649249E+03  0.45023649249E+03  0.00000000000E+00 0. -1.
          6    1    1    2  502    0  0.15174570150E+02  0.58469739590E+02 -0.19667478916E+03  0.26881025040E+03  0.17300000000E+03 0.  1.
         -6    1    1    2    0  501 -0.15174570150E+02 -0.58469739590E+02 -0.17889752610E+03  0.25609041932E+03  0.17300000000E+03 0. -1.
<mgrwt>
<rscale>  2 0.18324295E+03</rscale>
<asrwt>0</asrwt>
<pdfrwt beam="1">  1        4 0.11486796E-01 0.18324295E+03</pdfrwt>
<pdfrwt beam="2">  1       -4 0.69267153E-01 0.18324295E+03</pdfrwt>
<totfact> 0.20505874E+02</totfact>
</mgrwt>
</event>
<event>
 4    1  0.7245070E-001  0.2880648E+03  0.7546771E-02  0.1091364E+00
         -2   -1    0    0    0  501 -0.00000000000E+00  0.00000000000E+00  0.49333087543E+03  0.49333087543E+03  0.00000000000E+00 0.  1.
          2   -1    0    0  502    0  0.00000000000E+00 -0.00000000000E+00 -0.16948766871E+03  0.16948766871E+03  0.00000000000E+00 0. -1.
          6    1    1    2  502    0  0.12927426323E+03 -0.19063177104E+03  0.19073876469E+03  0.34548890520E+03  0.17300000000E+03 0. -1.
         -6    1    1    2    0  501 -0.12927426323E+03  0.19063177104E+03  0.13310444202E+03  0.31732963894E+03  0.17300000000E+03 0.  1.
<mgrwt>
<rscale>  2 0.28806476E+03</rscale>
<asrwt>0</asrwt>
<pdfrwt beam="1">  1        2 0.26075026E-01 0.28806476E+03</pdfrwt>
<pdfrwt beam="2">  1       -2 0.75897057E-01 0.28806476E+03</pdfrwt>
<totfact> 0.32947701E+02</totfact>
</mgrwt>
</event>
<event>
 4    1  0.7245070E-001  0.4711569E+03  0.7546771E-02  0.1021594E+00
         -2   -1    0    0    0  501 -0.00000000000E+00  0.00000000000E+00  0.28146702242E+03  0.28146702242E+03  0.00000000000E+00 0.  1.
          2   -1    0    0  502    0  0.00000000000E+00 -0.00000000000E+00 -0.10423189108E+04  0.10423189108E+04  0.00000000000E+00 0. -1.
          6    1    1    2  502    0  0.10509273227E+03 -0.42545900419E+03 -0.70693184269E+03  0.84955369273E+03  0.17300000000E+03 0. -1.
         -6    1    1    2    0  501 -0.10509273227E+03  0.42545900419E+03 -0.53920045722E+02  0.47423224053E+03  0.17300000000E+03 0.  1.
<mgrwt>
<rscale>  2 0.47115692E+03</rscale>
<asrwt>0</asrwt>
<pdfrwt beam="1">  1        2 0.16035675E+00 0.47115692E+03</pdfrwt>
<pdfrwt beam="2">  1       -2 0.43302620E-01 0.47115692E+03</pdfrwt>
<totfact> 0.12426753E+02</totfact>
</mgrwt>
</event>
<event>
 4    1  0.7245070E-001  0.3237696E+03  0.7546771E-02  0.1073927E+00
          1   -1    0    0  502    0  0.00000000000E+00  0.00000000000E+00  0.95017094392E+03  0.95017094392E+03  0.00000000000E+00 0.  1.
         -1   -1    0    0    0  501 -0.00000000000E+00 -0.00000000000E+00 -0.16172669740E+03  0.16172669740E+03  0.00000000000E+00 0. -1.
          6    1    1    2  502    0 -0.32969015111E+02 -0.27168144264E+03  0.70764915594E+03  0.77819926120E+03  0.17300000000E+03 0.  1.
         -6    1    1    2    0  501  0.32969015111E+02  0.27168144264E+03  0.80795090577E+02  0.33369838012E+03  0.17300000000E+03 0.  1.
<mgrwt>
<rscale>  2 0.32376961E+03</rscale>
<asrwt>0</asrwt>
<pdfrwt beam="1">  1        1 0.14618014E+00 0.32376961E+03</pdfrwt>
<pdfrwt beam="2">  1       -1 0.24881031E-01 0.32376961E+03</pdfrwt>
<totfact> 0.24531123E+02</totfact>
</mgrwt>
</event>
<event>
 4    1  0.7245070E-001  0.1737927E+03  0.7546771E-02  0.1173949E+00
          2   -1    0    0  502    0  0.00000000000E+00  0.00000000000E+00  0.12247367336E+04  0.12247367336E+04  0.00000000000E+00 0.  1.
         -2   -1    0    0    0  501 -0.00000000000E+00 -0.00000000000E+00 -0.69907735869E+02  0.69907735869E+02  0.00000000000E+00 0. -1.
          6    1    1    2  502    0 -0.22849770783E+01  0.16422075278E+02  0.10981880221E+04  0.11118546836E+04  0.17300000000E+03 0.  1.
         -6    1    1    2    0  501  0.22849770783E+01 -0.16422075278E+02  0.56640975624E+02  0.18278978581E+03  0.17300000000E+03 0. -1.
<mgrwt>
<rscale>  2 0.17379271E+03</rscale>
<asrwt>0</asrwt>
<pdfrwt beam="1">  1        2 0.18842102E+00 0.17379271E+03</pdfrwt>
<pdfrwt beam="2">  1       -2 0.10755037E-01 0.17379271E+03</pdfrwt>
<totfact> 0.11487150E+03</totfact>
</mgrwt>
</event>
<event>
 4    1  0.7245070E-001  0.1827662E+03  0.7546771E-02  0.1165152E+00
         -1   -1    0    0    0  501 -0.00000000000E+00  0.00000000000E+00  0.62442825716E+02  0.62442825716E+02  0.00000000000E+00 0. -1.
          1   -1    0    0  502    0  0.00000000000E+00 -0.00000000000E+00 -0.60936033889E+03  0.60936033889E+03  0.00000000000E+00 0.  1.
          6    1    1    2  502    0 -0.18181831943E+02  0.56070574296E+02 -0.15607562824E+03  0.24033953076E+03  0.17300000000E+03 0. -1.
         -6    1    1    2    0  501  0.18181831943E+02 -0.56070574296E+02 -0.39084188494E+03  0.43146363385E+03  0.17300000000E+03 0.  1.
<mgrwt>
<rscale>  2 0.18276621E+03</rscale>
<asrwt>0</asrwt>
<pdfrwt beam="1">  1        1 0.93747743E-01 0.18276621E+03</pdfrwt>
<pdfrwt beam="2">  1       -1 0.96065887E-02 0.18276621E+03</pdfrwt>
<totfact> 0.22110060E+03</totfact>
</mgrwt>
</event>
<event>
 4    1  0.7245070E-001  0.1770798E+03  0.7546771E-02  0.1170660E+00
         -2   -1    0    0    0  501 -0.00000000000E+00  0.00000000000E+00  0.43793774284E+03  0.43793774284E+03  0.00000000000E+00 0. -1.
          2   -1    0    0  502    0  0.00000000000E+00 -0.00000000000E+00 -0.84133816003E+02  0.84133816003E+02  0.00000000000E+00 0.  1.
          6    1    1    2  502    0 -0.26015026463E+02 -0.27413079827E+02  0.76157739376E+02  0.19276218461E+03  0.17300000000E+03 0. -1.
         -6    1    1    2    0  501  0.26015026463E+02  0.27413079827E+02  0.27764618746E+03  0.32930937423E+03  0.17300000000E+03 0. -1.
<mgrwt>
<rscale>  2 0.17707981E+03</rscale>
<asrwt>0</asrwt>
<pdfrwt beam="1">  1        2 0.12943664E-01 0.17707981E+03</pdfrwt>
<pdfrwt beam="2">  1       -2 0.67375036E-01 0.17707981E+03</pdfrwt>
<totfact> 0.95274452E+02</totfact>
</mgrwt>
</event>
<event>
 4    1  0.7245070E-001  0.2175151E+03  0.7546771E-02  0.1135749E+00
          2   -1    0    0  502    0  0.00000000000E+00  0.00000000000E+00  0.27446805839E+03  0.27446805839E+03  0.00000000000E+00 0.  1.
         -2   -1    0    0    0  501 -0.00000000000E+00 -0.00000000000E+00 -0.20520760280E+03  0.20520760280E+03  0.00000000000E+00 0. -1.
          6    1    1    2  502    0  0.11227792655E+03  0.69119449665E+02  0.13055701362E+03  0.25368871657E+03  0.17300000000E+03 0. -1.
         -6    1    1    2    0  501 -0.11227792655E+03 -0.69119449665E+02 -0.61296558026E+02  0.22598694462E+03  0.17300000000E+03 0.  1.
<mgrwt>
<rscale>  2 0.21751513E+03</rscale>
<asrwt>0</asrwt>
<pdfrwt beam="1">  1        2 0.42225855E-01 0.21751513E+03</pdfrwt>
<pdfrwt beam="2">  1       -2 0.31570400E-01 0.21751513E+03</pdfrwt>
<totfact> 0.11180834E+03</totfact>
</mgrwt>
</event>
<event>
 4    1  0.7245070E-001  0.1968165E+03  0.7546771E-02  0.1152453E+00
         -2   -1    0    0    0  501 -0.00000000000E+00  0.00000000000E+00  0.17973738038E+03  0.17973738038E+03  0.00000000000E+00 0. -1.
          2   -1    0    0  502    0  0.00000000000E+00 -0.00000000000E+00 -0.23190265911E+03  0.23190265911E+03  0.00000000000E+00 0.  1.
          6    1    1    2  502    0 -0.29962118427E+02  0.88938164769E+02 -0.80790180123E+02  0.21275285873E+03  0.17300000000E+03 0.  1.
         -6    1    1    2    0  501  0.29962118427E+02 -0.88938164769E+02  0.28624901395E+02  0.19888718077E+03  0.17300000000E+03 0.  1.
<mgrwt>
<rscale>  2 0.19681648E+03</rscale>
<asrwt>0</asrwt>
<pdfrwt beam="1">  1        2 0.35677332E-01 0.19681648E+03</pdfrwt>
<pdfrwt beam="2">  1       -2 0.27651905E-01 0.19681648E+03</pdfrwt>
<totfact> 0.17005362E+03</totfact>
</mgrwt>
</event>
<event>
 4    1  0.7245070E-001  0.1896375E+03  0.7546771E-02  0.1158789E+00
          2   -1    0    0  502    0  0.00000000000E+00  0.00000000000E+00  0.13388179306E+04  0.13388179306E+04  0.00000000000E+00 0.  1.
         -2   -1    0    0    0  501 -0.00000000000E+00 -0.00000000000E+00 -0.47063070109E+02  0.47063070109E+02  0.00000000000E+00 0. -1.
          6    1    1    2  502    0 -0.70708067186E+02 -0.32151779379E+02  0.19188280620E+03  0.26978024204E+03  0.17300000000E+03 0. -1.
         -6    1    1    2    0  501  0.70708067186E+02  0.32151779379E+02  0.10998720543E+04  0.11161007587E+04  0.17300000000E+03 0.  1.
<mgrwt>
<rscale>  2 0.18963746E+03</rscale>
<asrwt>0</asrwt>
<pdfrwt beam="1">  1        2 0.20597196E+00 0.18963746E+03</pdfrwt>
<pdfrwt beam="2">  1       -2 0.72404734E-02 0.18963746E+03</pdfrwt>
<totfact> 0.18482352E+03</totfact>
</mgrwt>
</event>
<event>
 4    1  0.7245070E-001  0.2840154E+03  0.7546771E-02  0.1093516E+00
         -2   -1    0    0    0  501 -0.00000000000E+00  0.00000000000E+00  0.14018924826E+03  0.14018924826E+03  0.00000000000E+00 0.  1.
          2   -1    0    0  502    0  0.00000000000E+00 -0.00000000000E+00 -0.75717037253E+03  0.75717037253E+03  0.00000000000E+00 0. -1.
          6    1    1    2  502    0 -0.10817336939E+03  0.19757089280E+03 -0.52832848706E+03  0.59982974731E+03  0.17300000000E+03 0. -1.
         -6    1    1    2    0  501  0.10817336939E+03 -0.19757089280E+03 -0.88652637218E+02  0.29752987348E+03  0.17300000000E+03 0.  1.
<mgrwt>
<rscale>  2 0.28401538E+03</rscale>
<asrwt>0</asrwt>
<pdfrwt beam="1">  1        2 0.11648775E+00 0.28401538E+03</pdfrwt>
<pdfrwt beam="2">  1       -2 0.21567577E-01 0.28401538E+03</pdfrwt>
<totfact> 0.70387178E+02</totfact>
</mgrwt>
</event>
<event>
 4    1  0.7245070E-001  0.1750528E+03  0.7546771E-02  0.1172679E+00
          2   -1    0    0  502    0  0.00000000000E+00  0.00000000000E+00  0.48595005249E+03  0.48595005249E+03  0.00000000000E+00 0.  1.
         -2   -1    0    0    0  501 -0.00000000000E+00 -0.00000000000E+00 -0.63982244335E+02  0.63982244335E+02  0.00000000000E+00 0. -1.
          6    1    1    2  502    0 -0.20470822110E+01 -0.26651519545E+02  0.24401496293E+03  0.30031116558E+03  0.17300000000E+03 0. -1.
         -6    1    1    2    0  501  0.20470822110E+01  0.26651519545E+02  0.17795284523E+03  0.24962113125E+03  0.17300000000E+03 0. -1.
<mgrwt>
<rscale>  2 0.17505283E+03</rscale>
<asrwt>0</asrwt>
<pdfrwt beam="1">  1        2 0.74761544E-01 0.17505283E+03</pdfrwt>
<pdfrwt beam="2">  1       -2 0.98434225E-02 0.17505283E+03</pdfrwt>
<totfact> 0.42796762E+03</totfact>
</mgrwt>
</event>
<event>
 4    1  0.7245070E-001  0.2244362E+03  0.7546771E-02  0.1130618E+00
         -2   -1    0    0    0  501 -0.00000000000E+00  0.00000000000E+00  0.18109954868E+03  0.18109954868E+03  0.00000000000E+00 0.  1.
          2   -1    0    0  502    0  0.00000000000E+00 -0.00000000000E+00 -0.60984746765E+03  0.60984746765E+03  0.00000000000E+00 0. -1.
          6    1    1    2  502    0  0.76271086163E+02 -0.12093523516E+03 -0.50603761019E+03  0.55357535405E+03  0.17300000000E+03 0. -1.
         -6    1    1    2    0  501 -0.76271086163E+02  0.12093523516E+03  0.77289691215E+02  0.23737166228E+03  0.17300000000E+03 0.  1.
<mgrwt>
<rscale>  2 0.22443620E+03</rscale>
<asrwt>0</asrwt>
<pdfrwt beam="1">  1        2 0.93822686E-01 0.22443620E+03</pdfrwt>
<pdfrwt beam="2">  1       -2 0.27861469E-01 0.22443620E+03</pdfrwt>
<totfact> 0.58290885E+02</totfact>
</mgrwt>
</event>
<event>
 4    1  0.7245070E-001  0.2111378E+03  0.7546771E-02  0.1140668E+00
         -4   -1    0    0    0  501 -0.00000000000E+00  0.00000000000E+00  0.51773929407E+02  0.51773929407E+02  0.00000000000E+00 0. -1.
          4   -1    0    0  502    0  0.00000000000E+00 -0.00000000000E+00 -0.86117724590E+03  0.86117724590E+03  0.00000000000E+00 0.  1.
          6    1    1    2  502    0 -0.11945743785E+03  0.19495575396E+02 -0.41057166188E+03  0.46167980945E+03  0.17300000000E+03 0. -1.
         -6    1    1    2    0  501  0.11945743785E+03 -0.19495575396E+02 -0.39883165461E+03  0.45127136585E+03  0.17300000000E+03 0.  1.
<mgrwt>
<rscale>  2 0.21113777E+03</rscale>
<asrwt>0</asrwt>
<pdfrwt beam="1">  1        4 0.13248880E+00 0.21113777E+03</pdfrwt>
<pdfrwt beam="2">  1       -4 0.79652204E-02 0.21113777E+03</pdfrwt>
<totfact> 0.86546415E+01</totfact>
</mgrwt>
</event>
<event>
 4    1  0.7245070E-001  0.2473383E+03  0.7546771E-02  0.1114999E+00
         -2   -1    0    0    0  501 -0.00000000000E+00  0.00000000000E+00  0.39798318565E+03  0.39798318565E+03  0.00000000000E+00 0.  1.
          2   -1    0    0  502    0  0.00000000000E+00 -0.00000000000E+00 -0.15887868010E+03  0.15887868010E+03  0.00000000000E+00 0. -1.
          6    1    1    2  502    0 -0.17252492884E+03  0.38501417402E+02  0.69359550557E+02  0.25687926633E+03  0.17300000000E+03 0. -1.
         -6    1    1    2    0  501  0.17252492884E+03 -0.38501417402E+02  0.16974495498E+03  0.29998259942E+03  0.17300000000E+03 0.  1.
<mgrwt>
<rscale>  2 0.24733825E+03</rscale>
<asrwt>0</asrwt>
<pdfrwt beam="1">  1        2 0.24442874E-01 0.24733825E+03</pdfrwt>
<pdfrwt beam="2">  1       -2 0.61228182E-01 0.24733825E+03</pdfrwt>
<totfact> 0.56029742E+02</totfact>
</mgrwt>
</event>
<event>
 4    1  0.7245070E-001  0.1873910E+03  0.7546771E-02  0.1160836E+00
         -2   -1    0    0    0  501 -0.00000000000E+00  0.00000000000E+00  0.19747267931E+02  0.19747267931E+02  0.00000000000E+00 0. -1.
          2   -1    0    0  502    0  0.00000000000E+00 -0.00000000000E+00 -0.18352681294E+04  0.18352681294E+04  0.00000000000E+00 0.  1.
          6    1    1    2  502    0  0.67900738143E+02  0.23997172834E+02 -0.74426195455E+03  0.76749021592E+03  0.17300000000E+03 0. -1.
         -6    1    1    2    0  501 -0.67900738143E+02 -0.23997172834E+02 -0.10712589069E+04  0.10875251814E+04  0.17300000000E+03 0.  1.
<mgrwt>
<rscale>  2 0.18739097E+03</rscale>
<asrwt>0</asrwt>
<pdfrwt beam="1">  1        2 0.28234916E+00 0.18739097E+03</pdfrwt>
<pdfrwt beam="2">  1       -2 0.30380389E-02 0.18739097E+03</pdfrwt>
<totfact> 0.37628627E+03</totfact>
</mgrwt>
</event>
<event>
 4    1  0.7245070E-001  0.2082258E+03  0.7546771E-02  0.1142979E+00
         -1   -1    0    0    0  501 -0.00000000000E+00  0.00000000000E+00  0.15745150063E+03  0.15745150063E+03  0.00000000000E+00 0. -1.
          1   -1    0    0  502    0  0.00000000000E+00 -0.00000000000E+00 -0.30902929202E+03  0.30902929202E+03  0.00000000000E+00 0.  1.
          6    1    1    2  502    0 -0.62570758117E+02 -0.97539241202E+02 -0.15276085145E+03  0.25825158485E+03  0.17300000000E+03 0.  1.
         -6    1    1    2    0  501  0.62570758117E+02  0.97539241202E+02  0.11830600575E+01  0.20822920779E+03  0.17300000000E+03 0. -1.
<mgrwt>
<rscale>  2 0.20822585E+03</rscale>
<asrwt>0</asrwt>
<pdfrwt beam="1">  1        1 0.47542967E-01 0.20822585E+03</pdfrwt>
<pdfrwt beam="2">  1       -1 0.24223308E-01 0.20822585E+03</pdfrwt>
<totfact> 0.12344793E+03</totfact>
</mgrwt>
</event>
<event>
 4    1  0.7245070E-001  0.3394270E+03  0.7546771E-02  0.1067040E+00
         -2   -1    0    0    0  501 -0.00000000000E+00  0.00000000000E+00  0.15733410517E+03  0.15733410517E+03  0.00000000000E+00 0. -1.
          2   -1    0    0  502    0  0.00000000000E+00 -0.00000000000E+00 -0.73424887064E+03  0.73424887064E+03  0.00000000000E+00 0.  1.
          6    1    1    2  502    0  0.26210073493E+03  0.12878240141E+03 -0.26530168119E+03  0.43080817565E+03  0.17300000000E+03 0. -1.
         -6    1    1    2    0  501 -0.26210073493E+03 -0.12878240141E+03 -0.31161308428E+03  0.46077480016E+03  0.17300000000E+03 0.  1.
<mgrwt>
<rscale>  2 0.33942702E+03</rscale>
<asrwt>0</asrwt>
<pdfrwt beam="1">  1        2 0.11296137E+00 0.33942702E+03</pdfrwt>
<pdfrwt beam="2">  1       -2 0.24205247E-01 0.33942702E+03</pdfrwt>
<totfact> 0.59617317E+02</totfact>
</mgrwt>
</event>
<event>
 4    1  0.7245070E-001  0.2627843E+03  0.7546771E-02  0.1105482E+00
         -2   -1    0    0    0  501 -0.00000000000E+00  0.00000000000E+00  0.43370230896E+02  0.43370230896E+02  0.00000000000E+00 0.  1.
          2   -1    0    0  502    0  0.00000000000E+00 -0.00000000000E+00 -0.15942015815E+04  0.15942015815E+04  0.00000000000E+00 0. -1.
          6    1    1    2  502    0  0.17616088353E+03  0.89966419303E+02 -0.74666028095E+03  0.79155365494E+03  0.17300000000E+03 0.  1.
         -6    1    1    2    0  501 -0.17616088353E+03 -0.89966419303E+02 -0.80417106967E+03  0.84601815748E+03  0.17300000000E+03 0.  1.
<mgrwt>
<rscale>  2 0.26278435E+03</rscale>
<asrwt>0</asrwt>
<pdfrwt beam="1">  1        2 0.24526178E+00 0.26278435E+03</pdfrwt>
<pdfrwt beam="2">  1       -2 0.66723432E-02 0.26278435E+03</pdfrwt>
<totfact> 0.15272871E+03</totfact>
</mgrwt>
</event>
<event>
 4    1  0.7245070E-001  0.1850111E+03  0.7546771E-02  0.1163040E+00
          2   -1    0    0  502    0  0.00000000000E+00  0.00000000000E+00  0.33151012029E+03  0.33151012029E+03  0.00000000000E+00 0.  1.
         -2   -1    0    0    0  501 -0.00000000000E+00 -0.00000000000E+00 -0.12658456713E+03  0.12658456713E+03  0.00000000000E+00 0. -1.
          6    1    1    2  502    0  0.16163480128E+02  0.63551900372E+02  0.41260828297E+01  0.18505709035E+03  0.17300000000E+03 0. -1.
         -6    1    1    2    0  501 -0.16163480128E+02 -0.63551900372E+02  0.20079947033E+03  0.27303759707E+03  0.17300000000E+03 0.  1.
<mgrwt>
<rscale>  2 0.18501109E+03</rscale>
<asrwt>0</asrwt>
<pdfrwt beam="1">  1        2 0.51001557E-01 0.18501109E+03</pdfrwt>
<pdfrwt beam="2">  1       -2 0.19474549E-01 0.18501109E+03</pdfrwt>
<totfact> 0.21292727E+03</totfact>
</mgrwt>
</event>
<event>
 4    1  0.7245070E-001  0.2690894E+03  0.7546771E-02  0.1101802E+00
          1   -1    0    0  502    0  0.00000000000E+00  0.00000000000E+00  0.44477325963E+03  0.44477325963E+03  0.00000000000E+00 0. -1.
         -1   -1    0    0    0  501 -0.00000000000E+00 -0.00000000000E+00 -0.25298308135E+03  0.25298308135E+03  0.00000000000E+00 0.  1.
          6    1    1    2  502    0 -0.10039669369E+03  0.18000162649E+03  0.30419573641E+03  0.40613314035E+03  0.17300000000E+03 0. -1.
         -6    1    1    2    0  501  0.10039669369E+03 -0.18000162649E+03 -0.11240555812E+03  0.29162320062E+03  0.17300000000E+03 0.  1.
<mgrwt>
<rscale>  2 0.26908936E+03</rscale>
<asrwt>0</asrwt>
<pdfrwt beam="1">  1        1 0.68426655E-01 0.26908936E+03</pdfrwt>
<pdfrwt beam="2">  1       -1 0.38920474E-01 0.26908936E+03</pdfrwt>
<totfact> 0.34450773E+02</totfact>
</mgrwt>
</event>
<event>
 4    1  0.7245070E-001  0.1839662E+03  0.7546771E-02  0.1164019E+00
         -1   -1    0    0    0  501 -0.00000000000E+00  0.00000000000E+00  0.33877931971E+02  0.33877931971E+02  0.00000000000E+00 0. -1.
          1   -1    0    0  502    0  0.00000000000E+00 -0.00000000000E+00 -0.10726259936E+04  0.10726259936E+04  0.00000000000E+00 0.  1.
          6    1    1    2  502    0 -0.36694899225E+02 -0.50675816186E+02 -0.37441078019E+03  0.41716541839E+03  0.17300000000E+03 0. -1.
         -6    1    1    2    0  501  0.36694899225E+02  0.50675816186E+02 -0.66433728141E+03  0.68933850715E+03  0.17300000000E+03 0.  1.
<mgrwt>
<rscale>  2 0.18396618E+03</rscale>
<asrwt>0</asrwt>
<pdfrwt beam="1">  1        1 0.16501939E+00 0.18396618E+03</pdfrwt>
<pdfrwt beam="2">  1       -1 0.52119894E-02 0.18396618E+03</pdfrwt>
<totfact> 0.23242388E+03</totfact>
</mgrwt>
</event>
<event>
 4    1  0.7245070E-001  0.2213041E+03  0.7546771E-02  0.1132914E+00
          2   -1    0    0  502    0  0.00000000000E+00  0.00000000000E+00  0.26094002322E+04  0.26094002322E+04  0.00000000000E+00 0.  1.
         -2   -1    0    0    0  501 -0.00000000000E+00 -0.00000000000E+00 -0.18834983046E+02  0.18834983046E+02  0.00000000000E+00 0. -1.
          6    1    1    2  502    0  0.57400062540E+02  0.12550599625E+03  0.12174325060E+04  0.12373832991E+04  0.17300000000E+03 0.  1.
         -6    1    1    2    0  501 -0.57400062540E+02 -0.12550599625E+03  0.13731327431E+04  0.13908519161E+04  0.17300000000E+03 0. -1.
<mgrwt>
<rscale>  2 0.22130414E+03</rscale>
<asrwt>0</asrwt>
<pdfrwt beam="1">  1        2 0.40144590E+00 0.22130414E+03</pdfrwt>
<pdfrwt beam="2">  1       -2 0.28976918E-02 0.22130414E+03</pdfrwt>
<totfact> 0.15663434E+03</totfact>
</mgrwt>
</event>
<event>
 4    1  0.7245070E-001  0.1764144E+03  0.7546771E-02  0.1171319E+00
         -1   -1    0    0    0  501 -0.00000000000E+00  0.00000000000E+00  0.14247573711E+03  0.14247573711E+03  0.00000000000E+00 0. -1.
          1   -1    0    0  502    0  0.00000000000E+00 -0.00000000000E+00 -0.30827863155E+03  0.30827863155E+03  0.00000000000E+00 0.  1.
          6    1    1    2  502    0 -0.34034098842E+02  0.58914666036E+01  0.38766474946E+02  0.18062355561E+03  0.17300000000E+03 0. -1.
         -6    1    1    2    0  501  0.34034098842E+02 -0.58914666036E+01 -0.20456936939E+03  0.27013081304E+03  0.17300000000E+03 0.  1.
<mgrwt>
<rscale>  2 0.17641437E+03</rscale>
<asrwt>0</asrwt>
<pdfrwt beam="1">  1        1 0.47427482E-01 0.17641437E+03</pdfrwt>
<pdfrwt beam="2">  1       -1 0.21919344E-01 0.17641437E+03</pdfrwt>
<totfact> 0.14547076E+03</totfact>
</mgrwt>
</event>
<event>
 4    1  0.7245070E-001  0.1812491E+03  0.7546771E-02  0.1166600E+00
         -1   -1    0    0    0  501 -0.00000000000E+00  0.00000000000E+00  0.20463085202E+03  0.20463085202E+03  0.00000000000E+00 0. -1.
          1   -1    0    0  502    0  0.00000000000E+00 -0.00000000000E+00 -0.27204940612E+03  0.27204940612E+03  0.00000000000E+00 0.  1.
          6    1    1    2  502    0 -0.47186151408E+02  0.26376278402E+02  0.11888241754E+03  0.21675855265E+03  0.17300000000E+03 0. -1.
         -6    1    1    2    0  501  0.47186151408E+02 -0.26376278402E+02 -0.18630097164E+03  0.25992170549E+03  0.17300000000E+03 0.  1.
<mgrwt>
<rscale>  2 0.18124911E+03</rscale>
<asrwt>0</asrwt>
<pdfrwt beam="1">  1        1 0.41853754E-01 0.18124911E+03</pdfrwt>
<pdfrwt beam="2">  1       -1 0.31481670E-01 0.18124911E+03</pdfrwt>
<totfact> 0.93108509E+02</totfact>
</mgrwt>
</event>
<event>
 4    1  0.7245070E-001  0.1886417E+03  0.7546771E-02  0.1159692E+00
         -2   -1    0    0    0  501 -0.00000000000E+00  0.00000000000E+00  0.26747328970E+02  0.26747328970E+02  0.00000000000E+00 0.  1.
          2   -1    0    0  502    0  0.00000000000E+00 -0.00000000000E+00 -0.24516511213E+04  0.24516511213E+04  0.00000000000E+00 0. -1.
          6    1    1    2  502    0 -0.13236257730E+02 -0.74037018198E+02 -0.20504745732E+04  0.20591337144E+04  0.17300000000E+03 0. -1.
         -6    1    1    2    0  501  0.13236257730E+02  0.74037018198E+02 -0.37442921919E+03  0.41926473590E+03  0.17300000000E+03 0.  1.
<mgrwt>
<rscale>  2 0.18864167E+03</rscale>
<asrwt>0</asrwt>
<pdfrwt beam="1">  1        2 0.37717713E+00 0.18864167E+03</pdfrwt>
<pdfrwt beam="2">  1       -2 0.41149733E-02 0.18864167E+03</pdfrwt>
<totfact> 0.11372172E+03</totfact>
</mgrwt>
</event>
<event>
 4    1  0.7245070E-001  0.1955691E+03  0.7546771E-02  0.1153532E+00
          1   -1    0    0  502    0  0.00000000000E+00  0.00000000000E+00  0.96643540192E+03  0.96643540192E+03  0.00000000000E+00 0. -1.
         -1   -1    0    0    0  501 -0.00000000000E+00 -0.00000000000E+00 -0.42665371061E+02  0.42665371061E+02  0.00000000000E+00 0.  1.
          6    1    1    2  502    0  0.22240612461E+01 -0.91177431688E+02  0.59766296056E+03  0.62884678970E+03  0.17300000000E+03 0.  1.
         -6    1    1    2    0  501 -0.22240612461E+01  0.91177431688E+02  0.32610707030E+03  0.38025398328E+03  0.17300000000E+03 0. -1.
<mgrwt>
<rscale>  2 0.19556909E+03</rscale>
<asrwt>0</asrwt>
<pdfrwt beam="1">  1        1 0.14868235E+00 0.19556909E+03</pdfrwt>
<pdfrwt beam="2">  1       -1 0.65639040E-02 0.19556909E+03</pdfrwt>
<totfact> 0.19697936E+03</totfact>
</mgrwt>
</event>
<event>
 4    1  0.7245070E-001  0.2444679E+03  0.7546771E-02  0.1116852E+00
          4   -1    0    0  502    0  0.00000000000E+00  0.00000000000E+00  0.43355047166E+03  0.43355047166E+03  0.00000000000E+00 0.  1.
         -4   -1    0    0    0  501 -0.00000000000E+00 -0.00000000000E+00 -0.13864712359E+03  0.13864712359E+03  0.00000000000E+00 0. -1.
          6    1    1    2  502    0  0.13071906174E+03 -0.11290747173E+03  0.16915623080E+03  0.29728504956E+03  0.17300000000E+03 0.  1.
         -6    1    1    2    0  501 -0.13071906174E+03  0.11290747173E+03  0.12574711726E+03  0.27491254568E+03  0.17300000000E+03 0. -1.
<mgrwt>
<rscale>  2 0.24446793E+03</rscale>
<asrwt>0</asrwt>
<pdfrwt beam="1">  1        4 0.66700072E-01 0.24446793E+03</pdfrwt>
<pdfrwt beam="2">  1       -4 0.21330327E-01 0.24446793E+03</pdfrwt>
<totfact> 0.77358696E+01</totfact>
</mgrwt>
</event>
<event>
 4    1  0.7245070E-001  0.2072223E+03  0.7546771E-02  0.1143785E+00
          2   -1    0    0  502    0  0.00000000000E+00  0.00000000000E+00  0.20568486339E+04  0.20568486339E+04  0.00000000000E+00 0. -1.
         -2   -1    0    0    0  501 -0.00000000000E+00 -0.00000000000E+00 -0.20890099685E+02  0.20890099685E+02  0.00000000000E+00 0.  1.
          6    1    1    2  502    0 -0.10054385725E+03 -0.53879797624E+02  0.10438629995E+04  0.10642326163E+04  0.17300000000E+03 0.  1.
         -6    1    1    2    0  501  0.10054385725E+03  0.53879797624E+02  0.99209553478E+03  0.10135061174E+04  0.17300000000E+03 0.  1.
<mgrwt>
<rscale>  2 0.20722234E+03</rscale>
<asrwt>0</asrwt>
<pdfrwt beam="1">  1        2 0.31643809E+00 0.20722234E+03</pdfrwt>
<pdfrwt beam="2">  1       -2 0.32138631E-02 0.20722234E+03</pdfrwt>
<totfact> 0.26548732E+03</totfact>
</mgrwt>
</event>
<event>
 4    1  0.7245070E-001  0.3867506E+03  0.7546771E-02  0.1048467E+00
         -2   -1    0    0    0  501 -0.00000000000E+00  0.00000000000E+00  0.60521188668E+02  0.60521188668E+02  0.00000000000E+00 0. -1.
          2   -1    0    0  502    0  0.00000000000E+00 -0.00000000000E+00 -0.24767111086E+04  0.24767111086E+04  0.00000000000E+00 0.  1.
          6    1    1    2  502    0 -0.25159349033E+03  0.23737682270E+03 -0.12664775431E+04  0.13242135053E+04  0.17300000000E+03 0. -1.
         -6    1    1    2    0  501  0.25159349033E+03 -0.23737682270E+03 -0.11497123768E+04  0.12130187920E+04  0.17300000000E+03 0. -1.
<mgrwt>
<rscale>  2 0.38675062E+03</rscale>
<asrwt>0</asrwt>
<pdfrwt beam="1">  1        2 0.38103255E+00 0.38675062E+03</pdfrwt>
<pdfrwt beam="2">  1       -2 0.93109503E-02 0.38675062E+03</pdfrwt>
<totfact> 0.30039601E+02</totfact>
</mgrwt>
</event>
<event>
 4    1  0.7245070E-001  0.2722503E+03  0.7546771E-02  0.1099999E+00
         -2   -1    0    0    0  501 -0.00000000000E+00  0.00000000000E+00  0.10506618372E+03  0.10506618372E+03  0.00000000000E+00 0.  1.
          2   -1    0    0  502    0  0.00000000000E+00 -0.00000000000E+00 -0.98304618028E+03  0.98304618028E+03  0.00000000000E+00 0. -1.
          6    1    1    2  502    0  0.13379213970E+03  0.16214469299E+03 -0.14988615688E+03  0.31078304030E+03  0.17300000000E+03 0.  1.
         -6    1    1    2    0  501 -0.13379213970E+03 -0.16214469299E+03 -0.72809383968E+03  0.77732932370E+03  0.17300000000E+03 0. -1.
<mgrwt>
<rscale>  2 0.27225032E+03</rscale>
<asrwt>0</asrwt>
<pdfrwt beam="1">  1        2 0.15123787E+00 0.27225032E+03</pdfrwt>
<pdfrwt beam="2">  1       -2 0.16164029E-01 0.27225032E+03</pdfrwt>
<totfact> 0.81475773E+02</totfact>
</mgrwt>
</event>
<event>
 4    1  0.7245070E-001  0.2081327E+03  0.7546771E-02  0.1143053E+00
          1   -1    0    0  502    0  0.00000000000E+00  0.00000000000E+00  0.19023025841E+03  0.19023025841E+03  0.00000000000E+00 0.  1.
         -1   -1    0    0    0  501 -0.00000000000E+00 -0.00000000000E+00 -0.22912856666E+03  0.22912856666E+03  0.00000000000E+00 0. -1.
          6    1    1    2  502    0  0.92923386260E+02 -0.68959888636E+02 -0.35889653216E+02  0.21120437771E+03  0.17300000000E+03 0.  1.
         -6    1    1    2    0  501 -0.92923386260E+02  0.68959888636E+02 -0.30086550353E+01  0.20815444737E+03  0.17300000000E+03 0. -1.
<mgrwt>
<rscale>  2 0.20813270E+03</rscale>
<asrwt>0</asrwt>
<pdfrwt beam="1">  1        1 0.29266194E-01 0.20813270E+03</pdfrwt>
<pdfrwt beam="2">  1       -1 0.35250549E-01 0.20813270E+03</pdfrwt>
<totfact> 0.12022727E+03</totfact>
</mgrwt>
</event>
<event>
 4    1  0.7245070E-001  0.3395735E+03  0.7546771E-02  0.1066978E+00
         -4   -1    0    0    0  501 -0.00000000000E+00  0.00000000000E+00  0.32761877580E+03  0.32761877580E+03  0.00000000000E+00 0. -1.
          4   -1    0    0  502    0  0.00000000000E+00 -0.00000000000E+00 -0.41263299833E+03  0.41263299833E+03  0.00000000000E+00 0.  1.
          6    1    1    2  502    0 -0.80797323043E+02  0.28080762998E+03 -0.18442907454E+03  0.38642491638E+03  0.17300000000E+03 0.  1.
         -6    1    1    2    0  501  0.80797323043E+02 -0.28080762998E+03  0.99414852005E+02  0.35382685775E+03  0.17300000000E+03 0. -1.
<mgrwt>
<rscale>  2 0.33957346E+03</rscale>
<asrwt>0</asrwt>
<pdfrwt beam="1">  1        4 0.63482000E-01 0.33957346E+03</pdfrwt>
<pdfrwt beam="2">  1       -4 0.50402889E-01 0.33957346E+03</pdfrwt>
<totfact> 0.16680073E+01</totfact>
</mgrwt>
</event>
<event>
 4    1  0.7245070E-001  0.2157345E+03  0.7546771E-02  0.1137104E+00
         -2   -1    0    0    0  501 -0.00000000000E+00  0.00000000000E+00  0.78109911869E+02  0.78109911869E+02  0.00000000000E+00 0. -1.
          2   -1    0    0  502    0  0.00000000000E+00 -0.00000000000E+00 -0.96730288017E+03  0.96730288017E+03  0.00000000000E+00 0.  1.
          6    1    1    2  502    0 -0.30644732876E+01 -0.12885261803E+03 -0.76851177778E+03  0.79821785294E+03  0.17300000000E+03 0.  1.
         -6    1    1    2    0  501  0.30644732876E+01  0.12885261803E+03 -0.12068119052E+03  0.24719493910E+03  0.17300000000E+03 0. -1.
<mgrwt>
<rscale>  2 0.21573453E+03</rscale>
<asrwt>0</asrwt>
<pdfrwt beam="1">  1        2 0.14881584E+00 0.21573453E+03</pdfrwt>
<pdfrwt beam="2">  1       -2 0.12016909E-01 0.21573453E+03</pdfrwt>
<totfact> 0.13582411E+03</totfact>
</mgrwt>
</event>
<event>
 4    1  0.7245070E-001  0.1891760E+03  0.7546771E-02  0.1159207E+00
          1   -1    0    0  502    0  0.00000000000E+00  0.00000000000E+00  0.11317868695E+04  0.11317868695E+04  0.00000000000E+00 0.  1.
         -1   -1    0    0    0  501 -0.00000000000E+00 -0.00000000000E+00 -0.31706932645E+02  0.31706932645E+02  0.00000000000E+00 0. -1.
          6    1    1    2  502    0  0.76373978247E+02 -0.50563606565E+01  0.58043144601E+03  0.61048195293E+03  0.17300000000E+03 0. -1.
         -6    1    1    2    0  501 -0.76373978247E+02  0.50563606565E+01  0.51964849088E+03  0.55301184925E+03  0.17300000000E+03 0. -1.
<mgrwt>
<rscale>  2 0.18917598E+03</rscale>
<asrwt>0</asrwt>
<pdfrwt beam="1">  1        1 0.17412103E+00 0.18917598E+03</pdfrwt>
<pdfrwt beam="2">  1       -1 0.48779905E-02 0.18917598E+03</pdfrwt>
<totfact> 0.23290600E+03</totfact>
</mgrwt>
</event>
<event>
 4    1  0.7245070E-001  0.1995642E+03  0.7546771E-02  0.1150107E+00
          4   -1    0    0  502    0  0.00000000000E+00  0.00000000000E+00  0.97441589812E+02  0.97441589812E+02  0.00000000000E+00 0.  1.
         -4   -1    0    0    0  501 -0.00000000000E+00 -0.00000000000E+00 -0.47584801707E+03  0.47584801707E+03  0.00000000000E+00 0. -1.
          6    1    1    2  502    0  0.30601463879E+02 -0.94659534630E+02 -0.29686876578E+03  0.35771069482E+03  0.17300000000E+03 0. -1.
         -6    1    1    2    0  501 -0.30601463879E+02  0.94659534630E+02 -0.81537661471E+02  0.21557891206E+03  0.17300000000E+03 0. -1.
<mgrwt>
<rscale>  2 0.19956422E+03</rscale>
<asrwt>0</asrwt>
<pdfrwt beam="1">  1        4 0.14991014E-01 0.19956422E+03</pdfrwt>
<pdfrwt beam="2">  1       -4 0.73207387E-01 0.19956422E+03</pdfrwt>
<totfact> 0.11590975E+02</totfact>
</mgrwt>
</event>
<event>
 4    1  0.7245070E-001  0.2042314E+03  0.7546771E-02  0.1146217E+00
         -1   -1    0    0    0  501 -0.00000000000E+00  0.00000000000E+00  0.82050628359E+02  0.82050628359E+02  0.00000000000E+00 0. -1.
          1   -1    0    0  502    0  0.00000000000E+00 -0.00000000000E+00 -0.70862502396E+03  0.70862502396E+03  0.00000000000E+00 0.  1.
          6    1    1    2  502    0  0.10414922712E+03 -0.30567839297E+02 -0.10311595419E+03  0.22878670048E+03  0.17300000000E+03 0.  1.
         -6    1    1    2    0  501 -0.10414922712E+03  0.30567839297E+02 -0.52345844141E+03  0.56188895183E+03  0.17300000000E+03 0.  1.
<mgrwt>
<rscale>  2 0.20423137E+03</rscale>
<asrwt>0</asrwt>
<pdfrwt beam="1">  1        1 0.10901924E+00 0.20423137E+03</pdfrwt>
<pdfrwt beam="2">  1       -1 0.12623174E-01 0.20423137E+03</pdfrwt>
<totfact> 0.11712648E+03</totfact>
</mgrwt>
</event>
<event>
 4    1  0.7245070E-001  0.2427590E+03  0.7546771E-02  0.1117968E+00
          2   -1    0    0  502    0  0.00000000000E+00  0.00000000000E+00  0.53219221204E+03  0.53219221204E+03  0.00000000000E+00 0.  1.
         -2   -1    0    0    0  501 -0.00000000000E+00 -0.00000000000E+00 -0.12328234567E+03  0.12328234567E+03  0.00000000000E+00 0. -1.
          6    1    1    2  502    0 -0.14635211046E+03  0.87086247624E+02  0.30901424265E+03  0.39296533807E+03  0.17300000000E+03 0.  1.
         -6    1    1    2    0  501  0.14635211046E+03 -0.87086247624E+02  0.99895623709E+02  0.26250921964E+03  0.17300000000E+03 0. -1.
<mgrwt>
<rscale>  2 0.24275905E+03</rscale>
<asrwt>0</asrwt>
<pdfrwt beam="1">  1        2 0.81875724E-01 0.24275905E+03</pdfrwt>
<pdfrwt beam="2">  1       -2 0.18966515E-01 0.24275905E+03</pdfrwt>
<totfact> 0.13341570E+03</totfact>
</mgrwt>
</event>
<event>
 4    1  0.7245070E-001  0.2077922E+03  0.7546771E-02  0.1143326E+00
          2   -1    0    0  502    0  0.00000000000E+00  0.00000000000E+00  0.11263965181E+03  0.11263965181E+03  0.00000000000E+00 0.  1.
         -2   -1    0    0    0  501 -0.00000000000E+00 -0.00000000000E+00 -0.38924239484E+03  0.38924239484E+03  0.00000000000E+00 0. -1.
          6    1    1    2  502    0  0.99731311892E+02 -0.57465244958E+02 -0.16924196848E+03  0.26799334478E+03  0.17300000000E+03 0. -1.
         -6    1    1    2    0  501 -0.99731311892E+02  0.57465244958E+02 -0.10736077455E+03  0.23388870187E+03  0.17300000000E+03 0.  1.
<mgrwt>
<rscale>  2 0.20779218E+03</rscale>
<asrwt>0</asrwt>
<pdfrwt beam="1">  1        2 0.17329177E-01 0.20779218E+03</pdfrwt>
<pdfrwt beam="2">  1       -2 0.59883445E-01 0.20779218E+03</pdfrwt>
<totfact> 0.86711995E+02</totfact>
</mgrwt>
</event>
<event>
 4    1  0.7245070E-001  0.2009617E+03  0.7546771E-02  0.1148930E+00
          2   -1    0    0  502    0  0.00000000000E+00  0.00000000000E+00  0.14553669099E+04  0.14553669099E+04  0.00000000000E+00 0.  1.
         -2   -1    0    0    0  501 -0.00000000000E+00 -0.00000000000E+00 -0.32709301938E+02  0.32709301938E+02  0.00000000000E+00 0. -1.
          6    1    1    2  502    0 -0.83234288516E+02 -0.59402413753E+02  0.42159775928E+03  0.46704417797E+03  0.17300000000E+03 0. -1.
         -6    1    1    2    0  501  0.83234288516E+02  0.59402413753E+02  0.10010598486E+04  0.10210320338E+04  0.17300000000E+03 0.  1.
<mgrwt>
<rscale>  2 0.20096167E+03</rscale>
<asrwt>0</asrwt>
<pdfrwt beam="1">  1        2 0.22390255E+00 0.20096167E+03</pdfrwt>
<pdfrwt beam="2">  1       -2 0.50322014E-02 0.20096167E+03</pdfrwt>
<totfact> 0.27926718E+03</totfact>
</mgrwt>
</event>
<event>
 4    1  0.7245070E-001  0.1825543E+03  0.7546771E-02  0.1165354E+00
          2   -1    0    0  502    0  0.00000000000E+00  0.00000000000E+00  0.26795173623E+04  0.26795173623E+04  0.00000000000E+00 0.  1.
         -2   -1    0    0    0  501 -0.00000000000E+00 -0.00000000000E+00 -0.12822569113E+02  0.12822569113E+02  0.00000000000E+00 0. -1.
          6    1    1    2  502    0  0.56329819244E+02 -0.14967890687E+02  0.11000186895E+04  0.11150637665E+04  0.17300000000E+03 0.  1.
         -6    1    1    2    0  501 -0.56329819244E+02  0.14967890687E+02  0.15666761037E+04  0.15772761649E+04  0.17300000000E+03 0.  1.
<mgrwt>
<rscale>  2 0.18255434E+03</rscale>
<asrwt>0</asrwt>
<pdfrwt beam="1">  1        2 0.41223299E+00 0.18255434E+03</pdfrwt>
<pdfrwt beam="2">  1       -2 0.19727051E-02 0.18255434E+03</pdfrwt>
<totfact> 0.25372006E+03</totfact>
</mgrwt>
</event>
<event>
 4    1  0.7245070E-001  0.2536403E+03  0.7546771E-02  0.1111026E+00
          2   -1    0    0  502    0  0.00000000000E+00  0.00000000000E+00  0.15680141610E+04  0.15680141610E+04  0.00000000000E+00 0. -1.
         -2   -1    0    0    0  501 -0.00000000000E+00 -0.00000000000E+00 -0.48279628030E+02  0.48279628030E+02  0.00000000000E+00 0.  1.
          6    1    1    2  502    0 -0.25647776789E+02 -0.18370246713E+03  0.10730577392E+04  0.11026270070E+04  0.17300000000E+03 0. -1.
         -6    1    1    2    0  501  0.25647776789E+02  0.18370246713E+03  0.44667679377E+03  0.51366678204E+03  0.17300000000E+03 0.  1.
<mgrwt>
<rscale>  2 0.25364031E+03</rscale>
<asrwt>0</asrwt>
<pdfrwt beam="1">  1        2 0.24123291E+00 0.25364031E+03</pdfrwt>
<pdfrwt beam="2">  1       -2 0.74276363E-02 0.25364031E+03</pdfrwt>
<totfact> 0.13355649E+03</totfact>
</mgrwt>
</event>
<event>
 4    1  0.7245070E-001  0.6275134E+03  0.7546771E-02  0.9849913E-01
         -2   -1    0    0    0  501 -0.00000000000E+00  0.00000000000E+00  0.50272606170E+03  0.50272606170E+03  0.00000000000E+00 0. -1.
          2   -1    0    0  502    0  0.00000000000E+00 -0.00000000000E+00 -0.87401229990E+03  0.87401229990E+03  0.00000000000E+00 0.  1.
          6    1    1    2  502    0  0.15818468906E+03 -0.58208394003E+03 -0.40743921164E+03  0.74818434913E+03  0.17300000000E+03 0. -1.
         -6    1    1    2    0  501 -0.15818468906E+03  0.58208394003E+03  0.36152973442E+02  0.62855401246E+03  0.17300000000E+03 0. -1.
<mgrwt>
<rscale>  2 0.62751343E+03</rscale>
<asrwt>0</asrwt>
<pdfrwt beam="1">  1        2 0.13446343E+00 0.62751343E+03</pdfrwt>
<pdfrwt beam="2">  1       -2 0.77342472E-01 0.62751343E+03</pdfrwt>
<totfact> 0.46718967E+01</totfact>
</mgrwt>
</event>
<event>
 4    1  0.7245070E-001  0.2943141E+03  0.7546771E-02  0.1088118E+00
          2   -1    0    0  502    0  0.00000000000E+00  0.00000000000E+00  0.49997737828E+03  0.49997737828E+03  0.00000000000E+00 0.  1.
         -2   -1    0    0    0  501 -0.00000000000E+00 -0.00000000000E+00 -0.20404182431E+03  0.20404182431E+03  0.00000000000E+00 0. -1.
          6    1    1    2  502    0 -0.22863381141E+03  0.66470991727E+02  0.11221218536E+02  0.29452797526E+03  0.17300000000E+03 0. -1.
         -6    1    1    2    0  501  0.22863381141E+03 -0.66470991727E+02  0.28471433543E+03  0.40949122733E+03  0.17300000000E+03 0.  1.
<mgrwt>
<rscale>  2 0.29431414E+03</rscale>
<asrwt>0</asrwt>
<pdfrwt beam="1">  1        2 0.76919596E-01 0.29431414E+03</pdfrwt>
<pdfrwt beam="2">  1       -2 0.31391050E-01 0.29431414E+03</pdfrwt>
<totfact> 0.58804704E+02</totfact>
</mgrwt>
</event>
<event>
 4    1  0.7245070E-001  0.1924663E+03  0.7546771E-02  0.1156256E+00
         -2   -1    0    0    0  501 -0.00000000000E+00  0.00000000000E+00  0.57695929899E+02  0.57695929899E+02  0.00000000000E+00 0. -1.
          2   -1    0    0  502    0  0.00000000000E+00 -0.00000000000E+00 -0.89948373480E+03  0.89948373480E+03  0.00000000000E+00 0.  1.
          6    1    1    2  502    0  0.82855414568E+02 -0.15787894202E+02 -0.16485538360E+03  0.25341778712E+03  0.17300000000E+03 0. -1.
         -6    1    1    2    0  501 -0.82855414568E+02  0.15787894202E+02 -0.67693242130E+03  0.70376187758E+03  0.17300000000E+03 0.  1.
<mgrwt>
<rscale>  2 0.19246630E+03</rscale>
<asrwt>0</asrwt>
<pdfrwt beam="1">  1        2 0.13838209E+00 0.19246630E+03</pdfrwt>
<pdfrwt beam="2">  1       -2 0.88762981E-02 0.19246630E+03</pdfrwt>
<totfact> 0.24241981E+03</totfact>
</mgrwt>
</event>
<event>
 4    1  0.7245070E-001  0.2864399E+03  0.7546771E-02  0.1092223E+00
          2   -1    0    0  502    0  0.00000000000E+00  0.00000000000E+00  0.12507427856E+03  0.12507427856E+03  0.00000000000E+00 0.  1.
         -2   -1    0    0    0  501 -0.00000000000E+00 -0.00000000000E+00 -0.66191705821E+03  0.66191705821E+03  0.00000000000E+00 0. -1.
          6    1    1    2  502    0  0.12644143466E+03  0.19008250103E+03 -0.30564896190E+03  0.41889029770E+03  0.17300000000E+03 0.  1.
         -6    1    1    2    0  501 -0.12644143466E+03 -0.19008250103E+03 -0.23119381775E+03  0.36810103907E+03  0.17300000000E+03 0.  1.
<mgrwt>
<rscale>  2 0.28643986E+03</rscale>
<asrwt>0</asrwt>
<pdfrwt beam="1">  1        2 0.19242196E-01 0.28643986E+03</pdfrwt>
<pdfrwt beam="2">  1       -2 0.10183340E+00 0.28643986E+03</pdfrwt>
<totfact> 0.23947569E+02</totfact>
</mgrwt>
</event>
<event>
 4    1  0.7245070E-001  0.1880197E+03  0.7546771E-02  0.1160260E+00
          2   -1    0    0  502    0  0.00000000000E+00  0.00000000000E+00  0.25227972427E+04  0.25227972427E+04  0.00000000000E+00 0.  1.
         -2   -1    0    0    0  501 -0.00000000000E+00 -0.00000000000E+00 -0.15479174365E+02  0.15479174365E+02  0.00000000000E+00 0. -1.
          6    1    1    2  502    0 -0.53950221586E+02 -0.50117692622E+02  0.86303405028E+03  0.88327752234E+03  0.17300000000E+03 0. -1.
         -6    1    1    2    0  501  0.53950221586E+02  0.50117692622E+02  0.16442840181E+04  0.16549988948E+04  0.17300000000E+03 0.  1.
<mgrwt>
<rscale>  2 0.18801971E+03</rscale>
<asrwt>0</asrwt>
<pdfrwt beam="1">  1        2 0.38812233E+00 0.18801971E+03</pdfrwt>
<pdfrwt beam="2">  1       -2 0.23814134E-02 0.18801971E+03</pdfrwt>
<totfact> 0.23444424E+03</totfact>
</mgrwt>
</event>
<event>
 4    1  0.7245070E-001  0.2232773E+03  0.7546771E-02  0.1131463E+00
         -2   -1    0    0    0  501 -0.00000000000E+00  0.00000000000E+00  0.52288851734E+02  0.52288851734E+02  0.00000000000E+00 0. -1.
          2   -1    0    0  502    0  0.00000000000E+00 -0.00000000000E+00 -0.12477641072E+04  0.12477641072E+04  0.00000000000E+00 0.  1.
          6    1    1    2  502    0 -0.89384704709E+02  0.10924333715E+03 -0.28201944097E+03  0.35970501419E+03  0.17300000000E+03 0. -1.
         -6    1    1    2    0  501  0.89384704709E+02 -0.10924333715E+03 -0.91345581450E+03  0.94034794475E+03  0.17300000000E+03 0.  1.
<mgrwt>
<rscale>  2 0.22327725E+03</rscale>
<asrwt>0</asrwt>
<pdfrwt beam="1">  1        2 0.19196369E+00 0.22327725E+03</pdfrwt>
<pdfrwt beam="2">  1       -2 0.80444394E-02 0.22327725E+03</pdfrwt>
<totfact> 0.17606134E+03</totfact>
</mgrwt>
</event>
<event>
 4    1  0.7245070E-001  0.1734086E+03  0.7546771E-02  0.1174339E+00
         -3   -1    0    0    0  501 -0.00000000000E+00  0.00000000000E+00  0.50340261472E+02  0.50340261472E+02  0.00000000000E+00 0.  1.
          3   -1    0    0  502    0  0.00000000000E+00 -0.00000000000E+00 -0.66355727874E+03  0.66355727874E+03  0.00000000000E+00 0. -1.
          6    1    1    2  502    0  0.10307316452E+02 -0.59401491208E+01 -0.41936316159E+03  0.45380170498E+03  0.17300000000E+03 0. -1.
         -6    1    1    2    0  501 -0.10307316452E+02  0.59401491208E+01 -0.19385385568E+03  0.26009583523E+03  0.17300000000E+03 0.  1.
<mgrwt>
<rscale>  2 0.17340855E+03</rscale>
<asrwt>0</asrwt>
<pdfrwt beam="1">  1        3 0.10208573E+00 0.17340855E+03</pdfrwt>
<pdfrwt beam="2">  1       -3 0.77446558E-02 0.17340855E+03</pdfrwt>
<totfact> 0.23393890E+02</totfact>
</mgrwt>
</event>
<event>
 4    1  0.7245070E-001  0.1987379E+03  0.7546771E-02  0.1150808E+00
          2   -1    0    0  502    0  0.00000000000E+00  0.00000000000E+00  0.18469679548E+04  0.18469679548E+04  0.00000000000E+00 0. -1.
         -2   -1    0    0    0  501 -0.00000000000E+00 -0.00000000000E+00 -0.26906694048E+02  0.26906694048E+02  0.00000000000E+00 0.  1.
          6    1    1    2  502    0 -0.87330210546E+02  0.44058741944E+02  0.48557643317E+03  0.52467247962E+03  0.17300000000E+03 0.  1.
         -6    1    1    2    0  501  0.87330210546E+02 -0.44058741944E+02  0.13344848276E+04  0.13492021693E+04  0.17300000000E+03 0. -1.
<mgrwt>
<rscale>  2 0.19873786E+03</rscale>
<asrwt>0</asrwt>
<pdfrwt beam="1">  1        2 0.28414882E+00 0.19873786E+03</pdfrwt>
<pdfrwt beam="2">  1       -2 0.41394928E-02 0.19873786E+03</pdfrwt>
<totfact> 0.23388366E+03</totfact>
</mgrwt>
</event>
<event>
 4    1  0.7245070E-001  0.3288164E+03  0.7546771E-02  0.1071662E+00
         -1   -1    0    0    0  501 -0.00000000000E+00  0.00000000000E+00  0.13323513333E+03  0.13323513333E+03  0.00000000000E+00 0.  1.
          1   -1    0    0  502    0  0.00000000000E+00 -0.00000000000E+00 -0.81920336727E+03  0.81920336727E+03  0.00000000000E+00 0. -1.
          6    1    1    2  502    0 -0.11895354890E+03  0.25306380256E+03 -0.38916555031E+03  0.50948018657E+03  0.17300000000E+03 0. -1.
         -6    1    1    2    0  501  0.11895354890E+03 -0.25306380256E+03 -0.29680268363E+03  0.44295831403E+03  0.17300000000E+03 0.  1.
<mgrwt>
<rscale>  2 0.32881642E+03</rscale>
<asrwt>0</asrwt>
<pdfrwt beam="1">  1        1 0.12603129E+00 0.32881642E+03</pdfrwt>
<pdfrwt beam="2">  1       -1 0.20497713E-01 0.32881642E+03</pdfrwt>
<totfact> 0.43053720E+02</totfact>
</mgrwt>
</event>
<event>
 4    1  0.7245070E-001  0.1735579E+03  0.7546771E-02  0.1174188E+00
         -1   -1    0    0    0  501 -0.00000000000E+00  0.00000000000E+00  0.49325025575E+03  0.49325025575E+03  0.00000000000E+00 0.  1.
          1   -1    0    0  502    0  0.00000000000E+00 -0.00000000000E+00 -0.18517358447E+03  0.18517358447E+03  0.00000000000E+00 0. -1.
          6    1    1    2  502    0  0.90732810134E+01 -0.10536386375E+02 -0.12366133138E+03  0.21310669803E+03  0.17300000000E+03 0. -1.
         -6    1    1    2    0  501 -0.90732810134E+01  0.10536386375E+02  0.43173800267E+03  0.46531714219E+03  0.17300000000E+03 0.  1.
<mgrwt>
<rscale>  2 0.17355789E+03</rscale>
<asrwt>0</asrwt>
<pdfrwt beam="1">  1        1 0.28488244E-01 0.17355789E+03</pdfrwt>
<pdfrwt beam="2">  1       -1 0.75884654E-01 0.17355789E+03</pdfrwt>
<totfact> 0.29796674E+02</totfact>
</mgrwt>
</event>
<event>
 4    1  0.7245070E-001  0.1781059E+03  0.7546771E-02  0.1169649E+00
         -1   -1    0    0    0  501 -0.00000000000E+00  0.00000000000E+00  0.12074504189E+03  0.12074504189E+03  0.00000000000E+00 0.  1.
          1   -1    0    0  502    0  0.00000000000E+00 -0.00000000000E+00 -0.33451070595E+03  0.33451070595E+03  0.00000000000E+00 0. -1.
          6    1    1    2  502    0  0.40215873017E+02  0.13243331945E+02 -0.14282528788E+01  0.17811160038E+03  0.17300000000E+03 0.  1.
         -6    1    1    2    0  501 -0.40215873017E+02 -0.13243331945E+02 -0.21233741118E+03  0.27714414746E+03  0.17300000000E+03 0. -1.
<mgrwt>
<rscale>  2 0.17810587E+03</rscale>
<asrwt>0</asrwt>
<pdfrwt beam="1">  1        1 0.51463185E-01 0.17810587E+03</pdfrwt>
<pdfrwt beam="2">  1       -1 0.18576160E-01 0.17810587E+03</pdfrwt>
<totfact> 0.17169135E+03</totfact>
</mgrwt>
</event>
<event>
 4    1  0.7245070E-001  0.2049002E+03  0.7546771E-02  0.1145669E+00
         -2   -1    0    0    0  501 -0.00000000000E+00  0.00000000000E+00  0.12911630047E+03  0.12911630047E+03  0.00000000000E+00 0.  1.
          2   -1    0    0  502    0  0.00000000000E+00 -0.00000000000E+00 -0.36155104735E+03  0.36155104735E+03  0.00000000000E+00 0. -1.
          6    1    1    2  502    0  0.72105322682E+02 -0.82800416961E+02 -0.19404620220E+03  0.28220208220E+03  0.17300000000E+03 0. -1.
         -6    1    1    2    0  501 -0.72105322682E+02  0.82800416961E+02 -0.38388544683E+02  0.20846526562E+03  0.17300000000E+03 0. -1.
<mgrwt>
<rscale>  2 0.20490019E+03</rscale>
<asrwt>0</asrwt>
<pdfrwt beam="1">  1        2 0.55623237E-01 0.20490019E+03</pdfrwt>
<pdfrwt beam="2">  1       -2 0.19864046E-01 0.20490019E+03</pdfrwt>
<totfact> 0.18808256E+03</totfact>
</mgrwt>
</event>
<event>
 4    1  0.7245070E-001  0.2512268E+03  0.7546771E-02  0.1112532E+00
          1   -1    0    0  502    0  0.00000000000E+00  0.00000000000E+00  0.19510108495E+04  0.19510108495E+04  0.00000000000E+00 0.  1.
         -1   -1    0    0    0  501 -0.00000000000E+00 -0.00000000000E+00 -0.53427670347E+02  0.53427670347E+02  0.00000000000E+00 0. -1.
          6    1    1    2  502    0 -0.16413435247E+03 -0.79030616701E+02  0.15782867447E+04  0.15981564293E+04  0.17300000000E+03 0.  1.
         -6    1    1    2    0  501  0.16413435247E+03  0.79030616701E+02  0.31929643443E+03  0.40628209051E+03  0.17300000000E+03 0. -1.
<mgrwt>
<rscale>  2 0.25122684E+03</rscale>
<asrwt>0</asrwt>
<pdfrwt beam="1">  1        1 0.30015546E+00 0.25122684E+03</pdfrwt>
<pdfrwt beam="2">  1       -1 0.82196431E-02 0.25122684E+03</pdfrwt>
<totfact> 0.30133827E+02</totfact>
</mgrwt>
</event>
<event>
 4    1  0.7245070E-001  0.1752539E+03  0.7546771E-02  0.1172477E+00
         -1   -1    0    0    0  501 -0.00000000000E+00  0.00000000000E+00  0.36327668514E+02  0.36327668514E+02  0.00000000000E+00 0.  1.
          1   -1    0    0  502    0  0.00000000000E+00 -0.00000000000E+00 -0.10955639026E+04  0.10955639026E+04  0.00000000000E+00 0. -1.
          6    1    1    2  502    0 -0.23926457127E+02  0.14575451760E+02 -0.80001915568E+03  0.81898996856E+03  0.17300000000E+03 0. -1.
         -6    1    1    2    0  501  0.23926457127E+02 -0.14575451760E+02 -0.25921707840E+03  0.31290160255E+03  0.17300000000E+03 0.  1.
<mgrwt>
<rscale>  2 0.17525387E+03</rscale>
<asrwt>0</asrwt>
<pdfrwt beam="1">  1        1 0.16854832E+00 0.17525387E+03</pdfrwt>
<pdfrwt beam="2">  1       -1 0.55888713E-02 0.17525387E+03</pdfrwt>
<totfact> 0.20151526E+03</totfact>
</mgrwt>
</event>
<event>
 4    1  0.7245070E-001  0.2604390E+03  0.7546771E-02  0.1106880E+00
          1   -1    0    0  502    0  0.00000000000E+00  0.00000000000E+00  0.30568049399E+03  0.30568049399E+03  0.00000000000E+00 0.  1.
         -1   -1    0    0    0  501 -0.00000000000E+00 -0.00000000000E+00 -0.22752575823E+03  0.22752575823E+03  0.00000000000E+00 0. -1.
          6    1    1    2  502    0 -0.19321901664E+03  0.23788075275E+02  0.81024088576E+02  0.27275146901E+03  0.17300000000E+03 0. -1.
         -6    1    1    2    0  501  0.19321901664E+03 -0.23788075275E+02 -0.28693528187E+01  0.26045478322E+03  0.17300000000E+03 0. -1.
<mgrwt>
<rscale>  2 0.26043898E+03</rscale>
<asrwt>0</asrwt>
<pdfrwt beam="1">  1        1 0.47027768E-01 0.26043898E+03</pdfrwt>
<pdfrwt beam="2">  1       -1 0.35003963E-01 0.26043898E+03</pdfrwt>
<totfact> 0.67125299E+02</totfact>
</mgrwt>
</event>
<event>
 4    1  0.7245070E-001  0.3000418E+03  0.7546771E-02  0.1085220E+00
         -2   -1    0    0    0  501 -0.00000000000E+00  0.00000000000E+00  0.27114187021E+03  0.27114187021E+03  0.00000000000E+00 0. -1.
          2   -1    0    0  502    0  0.00000000000E+00 -0.00000000000E+00 -0.33350429840E+03  0.33350429840E+03  0.00000000000E+00 0.  1.
          6    1    1    2  502    0 -0.23652252585E+03  0.64444932644E+02 -0.51336761570E+02  0.30440190155E+03  0.17300000000E+03 0. -1.
         -6    1    1    2    0  501  0.23652252585E+03 -0.64444932644E+02 -0.11025666620E+02  0.30024426706E+03  0.17300000000E+03 0.  1.
<mgrwt>
<rscale>  2 0.30004175E+03</rscale>
<asrwt>0</asrwt>
<pdfrwt beam="1">  1        2 0.51308354E-01 0.30004175E+03</pdfrwt>
<pdfrwt beam="2">  1       -2 0.41714134E-01 0.30004175E+03</pdfrwt>
<totfact> 0.53737229E+02</totfact>
</mgrwt>
</event>
<event>
 4    1  0.7245070E-001  0.2062104E+03  0.7546771E-02  0.1144603E+00
          3   -1    0    0  502    0  0.00000000000E+00  0.00000000000E+00  0.24545459224E+02  0.24545459224E+02  0.00000000000E+00 0.  1.
         -3   -1    0    0    0  501 -0.00000000000E+00 -0.00000000000E+00 -0.17363766202E+04  0.17363766202E+04  0.00000000000E+00 0. -1.
          6    1    1    2  502    0  0.98234168293E+02  0.54256552469E+02 -0.81381744932E+03  0.83953651864E+03  0.17300000000E+03 0.  1.
         -6    1    1    2    0  501 -0.98234168293E+02 -0.54256552469E+02 -0.89801371164E+03  0.92138556077E+03  0.17300000000E+03 0.  1.
<mgrwt>
<rscale>  2 0.20621039E+03</rscale>
<asrwt>0</asrwt>
<pdfrwt beam="1">  1        3 0.37762240E-02 0.20621039E+03</pdfrwt>
<pdfrwt beam="2">  1       -3 0.26713490E+00 0.20621039E+03</pdfrwt>
<totfact> 0.57994352E+01</totfact>
</mgrwt>
</event>
<event>
 4    1  0.7245070E-001  0.2323643E+03  0.7546771E-02  0.1124987E+00
          1   -1    0    0  502    0  0.00000000000E+00  0.00000000000E+00  0.15268568848E+03  0.15268568848E+03  0.00000000000E+00 0.  1.
         -1   -1    0    0    0  501 -0.00000000000E+00 -0.00000000000E+00 -0.36828071122E+03  0.36828071122E+03  0.00000000000E+00 0. -1.
          6    1    1    2  502    0  0.12140502890E+03 -0.96565989613E+02 -0.55831032004E+02  0.23897756281E+03  0.17300000000E+03 0. -1.
         -6    1    1    2    0  501 -0.12140502890E+03  0.96565989613E+02 -0.15976399074E+03  0.28198883688E+03  0.17300000000E+03 0. -1.
<mgrwt>
<rscale>  2 0.23236431E+03</rscale>
<asrwt>0</asrwt>
<pdfrwt beam="1">  1        1 0.23490106E-01 0.23236431E+03</pdfrwt>
<pdfrwt beam="2">  1       -1 0.56658571E-01 0.23236431E+03</pdfrwt>
<totfact> 0.67382132E+02</totfact>
</mgrwt>
</event>
<event>
 4    1  0.7245070E-001  0.1818319E+03  0.7546771E-02  0.1166042E+00
          1   -1    0    0  502    0  0.00000000000E+00  0.00000000000E+00  0.91175654776E+03  0.91175654776E+03  0.00000000000E+00 0. -1.
         -1   -1    0    0    0  501 -0.00000000000E+00 -0.00000000000E+00 -0.44641293424E+02  0.44641293424E+02  0.00000000000E+00 0.  1.
          6    1    1    2  502    0 -0.53853523338E+02  0.15285374667E+02  0.64072587499E+03  0.66602739549E+03  0.17300000000E+03 0.  1.
         -6    1    1    2    0  501  0.53853523338E+02 -0.15285374667E+02  0.22638937934E+03  0.29037044570E+03  0.17300000000E+03 0.  1.
<mgrwt>
<rscale>  2 0.18183191E+03</rscale>
<asrwt>0</asrwt>
<pdfrwt beam="1">  1        1 0.14027022E+00 0.18183191E+03</pdfrwt>
<pdfrwt beam="2">  1       -1 0.68678920E-02 0.18183191E+03</pdfrwt>
<totfact> 0.20232184E+03</totfact>
</mgrwt>
</event>
<event>
 4    1  0.7245070E-001  0.1766989E+03  0.7546771E-02  0.1171037E+00
          1   -1    0    0  502    0  0.00000000000E+00  0.00000000000E+00  0.72640748307E+03  0.72640748307E+03  0.00000000000E+00 0.  1.
         -1   -1    0    0    0  501 -0.00000000000E+00 -0.00000000000E+00 -0.45039172976E+02  0.45039172976E+02  0.00000000000E+00 0. -1.
          6    1    1    2  502    0 -0.35817954585E+02 -0.32534556975E+01  0.42311822595E+03  0.45853194434E+03  0.17300000000E+03 0.  1.
         -6    1    1    2    0  501  0.35817954585E+02  0.32534556975E+01  0.25825008414E+03  0.31291471171E+03  0.17300000000E+03 0.  1.
<mgrwt>
<rscale>  2 0.17669893E+03</rscale>
<asrwt>0</asrwt>
<pdfrwt beam="1">  1        1 0.11175499E+00 0.17669893E+03</pdfrwt>
<pdfrwt beam="2">  1       -1 0.69291041E-02 0.17669893E+03</pdfrwt>
<totfact> 0.28290054E+03</totfact>
</mgrwt>
</event>
<event>
 4    1  0.7245070E-001  0.2182447E+03  0.7546771E-02  0.1135198E+00
          2   -1    0    0  502    0  0.00000000000E+00  0.00000000000E+00  0.12133099954E+04  0.12133099954E+04  0.00000000000E+00 0.  1.
         -2   -1    0    0    0  501 -0.00000000000E+00 -0.00000000000E+00 -0.41414779777E+02  0.41414779777E+02  0.00000000000E+00 0. -1.
          6    1    1    2  502    0 -0.59873585593E+02  0.11881456872E+03  0.44274272162E+03  0.49361104682E+03  0.17300000000E+03 0. -1.
         -6    1    1    2    0  501  0.59873585593E+02 -0.11881456872E+03  0.72915249400E+03  0.76111372836E+03  0.17300000000E+03 0.  1.
<mgrwt>
<rscale>  2 0.21824470E+03</rscale>
<asrwt>0</asrwt>
<pdfrwt beam="1">  1        2 0.18666305E+00 0.21824470E+03</pdfrwt>
<pdfrwt beam="2">  1       -2 0.63715055E-02 0.21824470E+03</pdfrwt>
<totfact> 0.26421504E+03</totfact>
</mgrwt>
</event>
<event>
 4    1  0.7245070E-001  0.3146493E+03  0.7546771E-02  0.1078139E+00
          2   -1    0    0  502    0  0.00000000000E+00  0.00000000000E+00  0.90229848477E+03  0.90229848477E+03  0.00000000000E+00 0. -1.
         -2   -1    0    0    0  501 -0.00000000000E+00 -0.00000000000E+00 -0.46074391586E+03  0.46074391586E+03  0.00000000000E+00 0.  1.
          6    1    1    2  502    0  0.97945611198E+02  0.24388893967E+03 -0.37408330699E+03  0.48881742831E+03  0.17300000000E+03 0.  1.
         -6    1    1    2    0  501 -0.97945611198E+02 -0.24388893967E+03  0.81563787589E+03  0.87422497233E+03  0.17300000000E+03 0. -1.
<mgrwt>
<rscale>  2 0.31464926E+03</rscale>
<asrwt>0</asrwt>
<pdfrwt beam="1">  1        2 0.13881515E+00 0.31464926E+03</pdfrwt>
<pdfrwt beam="2">  1       -2 0.70883679E-01 0.31464926E+03</pdfrwt>
<totfact> 0.56516527E+01</totfact>
</mgrwt>
</event>
<event>
 4    1  0.7245070E-001  0.1817255E+03  0.7546771E-02  0.1166144E+00
         -2   -1    0    0    0  501 -0.00000000000E+00  0.00000000000E+00  0.20598978242E+02  0.20598978242E+02  0.00000000000E+00 0.  1.
          2   -1    0    0  502    0  0.00000000000E+00 -0.00000000000E+00 -0.16117503442E+04  0.16117503442E+04  0.00000000000E+00 0. -1.
          6    1    1    2  502    0 -0.55099044529E+02 -0.76965657382E+01 -0.85504578218E+03  0.87414382767E+03  0.17300000000E+03 0.  1.
         -6    1    1    2    0  501  0.55099044529E+02  0.76965657382E+01 -0.73610558380E+03  0.75820549479E+03  0.17300000000E+03 0. -1.
<mgrwt>
<rscale>  2 0.18172546E+03</rscale>
<asrwt>0</asrwt>
<pdfrwt beam="1">  1        2 0.24796163E+00 0.18172546E+03</pdfrwt>
<pdfrwt beam="2">  1       -2 0.31690730E-02 0.18172546E+03</pdfrwt>
<totfact> 0.46152631E+03</totfact>
</mgrwt>
</event>
<event>
 4    1  0.7245070E-001  0.1839003E+03  0.7546771E-02  0.1164081E+00
          4   -1    0    0  502    0  0.00000000000E+00  0.00000000000E+00  0.38366503098E+02  0.38366503098E+02  0.00000000000E+00 0. -1.
         -4   -1    0    0    0  501 -0.00000000000E+00 -0.00000000000E+00 -0.94156306908E+03  0.94156306908E+03  0.00000000000E+00 0.  1.
          6    1    1    2  502    0 -0.53815643616E+02 -0.31530968681E+02 -0.32782859409E+03  0.37588683482E+03  0.17300000000E+03 0. -1.
         -6    1    1    2    0  501  0.53815643616E+02  0.31530968681E+02 -0.57536797189E+03  0.60404273737E+03  0.17300000000E+03 0.  1.
<mgrwt>
<rscale>  2 0.18390031E+03</rscale>
<asrwt>0</asrwt>
<pdfrwt beam="1">  1        4 0.59025388E-02 0.18390031E+03</pdfrwt>
<pdfrwt beam="2">  1       -4 0.14485586E+00 0.18390031E+03</pdfrwt>
<totfact> 0.11141599E+02</totfact>
</mgrwt>
</event>
<event>
 4    1  0.7245070E-001  0.1783747E+03  0.7546771E-02  0.1169385E+00
          2   -1    0    0  502    0  0.00000000000E+00  0.00000000000E+00  0.12061656010E+04  0.12061656010E+04  0.00000000000E+00 0. -1.
         -2   -1    0    0    0  501 -0.00000000000E+00 -0.00000000000E+00 -0.30412685786E+02  0.30412685786E+02  0.00000000000E+00 0.  1.
          6    1    1    2  502    0  0.40541139713E+02 -0.15650335947E+02  0.81304718693E+03  0.83238407312E+03  0.17300000000E+03 0. -1.
         -6    1    1    2    0  501 -0.40541139713E+02  0.15650335947E+02  0.36270572830E+03  0.40419421367E+03  0.17300000000E+03 0.  1.
<mgrwt>
<rscale>  2 0.17837465E+03</rscale>
<asrwt>0</asrwt>
<pdfrwt beam="1">  1        2 0.18556390E+00 0.17837465E+03</pdfrwt>
<pdfrwt beam="2">  1       -2 0.46788757E-02 0.17837465E+03</pdfrwt>
<totfact> 0.42531644E+03</totfact>
</mgrwt>
</event>
<event>
 4    1  0.7245070E-001  0.2060612E+03  0.7546771E-02  0.1144724E+00
         -2   -1    0    0    0  501 -0.00000000000E+00  0.00000000000E+00  0.48067772651E+02  0.48067772651E+02  0.00000000000E+00 0.  1.
          2   -1    0    0  502    0  0.00000000000E+00 -0.00000000000E+00 -0.89372596996E+03  0.89372596996E+03  0.00000000000E+00 0. -1.
          6    1    1    2  502    0 -0.43649558233E+02 -0.10308699644E+03 -0.47353986895E+03  0.51643123478E+03  0.17300000000E+03 0.  1.
         -6    1    1    2    0  501  0.43649558233E+02  0.10308699644E+03 -0.37211832837E+03  0.42536250784E+03  0.17300000000E+03 0. -1.
<mgrwt>
<rscale>  2 0.20606119E+03</rscale>
<asrwt>0</asrwt>
<pdfrwt beam="1">  1        2 0.13749629E+00 0.20606119E+03</pdfrwt>
<pdfrwt beam="2">  1       -2 0.73950425E-02 0.20606119E+03</pdfrwt>
<totfact> 0.32547995E+03</totfact>
</mgrwt>
</event>
<event>
 4    1  0.7245070E-001  0.2099925E+03  0.7546771E-02  0.1141572E+00
          1   -1    0    0  502    0  0.00000000000E+00  0.00000000000E+00  0.36378760053E+02  0.36378760053E+02  0.00000000000E+00 0. -1.
         -1   -1    0    0    0  501 -0.00000000000E+00 -0.00000000000E+00 -0.13524814397E+04  0.13524814397E+04  0.00000000000E+00 0.  1.
          6    1    1    2  502    0 -0.80473958683E+02  0.87702870922E+02 -0.88173075063E+03  0.90639173000E+03  0.17300000000E+03 0.  1.
         -6    1    1    2    0  501  0.80473958683E+02 -0.87702870922E+02 -0.43437192902E+03  0.48246846976E+03  0.17300000000E+03 0. -1.
<mgrwt>
<rscale>  2 0.20999250E+03</rscale>
<asrwt>0</asrwt>
<pdfrwt beam="1">  1        1 0.55967326E-02 0.20999250E+03</pdfrwt>
<pdfrwt beam="2">  1       -1 0.20807406E+00 0.20999250E+03</pdfrwt>
<totfact> 0.21091712E+02</totfact>
</mgrwt>
</event>
<event>
 4    1  0.7245070E-001  0.2228410E+03  0.7546771E-02  0.1131783E+00
         -2   -1    0    0    0  501 -0.00000000000E+00  0.00000000000E+00  0.40061460505E+02  0.40061460505E+02  0.00000000000E+00 0.  1.
          2   -1    0    0  502    0  0.00000000000E+00 -0.00000000000E+00 -0.16031104777E+04  0.16031104777E+04  0.00000000000E+00 0. -1.
          6    1    1    2  502    0 -0.54729483570E+02  0.12935910623E+03 -0.11727804465E+04  0.11937638253E+04  0.17300000000E+03 0. -1.
         -6    1    1    2    0  501  0.54729483570E+02 -0.12935910623E+03 -0.39026857070E+03  0.44940811298E+03  0.17300000000E+03 0.  1.
<mgrwt>
<rscale>  2 0.22284096E+03</rscale>
<asrwt>0</asrwt>
<pdfrwt beam="1">  1        2 0.24663239E+00 0.22284096E+03</pdfrwt>
<pdfrwt beam="2">  1       -2 0.61633015E-02 0.22284096E+03</pdfrwt>
<totfact> 0.17112016E+03</totfact>
</mgrwt>
</event>
<event>
 4    1  0.7245070E-001  0.2251508E+03  0.7546771E-02  0.1130100E+00
         -2   -1    0    0    0  501 -0.00000000000E+00  0.00000000000E+00  0.65177961037E+02  0.65177961037E+02  0.00000000000E+00 0. -1.
          2   -1    0    0  502    0  0.00000000000E+00 -0.00000000000E+00 -0.80320956777E+03  0.80320956777E+03  0.00000000000E+00 0.  1.
          6    1    1    2  502    0 -0.14194578202E+03  0.24804420184E+02 -0.44630207747E+03  0.49987839386E+03  0.17300000000E+03 0.  1.
         -6    1    1    2    0  501  0.14194578202E+03 -0.24804420184E+02 -0.29172952927E+03  0.36850913495E+03  0.17300000000E+03 0.  1.
<mgrwt>
<rscale>  2 0.22515076E+03</rscale>
<asrwt>0</asrwt>
<pdfrwt beam="1">  1        2 0.12357070E+00 0.22515076E+03</pdfrwt>
<pdfrwt beam="2">  1       -2 0.10027379E-01 0.22515076E+03</pdfrwt>
<totfact> 0.23217830E+03</totfact>
</mgrwt>
</event>
<event>
 4    1  0.7245070E-001  0.1934745E+03  0.7546771E-02  0.1155364E+00
          1   -1    0    0  502    0  0.00000000000E+00  0.00000000000E+00  0.23006634346E+04  0.23006634346E+04  0.00000000000E+00 0.  1.
         -1   -1    0    0    0  501 -0.00000000000E+00 -0.00000000000E+00 -0.26316881417E+02  0.26316881417E+02  0.00000000000E+00 0. -1.
          6    1    1    2  502    0 -0.86449022893E+02 -0.54717914632E+01  0.18560521020E+04  0.18661087266E+04  0.17300000000E+03 0.  1.
         -6    1    1    2    0  501  0.86449022893E+02  0.54717914632E+01  0.41829445115E+03  0.46087158941E+03  0.17300000000E+03 0. -1.
<mgrwt>
<rscale>  2 0.19347448E+03</rscale>
<asrwt>0</asrwt>
<pdfrwt beam="1">  1        1 0.35394806E+00 0.19347448E+03</pdfrwt>
<pdfrwt beam="2">  1       -1 0.40487528E-02 0.19347448E+03</pdfrwt>
<totfact> 0.52573887E+02</totfact>
</mgrwt>
</event>
<event>
 4    1  0.7245070E-001  0.2475038E+03  0.7546771E-02  0.1114893E+00
          1   -1    0    0  502    0  0.00000000000E+00  0.00000000000E+00  0.39788226466E+03  0.39788226466E+03  0.00000000000E+00 0.  1.
         -1   -1    0    0    0  501 -0.00000000000E+00 -0.00000000000E+00 -0.21590030873E+03  0.21590030873E+03  0.00000000000E+00 0. -1.
          6    1    1    2  502    0 -0.60977075168E+02 -0.16616533145E+03 -0.73386810215E+02  0.25815449829E+03  0.17300000000E+03 0. -1.
         -6    1    1    2    0  501  0.60977075168E+02  0.16616533145E+03  0.25536876614E+03  0.35562807509E+03  0.17300000000E+03 0.  1.
<mgrwt>
<rscale>  2 0.24750378E+03</rscale>
<asrwt>0</asrwt>
<pdfrwt beam="1">  1        1 0.61212656E-01 0.24750378E+03</pdfrwt>
<pdfrwt beam="2">  1       -1 0.33215432E-01 0.24750378E+03</pdfrwt>
<totfact> 0.52583882E+02</totfact>
</mgrwt>
</event>
<event>
 4    1  0.7245070E-001  0.3566906E+03  0.7546771E-02  0.1059902E+00
          2   -1    0    0  502    0  0.00000000000E+00  0.00000000000E+00  0.81759285570E+03  0.81759285570E+03  0.00000000000E+00 0. -1.
         -2   -1    0    0    0  501 -0.00000000000E+00 -0.00000000000E+00 -0.16063030810E+03  0.16063030810E+03  0.00000000000E+00 0.  1.
          6    1    1    2  502    0  0.22350192707E+03  0.21759159120E+03  0.24203974395E+03  0.43105852226E+03  0.17300000000E+03 0.  1.
         -6    1    1    2    0  501 -0.22350192707E+03 -0.21759159120E+03  0.41492280365E+03  0.54716464154E+03  0.17300000000E+03 0. -1.
<mgrwt>
<rscale>  2 0.35669064E+03</rscale>
<asrwt>0</asrwt>
<pdfrwt beam="1">  1        2 0.12578351E+00 0.35669064E+03</pdfrwt>
<pdfrwt beam="2">  1       -2 0.24712356E-01 0.35669064E+03</pdfrwt>
<totfact> 0.50055652E+02</totfact>
</mgrwt>
</event>
<event>
 4    1  0.7245070E-001  0.1805982E+03  0.7546771E-02  0.1167225E+00
          1   -1    0    0  502    0  0.00000000000E+00  0.00000000000E+00  0.70269150799E+03  0.70269150799E+03  0.00000000000E+00 0. -1.
         -1   -1    0    0    0  501 -0.00000000000E+00 -0.00000000000E+00 -0.48661883021E+02  0.48661883021E+02  0.00000000000E+00 0.  1.
          6    1    1    2  502    0  0.39023232079E+02 -0.34115718998E+02  0.40773331365E+03  0.44593962594E+03  0.17300000000E+03 0.  1.
         -6    1    1    2    0  501 -0.39023232079E+02  0.34115718998E+02  0.24629631131E+03  0.30541376506E+03  0.17300000000E+03 0. -1.
<mgrwt>
<rscale>  2 0.18059816E+03</rscale>
<asrwt>0</asrwt>
<pdfrwt beam="1">  1        1 0.10810638E+00 0.18059816E+03</pdfrwt>
<pdfrwt beam="2">  1       -1 0.74864440E-02 0.18059816E+03</pdfrwt>
<totfact> 0.26427909E+03</totfact>
</mgrwt>
</event>
<event>
 4    1  0.7245070E-001  0.2252965E+03  0.7546771E-02  0.1129995E+00
         -2   -1    0    0    0  501 -0.00000000000E+00  0.00000000000E+00  0.64207617449E+02  0.64207617449E+02  0.00000000000E+00 0. -1.
          2   -1    0    0  502    0  0.00000000000E+00 -0.00000000000E+00 -0.91976941876E+03  0.91976941876E+03  0.00000000000E+00 0.  1.
          6    1    1    2  502    0 -0.42788334427E+00 -0.14432369410E+03 -0.61219785351E+03  0.65233789067E+03  0.17300000000E+03 0.  1.
         -6    1    1    2    0  501  0.42788334427E+00  0.14432369410E+03 -0.24336394781E+03  0.33163914554E+03  0.17300000000E+03 0. -1.
<mgrwt>
<rscale>  2 0.22529650E+03</rscale>
<asrwt>0</asrwt>
<pdfrwt beam="1">  1        2 0.14150298E+00 0.22529650E+03</pdfrwt>
<pdfrwt beam="2">  1       -2 0.98780952E-02 0.22529650E+03</pdfrwt>
<totfact> 0.19914808E+03</totfact>
</mgrwt>
</event>
<event>
 4    1  0.7245070E-001  0.1778091E+03  0.7546771E-02  0.1169940E+00
         -1   -1    0    0    0  501 -0.00000000000E+00  0.00000000000E+00  0.35325243766E+02  0.35325243766E+02  0.00000000000E+00 0.  1.
          1   -1    0    0  502    0  0.00000000000E+00 -0.00000000000E+00 -0.10210559935E+04  0.10210559935E+04  0.00000000000E+00 0. -1.
          6    1    1    2  502    0  0.40592480979E+02  0.62714136641E+01 -0.67845268999E+03  0.70136590500E+03  0.17300000000E+03 0. -1.
         -6    1    1    2    0  501 -0.40592480979E+02 -0.62714136641E+01 -0.30727805971E+03  0.35501533223E+03  0.17300000000E+03 0.  1.
<mgrwt>
<rscale>  2 0.17780911E+03</rscale>
<asrwt>0</asrwt>
<pdfrwt beam="1">  1        1 0.15708556E+00 0.17780911E+03</pdfrwt>
<pdfrwt beam="2">  1       -1 0.54346522E-02 0.17780911E+03</pdfrwt>
<totfact> 0.23788921E+03</totfact>
</mgrwt>
</event>
<event>
 4    1  0.7245070E-001  0.2208763E+03  0.7546771E-02  0.1133231E+00
          2   -1    0    0  502    0  0.00000000000E+00  0.00000000000E+00  0.20488174621E+04  0.20488174621E+04  0.00000000000E+00 0. -1.
         -2   -1    0    0    0  501 -0.00000000000E+00 -0.00000000000E+00 -0.24769116390E+02  0.24769116390E+02  0.00000000000E+00 0.  1.
          6    1    1    2  502    0 -0.13122991348E+03  0.40448193742E+02  0.12158361955E+04  0.12357362181E+04  0.17300000000E+03 0. -1.
         -6    1    1    2    0  501  0.13122991348E+03 -0.40448193742E+02  0.80821215023E+03  0.83785036035E+03  0.17300000000E+03 0.  1.
<mgrwt>
<rscale>  2 0.22087632E+03</rscale>
<asrwt>0</asrwt>
<pdfrwt beam="1">  1        2 0.31520255E+00 0.22087632E+03</pdfrwt>
<pdfrwt beam="2">  1       -2 0.38106349E-02 0.22087632E+03</pdfrwt>
<totfact> 0.20765995E+03</totfact>
</mgrwt>
</event>
<event>
 4    1  0.7245070E-001  0.2199964E+03  0.7546771E-02  0.1133886E+00
          2   -1    0    0  502    0  0.00000000000E+00  0.00000000000E+00  0.20534301967E+04  0.20534301967E+04  0.00000000000E+00 0. -1.
         -2   -1    0    0    0  501 -0.00000000000E+00 -0.00000000000E+00 -0.47443321391E+02  0.47443321391E+02  0.00000000000E+00 0.  1.
          6    1    1    2  502    0 -0.13121540824E+03 -0.35382522046E+02  0.25784469998E+03  0.33894290896E+03  0.17300000000E+03 0.  1.
         -6    1    1    2    0  501  0.13121540824E+03  0.35382522046E+02  0.17481421753E+04  0.17619306091E+04  0.17300000000E+03 0. -1.
<mgrwt>
<rscale>  2 0.21999638E+03</rscale>
<asrwt>0</asrwt>
<pdfrwt beam="1">  1        2 0.31591227E+00 0.21999638E+03</pdfrwt>
<pdfrwt beam="2">  1       -2 0.72989741E-02 0.21999638E+03</pdfrwt>
<totfact> 0.76686311E+02</totfact>
</mgrwt>
</event>
<event>
 4    1  0.7245070E-001  0.2280411E+03  0.7546771E-02  0.1128026E+00
          2   -1    0    0  502    0  0.00000000000E+00  0.00000000000E+00  0.12300973145E+04  0.12300973145E+04  0.00000000000E+00 0. -1.
         -2   -1    0    0    0  501 -0.00000000000E+00 -0.00000000000E+00 -0.57276979825E+02  0.57276979825E+02  0.00000000000E+00 0.  1.
          6    1    1    2  502    0 -0.14847380048E+03 -0.54123221083E+01  0.25698681712E+03  0.34357675537E+03  0.17300000000E+03 0.  1.
         -6    1    1    2    0  501  0.14847380048E+03  0.54123221083E+01  0.91583351760E+03  0.94379753900E+03  0.17300000000E+03 0. -1.
<mgrwt>
<rscale>  2 0.22804114E+03</rscale>
<asrwt>0</asrwt>
<pdfrwt beam="1">  1        2 0.18924572E+00 0.22804114E+03</pdfrwt>
<pdfrwt beam="2">  1       -2 0.88118440E-02 0.22804114E+03</pdfrwt>
<totfact> 0.15611925E+03</totfact>
</mgrwt>
</event>
<event>
 4    1  0.7245070E-001  0.1758398E+03  0.7546771E-02  0.1171891E+00
          2   -1    0    0  502    0  0.00000000000E+00  0.00000000000E+00  0.14593743826E+04  0.14593743826E+04  0.00000000000E+00 0. -1.
         -2   -1    0    0    0  501 -0.00000000000E+00 -0.00000000000E+00 -0.21362030679E+02  0.21362030679E+02  0.00000000000E+00 0.  1.
          6    1    1    2  502    0 -0.34517468002E+01  0.31284302452E+02  0.65197064776E+03  0.67526687145E+03  0.17300000000E+03 0.  1.
         -6    1    1    2    0  501  0.34517468002E+01 -0.31284302452E+02  0.78604170421E+03  0.80546954188E+03  0.17300000000E+03 0. -1.
<mgrwt>
<rscale>  2 0.17583976E+03</rscale>
<asrwt>0</asrwt>
<pdfrwt beam="1">  1        2 0.22451906E+00 0.17583976E+03</pdfrwt>
<pdfrwt beam="2">  1       -2 0.32864674E-02 0.17583976E+03</pdfrwt>
<totfact> 0.52543918E+03</totfact>
</mgrwt>
</event>
<event>
 4    1  0.7245070E-001  0.2036550E+03  0.7546771E-02  0.1146691E+00
         -1   -1    0    0    0  501 -0.00000000000E+00  0.00000000000E+00  0.46300050418E+02  0.46300050418E+02  0.00000000000E+00 0. -1.
          1   -1    0    0  502    0  0.00000000000E+00 -0.00000000000E+00 -0.90348401439E+03  0.90348401439E+03  0.00000000000E+00 0.  1.
          6    1    1    2  502    0 -0.68583908851E+02  0.82720039006E+02 -0.47240142187E+03  0.51443022928E+03  0.17300000000E+03 0. -1.
         -6    1    1    2    0  501  0.68583908851E+02 -0.82720039006E+02 -0.38478254210E+03  0.43535383553E+03  0.17300000000E+03 0. -1.
<mgrwt>
<rscale>  2 0.20365500E+03</rscale>
<asrwt>0</asrwt>
<pdfrwt beam="1">  1        1 0.13899754E+00 0.20365500E+03</pdfrwt>
<pdfrwt beam="2">  1       -1 0.71230845E-02 0.20365500E+03</pdfrwt>
<totfact> 0.19458849E+03</totfact>
</mgrwt>
</event>
<event>
 4    1  0.7245070E-001  0.3780772E+03  0.7546771E-02  0.1051647E+00
         -1   -1    0    0    0  501 -0.00000000000E+00  0.00000000000E+00  0.48255828458E+02  0.48255828458E+02  0.00000000000E+00 0.  1.
          1   -1    0    0  502    0  0.00000000000E+00 -0.00000000000E+00 -0.29629032565E+04  0.29629032565E+04  0.00000000000E+00 0. -1.
          6    1    1    2  502    0 -0.24587449843E+02  0.33527420351E+03 -0.14808855906E+04  0.15283862295E+04  0.17300000000E+03 0.  1.
         -6    1    1    2    0  501  0.24587449843E+02 -0.33527420351E+03 -0.14337618374E+04  0.14827728554E+04  0.17300000000E+03 0. -1.
<mgrwt>
<rscale>  2 0.37807715E+03</rscale>
<asrwt>0</asrwt>
<pdfrwt beam="1">  1        1 0.45583125E+00 0.37807715E+03</pdfrwt>
<pdfrwt beam="2">  1       -1 0.74239739E-02 0.37807715E+03</pdfrwt>
<totfact> 0.72035326E+01</totfact>
</mgrwt>
</event>
<event>
 4    1  0.7245070E-001  0.1753784E+03  0.7546771E-02  0.1172352E+00
         -2   -1    0    0    0  501 -0.00000000000E+00  0.00000000000E+00  0.78657037306E+02  0.78657037306E+02  0.00000000000E+00 0. -1.
          2   -1    0    0  502    0  0.00000000000E+00 -0.00000000000E+00 -0.12077748704E+04  0.12077748704E+04  0.00000000000E+00 0.  1.
          6    1    1    2  502    0 -0.18357216262E+02  0.22171948464E+02 -0.10934983365E+04  0.11074728866E+04  0.17300000000E+03 0.  1.
         -6    1    1    2    0  501  0.18357216262E+02 -0.22171948464E+02 -0.35619496594E+02  0.17895902108E+03  0.17300000000E+03 0. -1.
<mgrwt>
<rscale>  2 0.17537840E+03</rscale>
<asrwt>0</asrwt>
<pdfrwt beam="1">  1        2 0.18581150E+00 0.17537840E+03</pdfrwt>
<pdfrwt beam="2">  1       -2 0.12101084E-01 0.17537840E+03</pdfrwt>
<totfact> 0.97217587E+02</totfact>
</mgrwt>
</event>
<event>
 4    1  0.7245070E-001  0.1985558E+03  0.7546771E-02  0.1150963E+00
          1   -1    0    0  502    0  0.00000000000E+00  0.00000000000E+00  0.29971696121E+03  0.29971696121E+03  0.00000000000E+00 0.  1.
         -1   -1    0    0    0  501 -0.00000000000E+00 -0.00000000000E+00 -0.13246312500E+03  0.13246312500E+03  0.00000000000E+00 0. -1.
          6    1    1    2  502    0  0.95131087917E+02  0.21106021206E+02  0.65575289966E+02  0.20910405705E+03  0.17300000000E+03 0. -1.
         -6    1    1    2    0  501 -0.95131087917E+02 -0.21106021206E+02  0.10167854625E+03  0.22307602916E+03  0.17300000000E+03 0.  1.
<mgrwt>
<rscale>  2 0.19855576E+03</rscale>
<asrwt>0</asrwt>
<pdfrwt beam="1">  1        1 0.46110301E-01 0.19855576E+03</pdfrwt>
<pdfrwt beam="2">  1       -1 0.20378942E-01 0.19855576E+03</pdfrwt>
<totfact> 0.17011244E+03</totfact>
</mgrwt>
</event>
<event>
 4    1  0.7245070E-001  0.1816550E+03  0.7546771E-02  0.1166211E+00
         -1   -1    0    0    0  501 -0.00000000000E+00  0.00000000000E+00  0.41483289066E+02  0.41483289066E+02  0.00000000000E+00 0.  1.
          1   -1    0    0  502    0  0.00000000000E+00 -0.00000000000E+00 -0.17735371665E+04  0.17735371665E+04  0.00000000000E+00 0. -1.
          6    1    1    2  502    0  0.52790667250E+02  0.16813750989E+02 -0.19209420389E+03  0.26438369833E+03  0.17300000000E+03 0.  1.
         -6    1    1    2    0  501 -0.52790667250E+02 -0.16813750989E+02 -0.15399596735E+04  0.15506367572E+04  0.17300000000E+03 0. -1.
<mgrwt>
<rscale>  2 0.18165505E+03</rscale>
<asrwt>0</asrwt>
<pdfrwt beam="1">  1        1 0.27285186E+00 0.18165505E+03</pdfrwt>
<pdfrwt beam="2">  1       -1 0.63820449E-02 0.18165505E+03</pdfrwt>
<totfact> 0.58389244E+02</totfact>
</mgrwt>
</event>
<event>
 4    1  0.7245070E-001  0.1806738E+03  0.7546771E-02  0.1167153E+00
          2   -1    0    0  502    0  0.00000000000E+00  0.00000000000E+00  0.65565725097E+03  0.65565725097E+03  0.00000000000E+00 0.  1.
         -2   -1    0    0    0  501 -0.00000000000E+00 -0.00000000000E+00 -0.82576454819E+02  0.82576454819E+02  0.00000000000E+00 0. -1.
          6    1    1    2  502    0  0.41984757194E+02  0.30842992054E+02  0.51913779541E+03  0.54967905238E+03  0.17300000000E+03 0.  1.
         -6    1    1    2    0  501 -0.41984757194E+02 -0.30842992054E+02  0.53943000740E+02  0.18855465341E+03  0.17300000000E+03 0. -1.
<mgrwt>
<rscale>  2 0.18067377E+03</rscale>
<asrwt>0</asrwt>
<pdfrwt beam="1">  1        2 0.10087034E+00 0.18067377E+03</pdfrwt>
<pdfrwt beam="2">  1       -2 0.12704070E-01 0.18067377E+03</pdfrwt>
<totfact> 0.20281381E+03</totfact>
</mgrwt>
</event>
<event>
 4    1  0.7245070E-001  0.2136111E+03  0.7546771E-02  0.1138738E+00
          3   -1    0    0  502    0  0.00000000000E+00  0.00000000000E+00  0.32636859067E+03  0.32636859067E+03  0.00000000000E+00 0.  1.
         -3   -1    0    0    0  501 -0.00000000000E+00 -0.00000000000E+00 -0.14212314644E+03  0.14212314644E+03  0.00000000000E+00 0. -1.
          6    1    1    2  502    0  0.99060108458E+02  0.76732080704E+02  0.62241026020E+02  0.22249418558E+03  0.17300000000E+03 0. -1.
         -6    1    1    2    0  501 -0.99060108458E+02 -0.76732080704E+02  0.12200441821E+03  0.24599755153E+03  0.17300000000E+03 0.  1.
<mgrwt>
<rscale>  2 0.21361114E+03</rscale>
<asrwt>0</asrwt>
<pdfrwt beam="1">  1        3 0.50210552E-01 0.21361114E+03</pdfrwt>
<pdfrwt beam="2">  1       -3 0.21865100E-01 0.21361114E+03</pdfrwt>
<totfact> 0.18648069E+02</totfact>
</mgrwt>
</event>
<event>
 4    1  0.7245070E-001  0.1992843E+03  0.7546771E-02  0.1150344E+00
         -2   -1    0    0    0  501 -0.00000000000E+00  0.00000000000E+00  0.59609165157E+02  0.59609165157E+02  0.00000000000E+00 0.  1.
          2   -1    0    0  502    0  0.00000000000E+00 -0.00000000000E+00 -0.74056079177E+03  0.74056079177E+03  0.00000000000E+00 0. -1.
          6    1    1    2  502    0  0.98845004038E+02 -0.38577726260E+01 -0.46721674746E+03  0.50794262111E+03  0.17300000000E+03 0. -1.
         -6    1    1    2    0  501 -0.98845004038E+02  0.38577726260E+01 -0.21373487915E+03  0.29222733582E+03  0.17300000000E+03 0.  1.
<mgrwt>
<rscale>  2 0.19928426E+03</rscale>
<asrwt>0</asrwt>
<pdfrwt beam="1">  1        2 0.11393243E+00 0.19928426E+03</pdfrwt>
<pdfrwt beam="2">  1       -2 0.91706406E-02 0.19928426E+03</pdfrwt>
<totfact> 0.29524683E+03</totfact>
</mgrwt>
</event>
<event>
 4    1  0.7245070E-001  0.2423399E+03  0.7546771E-02  0.1118244E+00
         -2   -1    0    0    0  501 -0.00000000000E+00  0.00000000000E+00  0.47494266704E+02  0.47494266704E+02  0.00000000000E+00 0.  1.
          2   -1    0    0  502    0  0.00000000000E+00 -0.00000000000E+00 -0.15939052853E+04  0.15939052853E+04  0.00000000000E+00 0. -1.
          6    1    1    2  502    0  0.13645373502E+03 -0.10089599732E+03 -0.11618105486E+04  0.11868160661E+04  0.17300000000E+03 0. -1.
         -6    1    1    2    0  501 -0.13645373502E+03  0.10089599732E+03 -0.38460047001E+03  0.45458348585E+03  0.17300000000E+03 0.  1.
<mgrwt>
<rscale>  2 0.24233989E+03</rscale>
<asrwt>0</asrwt>
<pdfrwt beam="1">  1        2 0.24521616E+00 0.24233989E+03</pdfrwt>
<pdfrwt beam="2">  1       -2 0.73068114E-02 0.24233989E+03</pdfrwt>
<totfact> 0.13285272E+03</totfact>
</mgrwt>
</event>
<event>
 4    1  0.7245070E-001  0.3313874E+03  0.7546771E-02  0.1070525E+00
          1   -1    0    0  502    0  0.00000000000E+00  0.00000000000E+00  0.78350287572E+03  0.78350287572E+03  0.00000000000E+00 0. -1.
         -1   -1    0    0    0  501 -0.00000000000E+00 -0.00000000000E+00 -0.14024569053E+03  0.14024569053E+03  0.00000000000E+00 0.  1.
          6    1    1    2  502    0  0.26254593130E+03  0.10468177547E+03  0.33288469000E+03  0.46971252591E+03  0.17300000000E+03 0.  1.
         -6    1    1    2    0  501 -0.26254593130E+03 -0.10468177547E+03  0.31037249519E+03  0.45403604034E+03  0.17300000000E+03 0.  1.
<mgrwt>
<rscale>  2 0.33138745E+03</rscale>
<asrwt>0</asrwt>
<pdfrwt beam="1">  1        1 0.12053890E+00 0.33138745E+03</pdfrwt>
<pdfrwt beam="2">  1       -1 0.21576261E-01 0.33138745E+03</pdfrwt>
<totfact> 0.42399655E+02</totfact>
</mgrwt>
</event>
<event>
 4    1  0.7245070E-001  0.2576620E+03  0.7546771E-02  0.1108556E+00
          2   -1    0    0  502    0  0.00000000000E+00  0.00000000000E+00  0.49134670064E+03  0.49134670064E+03  0.00000000000E+00 0.  1.
         -2   -1    0    0    0  501 -0.00000000000E+00 -0.00000000000E+00 -0.13693737776E+03  0.13693737776E+03  0.00000000000E+00 0. -1.
          6    1    1    2  502    0 -0.78072466561E+02 -0.17425662542E+03  0.14099276565E+03  0.29371523880E+03  0.17300000000E+03 0.  1.
         -6    1    1    2    0  501  0.78072466561E+02  0.17425662542E+03  0.21341655723E+03  0.33456883961E+03  0.17300000000E+03 0. -1.
<mgrwt>
<rscale>  2 0.25766195E+03</rscale>
<asrwt>0</asrwt>
<pdfrwt beam="1">  1        2 0.75591799E-01 0.25766195E+03</pdfrwt>
<pdfrwt beam="2">  1       -2 0.21067289E-01 0.25766195E+03</pdfrwt>
<totfact> 0.12198692E+03</totfact>
</mgrwt>
</event>
<event>
 4    1  0.7245070E-001  0.1838313E+03  0.7546771E-02  0.1164146E+00
         -2   -1    0    0    0  501 -0.00000000000E+00  0.00000000000E+00  0.28539306777E+02  0.28539306777E+02  0.00000000000E+00 0.  1.
          2   -1    0    0  502    0  0.00000000000E+00 -0.00000000000E+00 -0.14586417943E+04  0.14586417943E+04  0.00000000000E+00 0. -1.
          6    1    1    2  502    0 -0.43874293703E+02  0.44045208265E+02 -0.39246281939E+03  0.43338320067E+03  0.17300000000E+03 0.  1.
         -6    1    1    2    0  501  0.43874293703E+02 -0.44045208265E+02 -0.10376396682E+04  0.10537979004E+04  0.17300000000E+03 0. -1.
<mgrwt>
<rscale>  2 0.18383127E+03</rscale>
<asrwt>0</asrwt>
<pdfrwt beam="1">  1        2 0.22440642E+00 0.18383127E+03</pdfrwt>
<pdfrwt beam="2">  1       -2 0.43906627E-02 0.18383127E+03</pdfrwt>
<totfact> 0.34148889E+03</totfact>
</mgrwt>
</event>
<event>
 4    1  0.7245070E-001  0.1789214E+03  0.7546771E-02  0.1168851E+00
         -2   -1    0    0    0  501 -0.00000000000E+00  0.00000000000E+00  0.82426540997E+02  0.82426540997E+02  0.00000000000E+00 0. -1.
          2   -1    0    0  502    0  0.00000000000E+00 -0.00000000000E+00 -0.38873778997E+03  0.38873778997E+03  0.00000000000E+00 0.  1.
          6    1    1    2  502    0  0.24490073406E+02  0.38524115574E+02 -0.14601475803E+03  0.23093977730E+03  0.17300000000E+03 0.  1.
         -6    1    1    2    0  501 -0.24490073406E+02 -0.38524115574E+02 -0.16029649094E+03  0.24022455367E+03  0.17300000000E+03 0. -1.
<mgrwt>
<rscale>  2 0.17892141E+03</rscale>
<asrwt>0</asrwt>
<pdfrwt beam="1">  1        2 0.59805814E-01 0.17892141E+03</pdfrwt>
<pdfrwt beam="2">  1       -2 0.12681006E-01 0.17892141E+03</pdfrwt>
<totfact> 0.36449140E+03</totfact>
</mgrwt>
</event>
<event>
 4    1  0.7245070E-001  0.1897882E+03  0.7546771E-02  0.1158652E+00
         -1   -1    0    0    0  501 -0.00000000000E+00  0.00000000000E+00  0.86315110225E+02  0.86315110225E+02  0.00000000000E+00 0.  1.
          1   -1    0    0  502    0  0.00000000000E+00 -0.00000000000E+00 -0.41945544565E+03  0.41945544565E+03  0.00000000000E+00 0. -1.
          6    1    1    2  502    0 -0.19294281886E+02 -0.75619478266E+02 -0.14845581070E+03  0.24095373527E+03  0.17300000000E+03 0.  1.
         -6    1    1    2    0  501  0.19294281886E+02  0.75619478266E+02 -0.18468452472E+03  0.26481682061E+03  0.17300000000E+03 0.  1.
<mgrwt>
<rscale>  2 0.18978824E+03</rscale>
<asrwt>0</asrwt>
<pdfrwt beam="1">  1        1 0.64531608E-01 0.18978824E+03</pdfrwt>
<pdfrwt beam="2">  1       -1 0.13279248E-01 0.18978824E+03</pdfrwt>
<totfact> 0.21981195E+03</totfact>
</mgrwt>
</event>
<event>
 4    1  0.7245070E-001  0.2380911E+03  0.7546771E-02  0.1121071E+00
          1   -1    0    0  502    0  0.00000000000E+00  0.00000000000E+00  0.77343095674E+03  0.77343095674E+03  0.00000000000E+00 0.  1.
         -1   -1    0    0    0  501 -0.00000000000E+00 -0.00000000000E+00 -0.78389016558E+02  0.78389016558E+02  0.00000000000E+00 0. -1.
          6    1    1    2  502    0 -0.70257125598E+01 -0.16342889477E+03  0.23893100373E+03  0.33730607588E+03  0.17300000000E+03 0. -1.
         -6    1    1    2    0  501  0.70257125598E+01  0.16342889477E+03  0.45611093645E+03  0.51451389741E+03  0.17300000000E+03 0.  1.
<mgrwt>
<rscale>  2 0.23809108E+03</rscale>
<asrwt>0</asrwt>
<pdfrwt beam="1">  1        1 0.11898937E+00 0.23809108E+03</pdfrwt>
<pdfrwt beam="2">  1       -1 0.12059849E-01 0.23809108E+03</pdfrwt>
<totfact> 0.11048858E+03</totfact>
</mgrwt>
</event>
<event>
 4    1  0.7245070E-001  0.1823627E+03  0.7546771E-02  0.1165536E+00
          2   -1    0    0  502    0  0.00000000000E+00  0.00000000000E+00  0.21004388527E+03  0.21004388527E+03  0.00000000000E+00 0. -1.
         -2   -1    0    0    0  501 -0.00000000000E+00 -0.00000000000E+00 -0.19928400193E+03  0.19928400193E+03  0.00000000000E+00 0.  1.
          6    1    1    2  502    0  0.32742424730E+02 -0.47487635902E+02 -0.87400402585E+02  0.20222505362E+03  0.17300000000E+03 0.  1.
         -6    1    1    2    0  501 -0.32742424730E+02  0.47487635902E+02  0.98160285928E+02  0.20710283357E+03  0.17300000000E+03 0. -1.
<mgrwt>
<rscale>  2 0.18236267E+03</rscale>
<asrwt>0</asrwt>
<pdfrwt beam="1">  1        2 0.32314444E-01 0.18236267E+03</pdfrwt>
<pdfrwt beam="2">  1       -2 0.30659077E-01 0.18236267E+03</pdfrwt>
<totfact> 0.15682945E+03</totfact>
</mgrwt>
</event>
<event>
 4    1  0.7245070E-001  0.1801870E+03  0.7546771E-02  0.1167622E+00
          2   -1    0    0  502    0  0.00000000000E+00  0.00000000000E+00  0.75276249115E+03  0.75276249115E+03  0.00000000000E+00 0.  1.
         -2   -1    0    0    0  501 -0.00000000000E+00 -0.00000000000E+00 -0.51092490331E+02  0.51092490331E+02  0.00000000000E+00 0. -1.
          6    1    1    2  502    0 -0.48423798086E+02 -0.13910654044E+02  0.50949498007E+03  0.54041882391E+03  0.17300000000E+03 0.  1.
         -6    1    1    2    0  501  0.48423798086E+02  0.13910654044E+02  0.19217502075E+03  0.26343615757E+03  0.17300000000E+03 0. -1.
<mgrwt>
<rscale>  2 0.18018704E+03</rscale>
<asrwt>0</asrwt>
<pdfrwt beam="1">  1        2 0.11580961E+00 0.18018704E+03</pdfrwt>
<pdfrwt beam="2">  1       -2 0.78603837E-02 0.18018704E+03</pdfrwt>
<totfact> 0.36720284E+03</totfact>
</mgrwt>
</event>
<event>
 4    1  0.7245070E-001  0.4072133E+03  0.7546771E-02  0.1041310E+00
          2   -1    0    0  502    0  0.00000000000E+00  0.00000000000E+00  0.15871615916E+04  0.15871615916E+04  0.00000000000E+00 0. -1.
         -2   -1    0    0    0  501 -0.00000000000E+00 -0.00000000000E+00 -0.13353370106E+03  0.13353370106E+03  0.00000000000E+00 0.  1.
          6    1    1    2  502    0  0.77932640568E+01  0.36855522750E+03  0.11281404798E+04  0.11993846893E+04  0.17300000000E+03 0. -1.
         -6    1    1    2    0  501 -0.77932640568E+01 -0.36855522750E+03  0.32548741079E+03  0.52131060345E+03  0.17300000000E+03 0.  1.
<mgrwt>
<rscale>  2 0.40721332E+03</rscale>
<asrwt>0</asrwt>
<pdfrwt beam="1">  1        2 0.24417869E+00 0.40721332E+03</pdfrwt>
<pdfrwt beam="2">  1       -2 0.20543647E-01 0.40721332E+03</pdfrwt>
<totfact> 0.24239188E+02</totfact>
</mgrwt>
</event>
<event>
 4    1  0.7245070E-001  0.1751239E+03  0.7546771E-02  0.1172607E+00
          2   -1    0    0  502    0  0.00000000000E+00  0.00000000000E+00  0.11551327096E+04  0.11551327096E+04  0.00000000000E+00 0.  1.
         -2   -1    0    0    0  501 -0.00000000000E+00 -0.00000000000E+00 -0.34450748036E+02  0.34450748036E+02  0.00000000000E+00 0. -1.
          6    1    1    2  502    0 -0.27061410773E+02 -0.26570611843E+01  0.27549567866E+03  0.32644486347E+03  0.17300000000E+03 0. -1.
         -6    1    1    2    0  501  0.27061410773E+02  0.26570611843E+01  0.84518628289E+03  0.86313859415E+03  0.17300000000E+03 0.  1.
<mgrwt>
<rscale>  2 0.17512390E+03</rscale>
<asrwt>0</asrwt>
<pdfrwt beam="1">  1        2 0.17771270E+00 0.17512390E+03</pdfrwt>
<pdfrwt beam="2">  1       -2 0.53001160E-02 0.17512390E+03</pdfrwt>
<totfact> 0.37623946E+03</totfact>
</mgrwt>
</event>
<event>
 4    1  0.7245070E-001  0.1941412E+03  0.7546771E-02  0.1154778E+00
          1   -1    0    0  502    0  0.00000000000E+00  0.00000000000E+00  0.70371296310E+03  0.70371296310E+03  0.00000000000E+00 0. -1.
         -1   -1    0    0    0  501 -0.00000000000E+00 -0.00000000000E+00 -0.61784119637E+02  0.61784119637E+02  0.00000000000E+00 0.  1.
          6    1    1    2  502    0  0.29089490199E+02  0.83160108818E+02  0.46060840557E+03  0.49985088319E+03  0.17300000000E+03 0. -1.
         -6    1    1    2    0  501 -0.29089490199E+02 -0.83160108818E+02  0.18132043789E+03  0.26564619955E+03  0.17300000000E+03 0. -1.
<mgrwt>
<rscale>  2 0.19414119E+03</rscale>
<asrwt>0</asrwt>
<pdfrwt beam="1">  1        1 0.10826353E+00 0.19414119E+03</pdfrwt>
<pdfrwt beam="2">  1       -1 0.95052497E-02 0.19414119E+03</pdfrwt>
<totfact> 0.18352790E+03</totfact>
</mgrwt>
</event>
<event>
 4    1  0.7245070E-001  0.1730392E+03  0.7546771E-02  0.1174715E+00
         -1   -1    0    0    0  501 -0.00000000000E+00  0.00000000000E+00  0.15415388369E+03  0.15415388369E+03  0.00000000000E+00 0. -1.
          1   -1    0    0  502    0  0.00000000000E+00 -0.00000000000E+00 -0.19487630817E+03  0.19487630817E+03  0.00000000000E+00 0.  1.
          6    1    1    2  502    0 -0.41295660211E+00 -0.36600925365E+01 -0.30347729465E+02  0.17568025357E+03  0.17300000000E+03 0.  1.
         -6    1    1    2    0  501  0.41295660211E+00  0.36600925365E+01 -0.10374695011E+02  0.17334993830E+03  0.17300000000E+03 0. -1.
<mgrwt>
<rscale>  2 0.17303921E+03</rscale>
<asrwt>0</asrwt>
<pdfrwt beam="1">  1        1 0.29980970E-01 0.17303921E+03</pdfrwt>
<pdfrwt beam="2">  1       -1 0.23715982E-01 0.17303921E+03</pdfrwt>
<totfact> 0.22649068E+03</totfact>
</mgrwt>
</event>
<event>
 4    1  0.7245070E-001  0.2342195E+03  0.7546771E-02  0.1123705E+00
         -2   -1    0    0    0  501 -0.00000000000E+00  0.00000000000E+00  0.71597409674E+02  0.71597409674E+02  0.00000000000E+00 0.  1.
          2   -1    0    0  502    0  0.00000000000E+00 -0.00000000000E+00 -0.14245501272E+04  0.14245501272E+04  0.00000000000E+00 0. -1.
          6    1    1    2  502    0  0.15644499962E+03  0.21324806416E+02 -0.16793052057E+03  0.28820035568E+03  0.17300000000E+03 0.  1.
         -6    1    1    2    0  501 -0.15644499962E+03 -0.21324806416E+02 -0.11850221970E+04  0.12079471812E+04  0.17300000000E+03 0. -1.
<mgrwt>
<rscale>  2 0.23421952E+03</rscale>
<asrwt>0</asrwt>
<pdfrwt beam="1">  1        2 0.21916155E+00 0.23421952E+03</pdfrwt>
<pdfrwt beam="2">  1       -2 0.11014986E-01 0.23421952E+03</pdfrwt>
<totfact> 0.85614140E+02</totfact>
</mgrwt>
</event>
<event>
 4    1  0.7245070E-001  0.2773875E+03  0.7546771E-02  0.1097124E+00
         -1   -1    0    0    0  501 -0.00000000000E+00  0.00000000000E+00  0.77413640167E+02  0.77413640167E+02  0.00000000000E+00 0.  1.
          1   -1    0    0  502    0  0.00000000000E+00 -0.00000000000E+00 -0.11472401160E+04  0.11472401160E+04  0.00000000000E+00 0. -1.
          6    1    1    2  502    0  0.85222490873E+02 -0.19937889674E+03 -0.31107197931E+03  0.41678482905E+03  0.17300000000E+03 0. -1.
         -6    1    1    2    0  501 -0.85222490873E+02  0.19937889674E+03 -0.75875449657E+03  0.80786892716E+03  0.17300000000E+03 0. -1.
<mgrwt>
<rscale>  2 0.27738749E+03</rscale>
<asrwt>0</asrwt>
<pdfrwt beam="1">  1        1 0.17649848E+00 0.27738749E+03</pdfrwt>
<pdfrwt beam="2">  1       -1 0.11909791E-01 0.27738749E+03</pdfrwt>
<totfact> 0.58005352E+02</totfact>
</mgrwt>
</event>
<event>
 4    1  0.7245070E-001  0.1844385E+03  0.7546771E-02  0.1163575E+00
         -2   -1    0    0    0  501 -0.00000000000E+00  0.00000000000E+00  0.40050808880E+02  0.40050808880E+02  0.00000000000E+00 0. -1.
          2   -1    0    0  502    0  0.00000000000E+00 -0.00000000000E+00 -0.85374978668E+03  0.85374978668E+03  0.00000000000E+00 0.  1.
          6    1    1    2  502    0 -0.49904133695E+02  0.39976588349E+02 -0.43889543099E+03  0.47607431092E+03  0.17300000000E+03 0.  1.
         -6    1    1    2    0  501  0.49904133695E+02 -0.39976588349E+02 -0.37480354680E+03  0.41772628463E+03  0.17300000000E+03 0.  1.
<mgrwt>
<rscale>  2 0.18443847E+03</rscale>
<asrwt>0</asrwt>
<pdfrwt beam="1">  1        2 0.13134610E+00 0.18443847E+03</pdfrwt>
<pdfrwt beam="2">  1       -2 0.61616637E-02 0.18443847E+03</pdfrwt>
<totfact> 0.45633659E+03</totfact>
</mgrwt>
</event>
<event>
 4    1  0.7245070E-001  0.1865880E+03  0.7546771E-02  0.1161575E+00
         -1   -1    0    0    0  501 -0.00000000000E+00  0.00000000000E+00  0.17665776632E+02  0.17665776632E+02  0.00000000000E+00 0. -1.
          1   -1    0    0  502    0  0.00000000000E+00 -0.00000000000E+00 -0.22412775133E+04  0.22412775133E+04  0.00000000000E+00 0.  1.
          6    1    1    2  502    0  0.11689025618E+02  0.68916288904E+02 -0.71941266897E+03  0.74321576711E+03  0.17300000000E+03 0. -1.
         -6    1    1    2    0  501 -0.11689025618E+02 -0.68916288904E+02 -0.15041990677E+04  0.15157275228E+04  0.17300000000E+03 0.  1.
<mgrwt>
<rscale>  2 0.18658802E+03</rscale>
<asrwt>0</asrwt>
<pdfrwt beam="1">  1        1 0.34481181E+00 0.18658802E+03</pdfrwt>
<pdfrwt beam="2">  1       -1 0.27178127E-02 0.18658802E+03</pdfrwt>
<totfact> 0.10345371E+03</totfact>
</mgrwt>
</event>
<event>
 4    1  0.7245070E-001  0.1934096E+03  0.7546771E-02  0.1155422E+00
         -2   -1    0    0    0  501 -0.00000000000E+00  0.00000000000E+00  0.63002385799E+03  0.63002385799E+03  0.00000000000E+00 0.  1.
          2   -1    0    0  502    0  0.00000000000E+00 -0.00000000000E+00 -0.60052869484E+02  0.60052869484E+02  0.00000000000E+00 0. -1.
          6    1    1    2  502    0 -0.94397984373E+01  0.85960271712E+02  0.24831042269E+03  0.31474647595E+03  0.17300000000E+03 0. -1.
         -6    1    1    2    0  501  0.94397984373E+01 -0.85960271712E+02  0.32166056582E+03  0.37533025153E+03  0.17300000000E+03 0. -1.
<mgrwt>
<rscale>  2 0.19340961E+03</rscale>
<asrwt>0</asrwt>
<pdfrwt beam="1">  1        2 0.92389034E-02 0.19340961E+03</pdfrwt>
<pdfrwt beam="2">  1       -2 0.96926743E-01 0.19340961E+03</pdfrwt>
<totfact> 0.64753831E+02</totfact>
</mgrwt>
</event>
<event>
 4    1  0.7245070E-001  0.2098690E+03  0.7546771E-02  0.1141670E+00
         -1   -1    0    0    0  501 -0.00000000000E+00  0.00000000000E+00  0.37325682469E+02  0.37325682469E+02  0.00000000000E+00 0. -1.
          1   -1    0    0  502    0  0.00000000000E+00 -0.00000000000E+00 -0.15199689210E+04  0.15199689210E+04  0.00000000000E+00 0.  1.
          6    1    1    2  502    0 -0.10619809867E+03  0.53272504221E+02 -0.37308140026E+03  0.42805925652E+03  0.17300000000E+03 0. -1.
         -6    1    1    2    0  501  0.10619809867E+03 -0.53272504221E+02 -0.11095618383E+04  0.11292353470E+04  0.17300000000E+03 0.  1.
<mgrwt>
<rscale>  2 0.20986900E+03</rscale>
<asrwt>0</asrwt>
<pdfrwt beam="1">  1        1 0.23384135E+00 0.20986900E+03</pdfrwt>
<pdfrwt beam="2">  1       -1 0.57424133E-02 0.20986900E+03</pdfrwt>
<totfact> 0.99611217E+02</totfact>
</mgrwt>
</event>
<event>
 4    1  0.7245070E-001  0.2099502E+03  0.7546771E-02  0.1141605E+00
         -1   -1    0    0    0  501 -0.00000000000E+00  0.00000000000E+00  0.24683664397E+02  0.24683664397E+02  0.00000000000E+00 0. -1.
          1   -1    0    0  502    0  0.00000000000E+00 -0.00000000000E+00 -0.18288151516E+04  0.18288151516E+04  0.00000000000E+00 0.  1.
          6    1    1    2  502    0 -0.11857064136E+03 -0.95430333619E+01 -0.10442648708E+04  0.10651611084E+04  0.17300000000E+03 0. -1.
         -6    1    1    2    0  501  0.11857064136E+03  0.95430333619E+01 -0.75986661635E+03  0.78833770753E+03  0.17300000000E+03 0. -1.
<mgrwt>
<rscale>  2 0.20995015E+03</rscale>
<asrwt>0</asrwt>
<pdfrwt beam="1">  1        1 0.28135611E+00 0.20995015E+03</pdfrwt>
<pdfrwt beam="2">  1       -1 0.37974877E-02 0.20995015E+03</pdfrwt>
<totfact> 0.11632259E+03</totfact>
</mgrwt>
</event>
<event>
 4    1  0.7245070E-001  0.1786859E+03  0.7546771E-02  0.1169081E+00
          2   -1    0    0  502    0  0.00000000000E+00  0.00000000000E+00  0.15889575634E+03  0.15889575634E+03  0.00000000000E+00 0.  1.
         -2   -1    0    0    0  501 -0.00000000000E+00 -0.00000000000E+00 -0.30812620244E+03  0.30812620244E+03  0.00000000000E+00 0. -1.
          6    1    1    2  502    0 -0.44710613628E+02  0.78387347112E+00 -0.21233954564E+03  0.27751889318E+03  0.17300000000E+03 0. -1.
         -6    1    1    2    0  501  0.44710613628E+02 -0.78387347112E+00  0.63109099533E+02  0.18950306560E+03  0.17300000000E+03 0.  1.
<mgrwt>
<rscale>  2 0.17868591E+03</rscale>
<asrwt>0</asrwt>
<pdfrwt beam="1">  1        2 0.24445501E-01 0.17868591E+03</pdfrwt>
<pdfrwt beam="2">  1       -2 0.47404030E-01 0.17868591E+03</pdfrwt>
<totfact> 0.93578166E+02</totfact>
</mgrwt>
</event>
<event>
 4    1  0.7245070E-001  0.1735075E+03  0.7546771E-02  0.1174239E+00
          1   -1    0    0  502    0  0.00000000000E+00  0.00000000000E+00  0.41509698644E+03  0.41509698644E+03  0.00000000000E+00 0.  1.
         -1   -1    0    0    0  501 -0.00000000000E+00 -0.00000000000E+00 -0.73251911229E+02  0.73251911229E+02  0.00000000000E+00 0. -1.
          6    1    1    2  502    0  0.29845277836E+01  0.12920820541E+02  0.14659656387E+03  0.22714622504E+03  0.17300000000E+03 0. -1.
         -6    1    1    2    0  501 -0.29845277836E+01 -0.12920820541E+02  0.19524851134E+03  0.26120267263E+03  0.17300000000E+03 0. -1.
<mgrwt>
<rscale>  2 0.17350751E+03</rscale>
<asrwt>0</asrwt>
<pdfrwt beam="1">  1        1 0.63861074E-01 0.17350751E+03</pdfrwt>
<pdfrwt beam="2">  1       -1 0.11269525E-01 0.17350751E+03</pdfrwt>
<totfact> 0.28675821E+03</totfact>
</mgrwt>
</event>
<event>
 4    1  0.7245070E-001  0.3599997E+03  0.7546771E-02  0.1058584E+00
         -2   -1    0    0    0  501 -0.00000000000E+00  0.00000000000E+00  0.41751231050E+03  0.41751231050E+03  0.00000000000E+00 0. -1.
          2   -1    0    0  502    0  0.00000000000E+00 -0.00000000000E+00 -0.43661586685E+03  0.43661586685E+03  0.00000000000E+00 0.  1.
          6    1    1    2  502    0 -0.71536542650E+02  0.30749524523E+03 -0.23915811305E+03  0.43219949770E+03  0.17300000000E+03 0.  1.
         -6    1    1    2    0  501  0.71536542650E+02 -0.30749524523E+03  0.22005455670E+03  0.42192867964E+03  0.17300000000E+03 0. -1.
<mgrwt>
<rscale>  2 0.35999973E+03</rscale>
<asrwt>0</asrwt>
<pdfrwt beam="1">  1        2 0.67171671E-01 0.35999973E+03</pdfrwt>
<pdfrwt beam="2">  1       -2 0.64232664E-01 0.35999973E+03</pdfrwt>
<totfact> 0.16636088E+02</totfact>
</mgrwt>
</event>
<event>
 4    1  0.7245070E-001  0.1730446E+03  0.7546771E-02  0.1174709E+00
         -2   -1    0    0    0  501 -0.00000000000E+00  0.00000000000E+00  0.83173623723E+02  0.83173623723E+02  0.00000000000E+00 0.  1.
          2   -1    0    0  502    0  0.00000000000E+00 -0.00000000000E+00 -0.43557615758E+03  0.43557615758E+03  0.00000000000E+00 0. -1.
          6    1    1    2  502    0 -0.27211824258E+01  0.28344350493E+01 -0.68176968573E+02  0.18599069305E+03  0.17300000000E+03 0.  1.
         -6    1    1    2    0  501  0.27211824258E+01 -0.28344350493E+01 -0.28422556528E+03  0.33275908825E+03  0.17300000000E+03 0. -1.
<mgrwt>
<rscale>  2 0.17304462E+03</rscale>
<asrwt>0</asrwt>
<pdfrwt beam="1">  1        2 0.67011718E-01 0.17304462E+03</pdfrwt>
<pdfrwt beam="2">  1       -2 0.12795942E-01 0.17304462E+03</pdfrwt>
<totfact> 0.31721207E+03</totfact>
</mgrwt>
</event>
<event>
 4    1  0.7245070E-001  0.2603133E+03  0.7546771E-02  0.1106955E+00
         -3   -1    0    0    0  501 -0.00000000000E+00  0.00000000000E+00  0.11045485468E+04  0.11045485468E+04  0.00000000000E+00 0. -1.
          3   -1    0    0  502    0  0.00000000000E+00 -0.00000000000E+00 -0.61360526547E+02  0.61360526547E+02  0.00000000000E+00 0.  1.
          6    1    1    2  502    0 -0.17185237615E+03 -0.91108457924E+02  0.51361717083E+03  0.57581732213E+03  0.17300000000E+03 0. -1.
         -6    1    1    2    0  501  0.17185237615E+03  0.91108457924E+02  0.52957084938E+03  0.59009175117E+03  0.17300000000E+03 0. -1.
<mgrwt>
<rscale>  2 0.26031325E+03</rscale>
<asrwt>0</asrwt>
<pdfrwt beam="1">  1        3 0.94400818E-02 0.26031325E+03</pdfrwt>
<pdfrwt beam="2">  1       -3 0.16993053E+00 0.26031325E+03</pdfrwt>
<totfact> 0.50147524E+01</totfact>
</mgrwt>
</event>
<event>
 4    1  0.7245070E-001  0.1980599E+03  0.7546771E-02  0.1151386E+00
          1   -1    0    0  502    0  0.00000000000E+00  0.00000000000E+00  0.11227571276E+04  0.11227571276E+04  0.00000000000E+00 0. -1.
         -1   -1    0    0    0  501 -0.00000000000E+00 -0.00000000000E+00 -0.39691841713E+02  0.39691841713E+02  0.00000000000E+00 0.  1.
          6    1    1    2  502    0 -0.33221366202E+02  0.90526597848E+02  0.74266485836E+03  0.76862137359E+03  0.17300000000E+03 0. -1.
         -6    1    1    2    0  501  0.33221366202E+02 -0.90526597848E+02  0.34040042748E+03  0.39382759568E+03  0.17300000000E+03 0.  1.
<mgrwt>
<rscale>  2 0.19805990E+03</rscale>
<asrwt>0</asrwt>
<pdfrwt beam="1">  1        1 0.17273184E+00 0.19805990E+03</pdfrwt>
<pdfrwt beam="2">  1       -1 0.61064380E-02 0.19805990E+03</pdfrwt>
<totfact> 0.16891481E+03</totfact>
</mgrwt>
</event>
<event>
 4    1  0.7245070E-001  0.2093484E+03  0.7546771E-02  0.1142083E+00
         -3   -1    0    0    0  501 -0.00000000000E+00  0.00000000000E+00  0.17196467027E+03  0.17196467027E+03  0.00000000000E+00 0.  1.
          3   -1    0    0  502    0  0.00000000000E+00 -0.00000000000E+00 -0.27643864872E+03  0.27643864872E+03  0.00000000000E+00 0. -1.
          6    1    1    2  502    0 -0.77553228742E+01  0.11763330479E+03 -0.11487845180E+03  0.23879656220E+03  0.17300000000E+03 0.  1.
         -6    1    1    2    0  501  0.77553228742E+01 -0.11763330479E+03  0.10404473351E+02  0.20960675680E+03  0.17300000000E+03 0. -1.
<mgrwt>
<rscale>  2 0.20934837E+03</rscale>
<asrwt>0</asrwt>
<pdfrwt beam="1">  1        3 0.42529023E-01 0.20934837E+03</pdfrwt>
<pdfrwt beam="2">  1       -3 0.26456103E-01 0.20934837E+03</pdfrwt>
<totfact> 0.18316393E+02</totfact>
</mgrwt>
</event>
<event>
 4    1  0.7245070E-001  0.2529045E+03  0.7546771E-02  0.1111483E+00
          1   -1    0    0  502    0  0.00000000000E+00  0.00000000000E+00  0.35853353786E+03  0.35853353786E+03  0.00000000000E+00 0.  1.
         -1   -1    0    0    0  501 -0.00000000000E+00 -0.00000000000E+00 -0.18675328100E+03  0.18675328100E+03  0.00000000000E+00 0. -1.
          6    1    1    2  502    0 -0.18445426008E+03  0.28835024092E+01  0.28211854597E+02  0.25447317617E+03  0.17300000000E+03 0. -1.
         -6    1    1    2    0  501  0.18445426008E+03 -0.28835024092E+01  0.14356840226E+03  0.29081364269E+03  0.17300000000E+03 0.  1.
<mgrwt>
<rscale>  2 0.25290450E+03</rscale>
<asrwt>0</asrwt>
<pdfrwt beam="1">  1        1 0.55159006E-01 0.25290450E+03</pdfrwt>
<pdfrwt beam="2">  1       -1 0.28731274E-01 0.25290450E+03</pdfrwt>
<totfact> 0.76992088E+02</totfact>
</mgrwt>
</event>
<event>
 4    1  0.7245070E-001  0.1976440E+03  0.7546771E-02  0.1151742E+00
          2   -1    0    0  502    0  0.00000000000E+00  0.00000000000E+00  0.32343856614E+04  0.32343856614E+04  0.00000000000E+00 0. -1.
         -2   -1    0    0    0  501 -0.00000000000E+00 -0.00000000000E+00 -0.23303108895E+02  0.23303108895E+02  0.00000000000E+00 0.  1.
          6    1    1    2  502    0 -0.83934318221E+02  0.45707402504E+02  0.47502049023E+03  0.51449742717E+03  0.17300000000E+03 0.  1.
         -6    1    1    2    0  501  0.83934318221E+02 -0.45707402504E+02  0.27360620623E+04  0.27431913432E+04  0.17300000000E+03 0. -1.
<mgrwt>
<rscale>  2 0.19764396E+03</rscale>
<asrwt>0</asrwt>
<pdfrwt beam="1">  1        2 0.49759744E+00 0.19764396E+03</pdfrwt>
<pdfrwt beam="2">  1       -2 0.35850962E-02 0.19764396E+03</pdfrwt>
<totfact> 0.49747638E+02</totfact>
</mgrwt>
</event>
<event>
 4    1  0.7245070E-001  0.2043898E+03  0.7546771E-02  0.1146087E+00
          2   -1    0    0  502    0  0.00000000000E+00  0.00000000000E+00  0.26122000607E+04  0.26122000607E+04  0.00000000000E+00 0. -1.
         -2   -1    0    0    0  501 -0.00000000000E+00 -0.00000000000E+00 -0.32283050664E+02  0.32283050664E+02  0.00000000000E+00 0.  1.
          6    1    1    2  502    0 -0.64875952686E+02 -0.87391714861E+02  0.35068194443E+03  0.40589780391E+03  0.17300000000E+03 0.  1.
         -6    1    1    2    0  501  0.64875952686E+02  0.87391714861E+02  0.22292350656E+04  0.22385853075E+04  0.17300000000E+03 0. -1.
<mgrwt>
<rscale>  2 0.20438983E+03</rscale>
<asrwt>0</asrwt>
<pdfrwt beam="1">  1        2 0.40187677E+00 0.20438983E+03</pdfrwt>
<pdfrwt beam="2">  1       -2 0.49666252E-02 0.20438983E+03</pdfrwt>
<totfact> 0.69797539E+02</totfact>
</mgrwt>
</event>
<event>
 4    1  0.7245070E-001  0.1770265E+03  0.7546771E-02  0.1170712E+00
          2   -1    0    0  502    0  0.00000000000E+00  0.00000000000E+00  0.17441855758E+04  0.17441855758E+04  0.00000000000E+00 0. -1.
         -2   -1    0    0    0  501 -0.00000000000E+00 -0.00000000000E+00 -0.29253564046E+02  0.29253564046E+02  0.00000000000E+00 0.  1.
          6    1    1    2  502    0 -0.30720726093E+02  0.21577801116E+02  0.14082373713E+04  0.14193205623E+04  0.17300000000E+03 0. -1.
         -6    1    1    2    0  501  0.30720726093E+02 -0.21577801116E+02  0.30669464046E+03  0.35411857760E+03  0.17300000000E+03 0.  1.
<mgrwt>
<rscale>  2 0.17702645E+03</rscale>
<asrwt>0</asrwt>
<pdfrwt beam="1">  1        2 0.26833616E+00 0.17702645E+03</pdfrwt>
<pdfrwt beam="2">  1       -2 0.45005497E-02 0.17702645E+03</pdfrwt>
<totfact> 0.23330910E+03</totfact>
</mgrwt>
</event>
<event>
 4    1  0.7245070E-001  0.1783561E+03  0.7546771E-02  0.1169404E+00
         -4   -1    0    0    0  501 -0.00000000000E+00  0.00000000000E+00  0.36621630066E+03  0.36621630066E+03  0.00000000000E+00 0. -1.
          4   -1    0    0  502    0  0.00000000000E+00 -0.00000000000E+00 -0.26956273538E+03  0.26956273538E+03  0.00000000000E+00 0.  1.
          6    1    1    2  502    0 -0.24764710836E+02  0.35617523871E+02  0.31003322915E+03  0.35767513484E+03  0.17300000000E+03 0. -1.
         -6    1    1    2    0  501  0.24764710836E+02 -0.35617523871E+02 -0.21337966387E+03  0.27810390120E+03  0.17300000000E+03 0.  1.
<mgrwt>
<rscale>  2 0.17835610E+03</rscale>
<asrwt>0</asrwt>
<pdfrwt beam="1">  1        4 0.41471190E-01 0.17835610E+03</pdfrwt>
<pdfrwt beam="2">  1       -4 0.56340970E-01 0.17835610E+03</pdfrwt>
<totfact> 0.30037183E+01</totfact>
</mgrwt>
</event>
<event>
 4    1  0.7245070E-001  0.1865560E+03  0.7546771E-02  0.1161605E+00
         -2   -1    0    0    0  501 -0.00000000000E+00  0.00000000000E+00  0.40501334346E+02  0.40501334346E+02  0.00000000000E+00 0. -1.
          2   -1    0    0  502    0  0.00000000000E+00 -0.00000000000E+00 -0.94961466670E+03  0.94961466670E+03  0.00000000000E+00 0.  1.
          6    1    1    2  502    0 -0.61257269834E+01 -0.69545710752E+02 -0.60722244616E+03  0.63523399589E+03  0.17300000000E+03 0.  1.
         -6    1    1    2    0  501  0.61257269834E+01  0.69545710752E+02 -0.30189088619E+03  0.35488200515E+03  0.17300000000E+03 0. -1.
<mgrwt>
<rscale>  2 0.18655597E+03</rscale>
<asrwt>0</asrwt>
<pdfrwt beam="1">  1        2 0.14609455E+00 0.18655597E+03</pdfrwt>
<pdfrwt beam="2">  1       -2 0.62309752E-02 0.18655597E+03</pdfrwt>
<totfact> 0.38973197E+03</totfact>
</mgrwt>
</event>
<event>
 4    1  0.7245070E-001  0.1870502E+03  0.7546771E-02  0.1161149E+00
         -1   -1    0    0    0  501 -0.00000000000E+00  0.00000000000E+00  0.98595756449E+02  0.98595756449E+02  0.00000000000E+00 0. -1.
          1   -1    0    0  502    0  0.00000000000E+00 -0.00000000000E+00 -0.35489545604E+03  0.35489545604E+03  0.00000000000E+00 0.  1.
          6    1    1    2  502    0  0.45663487477E+02 -0.54531086972E+02 -0.12591723419E+03  0.22548379853E+03  0.17300000000E+03 0. -1.
         -6    1    1    2    0  501 -0.45663487477E+02  0.54531086972E+02 -0.13038246540E+03  0.22800741396E+03  0.17300000000E+03 0.  1.
<mgrwt>
<rscale>  2 0.18705024E+03</rscale>
<asrwt>0</asrwt>
<pdfrwt beam="1">  1        1 0.54599300E-01 0.18705024E+03</pdfrwt>
<pdfrwt beam="2">  1       -1 0.15168578E-01 0.18705024E+03</pdfrwt>
<totfact> 0.22038870E+03</totfact>
</mgrwt>
</event>
<event>
 4    1  0.7245070E-001  0.3180470E+03  0.7546771E-02  0.1076552E+00
          3   -1    0    0  502    0  0.00000000000E+00  0.00000000000E+00  0.95435622024E+02  0.95435622024E+02  0.00000000000E+00 0. -1.
         -3   -1    0    0    0  501 -0.00000000000E+00 -0.00000000000E+00 -0.11028416907E+04  0.11028416907E+04  0.00000000000E+00 0.  1.
          6    1    1    2  502    0 -0.25657579982E+03  0.73442156155E+02 -0.62190413556E+03  0.69851173590E+03  0.17300000000E+03 0.  1.
         -6    1    1    2    0  501  0.25657579982E+03 -0.73442156155E+02 -0.38550193314E+03  0.49976557686E+03  0.17300000000E+03 0. -1.
<mgrwt>
<rscale>  2 0.31804700E+03</rscale>
<asrwt>0</asrwt>
<pdfrwt beam="1">  1        3 0.14682404E-01 0.31804700E+03</pdfrwt>
<pdfrwt beam="2">  1       -3 0.16966795E+00 0.31804700E+03</pdfrwt>
<totfact> 0.23986129E+01</totfact>
</mgrwt>
</event>
<event>
 4    1  0.7245070E-001  0.1793577E+03  0.7546771E-02  0.1168426E+00
          1   -1    0    0  502    0  0.00000000000E+00  0.00000000000E+00  0.19085639600E+04  0.19085639600E+04  0.00000000000E+00 0. -1.
         -1   -1    0    0    0  501 -0.00000000000E+00 -0.00000000000E+00 -0.17240012466E+02  0.17240012466E+02  0.00000000000E+00 0.  1.
          6    1    1    2  502    0 -0.45959533823E+02 -0.11309999262E+02  0.80179952516E+03  0.82161528307E+03  0.17300000000E+03 0. -1.
         -6    1    1    2    0  501  0.45959533823E+02  0.11309999262E+02  0.10895244224E+04  0.11041886894E+04  0.17300000000E+03 0. -1.
<mgrwt>
<rscale>  2 0.17935773E+03</rscale>
<asrwt>0</asrwt>
<pdfrwt beam="1">  1        1 0.29362506E+00 0.17935773E+03</pdfrwt>
<pdfrwt beam="2">  1       -1 0.26523111E-02 0.17935773E+03</pdfrwt>
<totfact> 0.17562326E+03</totfact>
</mgrwt>
</event>
<event>
 4    1  0.7245070E-001  0.1750186E+03  0.7546771E-02  0.1172713E+00
          2   -1    0    0  502    0  0.00000000000E+00  0.00000000000E+00  0.87157433027E+03  0.87157433027E+03  0.00000000000E+00 0. -1.
         -2   -1    0    0    0  501 -0.00000000000E+00 -0.00000000000E+00 -0.47771393018E+02  0.47771393018E+02  0.00000000000E+00 0.  1.
          6    1    1    2  502    0 -0.18114192291E+02  0.19349290736E+02  0.17557966621E+03  0.24791074644E+03  0.17300000000E+03 0.  1.
         -6    1    1    2    0  501  0.18114192291E+02 -0.19349290736E+02  0.64822327105E+03  0.67143497685E+03  0.17300000000E+03 0. -1.
<mgrwt>
<rscale>  2 0.17501862E+03</rscale>
<asrwt>0</asrwt>
<pdfrwt beam="1">  1        2 0.13408835E+00 0.17501862E+03</pdfrwt>
<pdfrwt beam="2">  1       -2 0.73494457E-02 0.17501862E+03</pdfrwt>
<totfact> 0.33826441E+03</totfact>
</mgrwt>
</event>
<event>
 4    1  0.7245070E-001  0.1975755E+03  0.7546771E-02  0.1151801E+00
         -2   -1    0    0    0  501 -0.00000000000E+00  0.00000000000E+00  0.21310270086E+03  0.21310270086E+03  0.00000000000E+00 0.  1.
          2   -1    0    0  502    0  0.00000000000E+00 -0.00000000000E+00 -0.26648964504E+03  0.26648964504E+03  0.00000000000E+00 0. -1.
          6    1    1    2  502    0  0.77725922290E+02  0.55369181856E+02  0.10738244927E+03  0.22487119804E+03  0.17300000000E+03 0.  1.
         -6    1    1    2    0  501 -0.77725922290E+02 -0.55369181856E+02 -0.16076939345E+03  0.25472114786E+03  0.17300000000E+03 0. -1.
<mgrwt>
<rscale>  2 0.19757547E+03</rscale>
<asrwt>0</asrwt>
<pdfrwt beam="1">  1        2 0.40998407E-01 0.19757547E+03</pdfrwt>
<pdfrwt beam="2">  1       -2 0.32785031E-01 0.19757547E+03</pdfrwt>
<totfact> 0.10750546E+03</totfact>
</mgrwt>
</event>
<event>
 4    1  0.7245070E-001  0.1782994E+03  0.7546771E-02  0.1169459E+00
         -2   -1    0    0    0  501 -0.00000000000E+00  0.00000000000E+00  0.39315563204E+02  0.39315563204E+02  0.00000000000E+00 0.  1.
          2   -1    0    0  502    0  0.00000000000E+00 -0.00000000000E+00 -0.95840573838E+03  0.95840573838E+03  0.00000000000E+00 0. -1.
          6    1    1    2  502    0  0.36849235740E+02 -0.22445642262E+02 -0.26231881540E+03  0.31717792159E+03  0.17300000000E+03 0.  1.
         -6    1    1    2    0  501 -0.36849235740E+02  0.22445642262E+02 -0.65677135977E+03  0.68054337999E+03  0.17300000000E+03 0. -1.
<mgrwt>
<rscale>  2 0.17829939E+03</rscale>
<asrwt>0</asrwt>
<pdfrwt beam="1">  1        2 0.14744704E+00 0.17829939E+03</pdfrwt>
<pdfrwt beam="2">  1       -2 0.60485481E-02 0.17829939E+03</pdfrwt>
<totfact> 0.40226113E+03</totfact>
</mgrwt>
</event>
<event>
 4    1  0.7245070E-001  0.2286618E+03  0.7546771E-02  0.1127585E+00
         -1   -1    0    0    0  501 -0.00000000000E+00  0.00000000000E+00  0.18289432836E+03  0.18289432836E+03  0.00000000000E+00 0.  1.
          1   -1    0    0  502    0  0.00000000000E+00 -0.00000000000E+00 -0.44397247311E+03  0.44397247311E+03  0.00000000000E+00 0. -1.
          6    1    1    2  502    0 -0.11311568423E+03 -0.97785774983E+02  0.56494666821E+02  0.23553739233E+03  0.17300000000E+03 0.  1.
         -6    1    1    2    0  501  0.11311568423E+03  0.97785774983E+02 -0.31757281157E+03  0.39132940914E+03  0.17300000000E+03 0. -1.
<mgrwt>
<rscale>  2 0.22866179E+03</rscale>
<asrwt>0</asrwt>
<pdfrwt beam="1">  1        1 0.68303457E-01 0.22866179E+03</pdfrwt>
<pdfrwt beam="2">  1       -1 0.28137589E-01 0.22866179E+03</pdfrwt>
<totfact> 0.60620442E+02</totfact>
</mgrwt>
</event>
<event>
 4    1  0.7245070E-001  0.1754939E+03  0.7546771E-02  0.1172237E+00
         -4   -1    0    0    0  501 -0.00000000000E+00  0.00000000000E+00  0.20385945292E+03  0.20385945292E+03  0.00000000000E+00 0.  1.
          4   -1    0    0  502    0  0.00000000000E+00 -0.00000000000E+00 -0.15208957117E+03  0.15208957117E+03  0.00000000000E+00 0. -1.
          6    1    1    2  502    0  0.27654190600E+02  0.10215582203E+02  0.11350392241E+02  0.17586058052E+03  0.17300000000E+03 0. -1.
         -6    1    1    2    0  501 -0.27654190600E+02 -0.10215582203E+02  0.40419489511E+02  0.18008844358E+03  0.17300000000E+03 0.  1.
<mgrwt>
<rscale>  2 0.17549391E+03</rscale>
<asrwt>0</asrwt>
<pdfrwt beam="1">  1        4 0.23398396E-01 0.17549391E+03</pdfrwt>
<pdfrwt beam="2">  1       -4 0.31362993E-01 0.17549391E+03</pdfrwt>
<totfact> 0.28806056E+02</totfact>
</mgrwt>
</event>
<event>
 4    1  0.7245070E-001  0.1871858E+03  0.7546771E-02  0.1161024E+00
         -4   -1    0    0    0  501 -0.00000000000E+00  0.00000000000E+00  0.43677879873E+02  0.43677879873E+02  0.00000000000E+00 0.  1.
          4   -1    0    0  502    0  0.00000000000E+00 -0.00000000000E+00 -0.10275048206E+04  0.10275048206E+04  0.00000000000E+00 0. -1.
          6    1    1    2  502    0 -0.52491762368E+02 -0.48519390023E+02 -0.24111540012E+03  0.30524605239E+03  0.17300000000E+03 0.  1.
         -6    1    1    2    0  501  0.52491762368E+02  0.48519390023E+02 -0.74271154059E+03  0.76593664807E+03  0.17300000000E+03 0.  1.
<mgrwt>
<rscale>  2 0.18718578E+03</rscale>
<asrwt>0</asrwt>
<pdfrwt beam="1">  1        4 0.15807765E+00 0.18718578E+03</pdfrwt>
<pdfrwt beam="2">  1       -4 0.67196743E-02 0.18718578E+03</pdfrwt>
<totfact> 0.72065049E+01</totfact>
</mgrwt>
</event>
<event>
 4    1  0.7245070E-001  0.1731256E+03  0.7546771E-02  0.1174627E+00
         -3   -1    0    0    0  501 -0.00000000000E+00  0.00000000000E+00  0.83911795759E+03  0.83911795759E+03  0.00000000000E+00 0.  1.
          3   -1    0    0  502    0  0.00000000000E+00 -0.00000000000E+00 -0.49014350229E+02  0.49014350229E+02  0.00000000000E+00 0. -1.
          6    1    1    2  502    0  0.45413320140E+01  0.47810157702E+01  0.16377322781E+03  0.23831523651E+03  0.17300000000E+03 0. -1.
         -6    1    1    2    0  501 -0.45413320140E+01 -0.47810157702E+01  0.62633037955E+03  0.64981707131E+03  0.17300000000E+03 0.  1.
<mgrwt>
<rscale>  2 0.17312562E+03</rscale>
<asrwt>0</asrwt>
<pdfrwt beam="1">  1        3 0.75406699E-02 0.17312562E+03</pdfrwt>
<pdfrwt beam="2">  1       -3 0.12909506E+00 0.17312562E+03</pdfrwt>
<totfact> 0.14038638E+02</totfact>
</mgrwt>
</event>
<event>
 4    1  0.7245070E-001  0.2710127E+03  0.7546771E-02  0.1100701E+00
          2   -1    0    0  502    0  0.00000000000E+00  0.00000000000E+00  0.20838367194E+04  0.20838367194E+04  0.00000000000E+00 0.  1.
         -2   -1    0    0    0  501 -0.00000000000E+00 -0.00000000000E+00 -0.35521184204E+02  0.35521184204E+02  0.00000000000E+00 0. -1.
          6    1    1    2  502    0 -0.19690538130E+03 -0.68899707677E+02  0.11173473079E+04  0.11497447132E+04  0.17300000000E+03 0.  1.
         -6    1    1    2    0  501  0.19690538130E+03  0.68899707677E+02  0.93096822726E+03  0.96961319043E+03  0.17300000000E+03 0.  1.
<mgrwt>
<rscale>  2 0.27101273E+03</rscale>
<asrwt>0</asrwt>
<pdfrwt beam="1">  1        2 0.32059017E+00 0.27101273E+03</pdfrwt>
<pdfrwt beam="2">  1       -2 0.54647992E-02 0.27101273E+03</pdfrwt>
<totfact> 0.11466607E+03</totfact>
</mgrwt>
</event>
<event>
 4    1  0.7245070E-001  0.2020204E+03  0.7546771E-02  0.1148045E+00
         -1   -1    0    0    0  501 -0.00000000000E+00  0.00000000000E+00  0.29783253319E+02  0.29783253319E+02  0.00000000000E+00 0.  1.
          1   -1    0    0  502    0  0.00000000000E+00 -0.00000000000E+00 -0.13703134690E+04  0.13703134690E+04  0.00000000000E+00 0. -1.
          6    1    1    2  502    0  0.26977045333E+02  0.10077449557E+03 -0.67152999532E+03  0.70125943455E+03  0.17300000000E+03 0. -1.
         -6    1    1    2    0  501 -0.26977045333E+02 -0.10077449557E+03 -0.66900022036E+03  0.69883728777E+03  0.17300000000E+03 0.  1.
<mgrwt>
<rscale>  2 0.20202044E+03</rscale>
<asrwt>0</asrwt>
<pdfrwt beam="1">  1        1 0.21081741E+00 0.20202044E+03</pdfrwt>
<pdfrwt beam="2">  1       -1 0.45820399E-02 0.20202044E+03</pdfrwt>
<totfact> 0.17550522E+03</totfact>
</mgrwt>
</event>
<event>
 4    1  0.7245070E-001  0.1768873E+03  0.7546771E-02  0.1170850E+00
         -2   -1    0    0    0  501 -0.00000000000E+00  0.00000000000E+00  0.28956738889E+02  0.28956738889E+02  0.00000000000E+00 0. -1.
          2   -1    0    0  502    0  0.00000000000E+00 -0.00000000000E+00 -0.10889114442E+04  0.10889114442E+04  0.00000000000E+00 0.  1.
          6    1    1    2  502    0 -0.21149877697E+02  0.30212545713E+02 -0.48098991352E+03  0.51248454821E+03  0.17300000000E+03 0. -1.
         -6    1    1    2    0  501  0.21149877697E+02 -0.30212545713E+02 -0.57896479176E+03  0.60538363484E+03  0.17300000000E+03 0.  1.
<mgrwt>
<rscale>  2 0.17688730E+03</rscale>
<asrwt>0</asrwt>
<pdfrwt beam="1">  1        2 0.16752481E+00 0.17688730E+03</pdfrwt>
<pdfrwt beam="2">  1       -2 0.44548836E-02 0.17688730E+03</pdfrwt>
<totfact> 0.53391961E+03</totfact>
</mgrwt>
</event>
<event>
 4    1  0.7245070E-001  0.2457073E+03  0.7546771E-02  0.1116048E+00
          2   -1    0    0  502    0  0.00000000000E+00  0.00000000000E+00  0.17891928466E+04  0.17891928466E+04  0.00000000000E+00 0. -1.
         -2   -1    0    0    0  501 -0.00000000000E+00 -0.00000000000E+00 -0.44429651520E+02  0.44429651520E+02  0.00000000000E+00 0.  1.
          6    1    1    2  502    0 -0.17427444741E+03 -0.84547569146E+01  0.13220287975E+04  0.13446680658E+04  0.17300000000E+03 0. -1.
         -6    1    1    2    0  501  0.17427444741E+03  0.84547569146E+01  0.42273439766E+03  0.48895443233E+03  0.17300000000E+03 0.  1.
<mgrwt>
<rscale>  2 0.24570728E+03</rscale>
<asrwt>0</asrwt>
<pdfrwt beam="1">  1        2 0.27526038E+00 0.24570728E+03</pdfrwt>
<pdfrwt beam="2">  1       -2 0.68353324E-02 0.24570728E+03</pdfrwt>
<totfact> 0.11629739E+03</totfact>
</mgrwt>
</event>
<event>
 4    1  0.7245070E-001  0.1821913E+03  0.7546771E-02  0.1165699E+00
          2   -1    0    0  502    0  0.00000000000E+00  0.00000000000E+00  0.75170974825E+03  0.75170974825E+03  0.00000000000E+00 0.  1.
         -2   -1    0    0    0  501 -0.00000000000E+00 -0.00000000000E+00 -0.63779814499E+02  0.63779814499E+02  0.00000000000E+00 0. -1.
          6    1    1    2  502    0 -0.56045536132E+02  0.11115479219E+02  0.11780203851E+03  0.21695846671E+03  0.17300000000E+03 0. -1.
         -6    1    1    2    0  501  0.56045536132E+02 -0.11115479219E+02  0.57012789524E+03  0.59853109604E+03  0.17300000000E+03 0.  1.
<mgrwt>
<rscale>  2 0.18219126E+03</rscale>
<asrwt>0</asrwt>
<pdfrwt beam="1">  1        2 0.11564765E+00 0.18219126E+03</pdfrwt>
<pdfrwt beam="2">  1       -2 0.98122797E-02 0.18219126E+03</pdfrwt>
<totfact> 0.25998064E+03</totfact>
</mgrwt>
</event>
<event>
 4    1  0.7245070E-001  0.1942088E+03  0.7546771E-02  0.1154719E+00
         -1   -1    0    0    0  501 -0.00000000000E+00  0.00000000000E+00  0.20717234117E+03  0.20717234117E+03  0.00000000000E+00 0. -1.
          1   -1    0    0  502    0  0.00000000000E+00 -0.00000000000E+00 -0.18328751235E+03  0.18328751235E+03  0.00000000000E+00 0.  1.
          6    1    1    2  502    0  0.34205315074E+02  0.81351353636E+02  0.27942873896E+02  0.19620869124E+03  0.17300000000E+03 0.  1.
         -6    1    1    2    0  501 -0.34205315074E+02 -0.81351353636E+02 -0.40580450804E+01  0.19425116228E+03  0.17300000000E+03 0.  1.
<mgrwt>
<rscale>  2 0.19420877E+03</rscale>
<asrwt>0</asrwt>
<pdfrwt beam="1">  1        1 0.28198079E-01 0.19420877E+03</pdfrwt>
<pdfrwt beam="2">  1       -1 0.31872668E-01 0.19420877E+03</pdfrwt>
<totfact> 0.14964870E+03</totfact>
</mgrwt>
</event>
<event>
 4    1  0.7245070E-001  0.3068961E+03  0.7546771E-02  0.1081843E+00
          2   -1    0    0  502    0  0.00000000000E+00  0.00000000000E+00  0.20844329105E+04  0.20844329105E+04  0.00000000000E+00 0. -1.
         -2   -1    0    0    0  501 -0.00000000000E+00 -0.00000000000E+00 -0.46423674277E+02  0.46423674277E+02  0.00000000000E+00 0.  1.
          6    1    1    2  502    0  0.20877016391E+03 -0.14377487188E+03  0.84497421819E+03  0.89898088107E+03  0.17300000000E+03 0.  1.
         -6    1    1    2    0  501 -0.20877016391E+03  0.14377487188E+03  0.11930350180E+04  0.12318757037E+04  0.17300000000E+03 0. -1.
<mgrwt>
<rscale>  2 0.30689607E+03</rscale>
<asrwt>0</asrwt>
<pdfrwt beam="1">  1        2 0.32068191E+00 0.30689607E+03</pdfrwt>
<pdfrwt beam="2">  1       -2 0.71421053E-02 0.30689607E+03</pdfrwt>
<totfact> 0.75392468E+02</totfact>
</mgrwt>
</event>
<event>
 4    1  0.7245070E-001  0.2930743E+03  0.7546771E-02  0.1088755E+00
         -4   -1    0    0    0  501 -0.00000000000E+00  0.00000000000E+00  0.15971488589E+03  0.15971488589E+03  0.00000000000E+00 0.  1.
          4   -1    0    0  502    0  0.00000000000E+00 -0.00000000000E+00 -0.57423247826E+03  0.57423247826E+03  0.00000000000E+00 0. -1.
          6    1    1    2  502    0 -0.23455264788E+03 -0.30799327532E+02 -0.11480716225E+03  0.31475899941E+03  0.17300000000E+03 0. -1.
         -6    1    1    2    0  501  0.23455264788E+03  0.30799327532E+02 -0.29971043013E+03  0.41918836474E+03  0.17300000000E+03 0.  1.
<mgrwt>
<rscale>  2 0.29307430E+03</rscale>
<asrwt>0</asrwt>
<pdfrwt beam="1">  1        4 0.88343460E-01 0.29307430E+03</pdfrwt>
<pdfrwt beam="2">  1       -4 0.24571520E-01 0.29307430E+03</pdfrwt>
<totfact> 0.32460786E+01</totfact>
</mgrwt>
</event>
<event>
 4    1  0.7245070E-001  0.2200418E+03  0.7546771E-02  0.1133852E+00
         -2   -1    0    0    0  501 -0.00000000000E+00  0.00000000000E+00  0.21283264403E+03  0.21283264403E+03  0.00000000000E+00 0. -1.
          2   -1    0    0  502    0  0.00000000000E+00 -0.00000000000E+00 -0.33951456462E+03  0.33951456462E+03  0.00000000000E+00 0.  1.
          6    1    1    2  502    0  0.45777204133E+02 -0.12803850330E+03 -0.22197612454E+03  0.31255689180E+03  0.17300000000E+03 0.  1.
         -6    1    1    2    0  501 -0.45777204133E+02  0.12803850330E+03  0.95294203951E+02  0.23979031684E+03  0.17300000000E+03 0. -1.
<mgrwt>
<rscale>  2 0.22004184E+03</rscale>
<asrwt>0</asrwt>
<pdfrwt beam="1">  1        2 0.52233009E-01 0.22004184E+03</pdfrwt>
<pdfrwt beam="2">  1       -2 0.32743484E-01 0.22004184E+03</pdfrwt>
<totfact> 0.83183687E+02</totfact>
</mgrwt>
</event>
<event>
 4    1  0.7245070E-001  0.1921738E+03  0.7546771E-02  0.1156515E+00
          2   -1    0    0  502    0  0.00000000000E+00  0.00000000000E+00  0.97402548325E+03  0.97402548325E+03  0.00000000000E+00 0. -1.
         -2   -1    0    0    0  501 -0.00000000000E+00 -0.00000000000E+00 -0.58345055650E+02  0.58345055650E+02  0.00000000000E+00 0.  1.
          6    1    1    2  502    0 -0.59333584635E+01  0.83466043259E+02  0.76328429053E+03  0.78710462665E+03  0.17300000000E+03 0. -1.
         -6    1    1    2    0  501  0.59333584635E+01 -0.83466043259E+02  0.15239613708E+03  0.24526591226E+03  0.17300000000E+03 0.  1.
<mgrwt>
<rscale>  2 0.19217384E+03</rscale>
<asrwt>0</asrwt>
<pdfrwt beam="1">  1        2 0.14985006E+00 0.19217384E+03</pdfrwt>
<pdfrwt beam="2">  1       -2 0.89761631E-02 0.19217384E+03</pdfrwt>
<totfact> 0.21390104E+03</totfact>
</mgrwt>
</event>
<event>
 4    1  0.7245070E-001  0.1795303E+03  0.7546771E-02  0.1168258E+00
          3   -1    0    0  502    0  0.00000000000E+00  0.00000000000E+00  0.27599474817E+03  0.27599474817E+03  0.00000000000E+00 0.  1.
         -3   -1    0    0    0  501 -0.00000000000E+00 -0.00000000000E+00 -0.24958587772E+03  0.24958587772E+03  0.00000000000E+00 0. -1.
          6    1    1    2  502    0  0.18787320538E+02  0.44149485760E+02 -0.17848809473E+03  0.25315833083E+03  0.17300000000E+03 0. -1.
         -6    1    1    2    0  501 -0.18787320538E+02 -0.44149485760E+02  0.20489696518E+03  0.27242229506E+03  0.17300000000E+03 0.  1.
<mgrwt>
<rscale>  2 0.17953033E+03</rscale>
<asrwt>0</asrwt>
<pdfrwt beam="1">  1        3 0.42460731E-01 0.17953033E+03</pdfrwt>
<pdfrwt beam="2">  1       -3 0.38397827E-01 0.17953033E+03</pdfrwt>
<totfact> 0.89904639E+01</totfact>
</mgrwt>
</event>
<event>
 4    1  0.7245070E-001  0.2102785E+03  0.7546771E-02  0.1141346E+00
          1   -1    0    0  502    0  0.00000000000E+00  0.00000000000E+00  0.44407538189E+02  0.44407538189E+02  0.00000000000E+00 0.  1.
         -1   -1    0    0    0  501 -0.00000000000E+00 -0.00000000000E+00 -0.99600233572E+03  0.99600233572E+03  0.00000000000E+00 0. -1.
          6    1    1    2  502    0  0.31983910923E+02  0.11517418033E+03 -0.46689636234E+03  0.51206374167E+03  0.17300000000E+03 0.  1.
         -6    1    1    2    0  501 -0.31983910923E+02 -0.11517418033E+03 -0.48469843519E+03  0.52834613224E+03  0.17300000000E+03 0.  1.
<mgrwt>
<rscale>  2 0.21027854E+03</rscale>
<asrwt>0</asrwt>
<pdfrwt beam="1">  1        1 0.68319285E-02 0.21027854E+03</pdfrwt>
<pdfrwt beam="2">  1       -1 0.15323114E+00 0.21027854E+03</pdfrwt>
<totfact> 0.38631375E+02</totfact>
</mgrwt>
</event>
<event>
 4    1  0.7245070E-001  0.1814925E+03  0.7546771E-02  0.1166366E+00
          2   -1    0    0  502    0  0.00000000000E+00  0.00000000000E+00  0.17875396713E+04  0.17875396713E+04  0.00000000000E+00 0. -1.
         -2   -1    0    0    0  501 -0.00000000000E+00 -0.00000000000E+00 -0.19689826233E+02  0.19689826233E+02  0.00000000000E+00 0.  1.
          6    1    1    2  502    0 -0.29561185297E+02  0.46223877535E+02  0.11127398888E+04  0.11274438215E+04  0.17300000000E+03 0. -1.
         -6    1    1    2    0  501  0.29561185297E+02 -0.46223877535E+02  0.65510995632E+03  0.67978567608E+03  0.17300000000E+03 0.  1.
<mgrwt>
<rscale>  2 0.18149245E+03</rscale>
<asrwt>0</asrwt>
<pdfrwt beam="1">  1        2 0.27500598E+00 0.18149245E+03</pdfrwt>
<pdfrwt beam="2">  1       -2 0.30292054E-02 0.18149245E+03</pdfrwt>
<totfact> 0.39994678E+03</totfact>
</mgrwt>
</event>
<event>
 4    1  0.7245070E-001  0.1814407E+03  0.7546771E-02  0.1166416E+00
         -2   -1    0    0    0  501 -0.00000000000E+00  0.00000000000E+00  0.38075256427E+02  0.38075256427E+02  0.00000000000E+00 0. -1.
          2   -1    0    0  502    0  0.00000000000E+00 -0.00000000000E+00 -0.12723699973E+04  0.12723699973E+04  0.00000000000E+00 0.  1.
          6    1    1    2  502    0 -0.36225786255E+02  0.40980616007E+02 -0.98806536031E+03  0.10045864197E+04  0.17300000000E+03 0.  1.
         -6    1    1    2    0  501  0.36225786255E+02 -0.40980616007E+02 -0.24622938057E+03  0.30585883400E+03  0.17300000000E+03 0. -1.
<mgrwt>
<rscale>  2 0.18144067E+03</rscale>
<asrwt>0</asrwt>
<pdfrwt beam="1">  1        2 0.19574919E+00 0.18144067E+03</pdfrwt>
<pdfrwt beam="2">  1       -2 0.58577329E-02 0.18144067E+03</pdfrwt>
<totfact> 0.27812968E+03</totfact>
</mgrwt>
</event>
<event>
 4    1  0.7245070E-001  0.2136563E+03  0.7546771E-02  0.1138703E+00
         -4   -1    0    0    0  501 -0.00000000000E+00  0.00000000000E+00  0.45135674676E+03  0.45135674676E+03  0.00000000000E+00 0.  1.
          4   -1    0    0  502    0  0.00000000000E+00 -0.00000000000E+00 -0.10378683771E+03  0.10378683771E+03  0.00000000000E+00 0. -1.
          6    1    1    2  502    0 -0.60010248123E+02 -0.11008537490E+03  0.12943571621E+03  0.24980517264E+03  0.17300000000E+03 0. -1.
         -6    1    1    2    0  501  0.60010248123E+02  0.11008537490E+03  0.21813419285E+03  0.30533841183E+03  0.17300000000E+03 0.  1.
<mgrwt>
<rscale>  2 0.21365631E+03</rscale>
<asrwt>0</asrwt>
<pdfrwt beam="1">  1        4 0.15967206E-01 0.21365631E+03</pdfrwt>
<pdfrwt beam="2">  1       -4 0.69439499E-01 0.21365631E+03</pdfrwt>
<totfact> 0.11744594E+02</totfact>
</mgrwt>
</event>
<event>
 4    1  0.7245070E-001  0.1796105E+03  0.7546771E-02  0.1168181E+00
          2   -1    0    0  502    0  0.00000000000E+00  0.00000000000E+00  0.36071692815E+03  0.36071692815E+03  0.00000000000E+00 0. -1.
         -2   -1    0    0    0  501 -0.00000000000E+00 -0.00000000000E+00 -0.10208846927E+03  0.10208846927E+03  0.00000000000E+00 0.  1.
          6    1    1    2  502    0 -0.47294553736E+02 -0.97034777103E+01  0.47839621359E+02  0.18587243385E+03  0.17300000000E+03 0.  1.
         -6    1    1    2    0  501  0.47294553736E+02  0.97034777103E+01  0.21078883752E+03  0.27693296358E+03  0.17300000000E+03 0. -1.
<mgrwt>
<rscale>  2 0.17961050E+03</rscale>
<asrwt>0</asrwt>
<pdfrwt beam="1">  1        2 0.55494911E-01 0.17961050E+03</pdfrwt>
<pdfrwt beam="2">  1       -2 0.15705919E-01 0.17961050E+03</pdfrwt>
<totfact> 0.27852850E+03</totfact>
</mgrwt>
</event>
<event>
 4    1  0.7245070E-001  0.2159823E+03  0.7546771E-02  0.1136914E+00
         -1   -1    0    0    0  501 -0.00000000000E+00  0.00000000000E+00  0.45181737744E+02  0.45181737744E+02  0.00000000000E+00 0.  1.
          1   -1    0    0  502    0  0.00000000000E+00 -0.00000000000E+00 -0.10655581568E+04  0.10655581568E+04  0.00000000000E+00 0. -1.
          6    1    1    2  502    0  0.10757353106E+03 -0.71744514602E+02 -0.41230791586E+03  0.46545263716E+03  0.17300000000E+03 0. -1.
         -6    1    1    2    0  501 -0.10757353106E+03  0.71744514602E+02 -0.60806850324E+03  0.64528725742E+03  0.17300000000E+03 0. -1.
<mgrwt>
<rscale>  2 0.21598227E+03</rscale>
<asrwt>0</asrwt>
<pdfrwt beam="1">  1        1 0.16393201E+00 0.21598227E+03</pdfrwt>
<pdfrwt beam="2">  1       -1 0.69510371E-02 0.21598227E+03</pdfrwt>
<totfact> 0.15269029E+03</totfact>
</mgrwt>
</event>
<event>
 4    1  0.7245070E-001  0.2039627E+03  0.7546771E-02  0.1146438E+00
          1   -1    0    0  502    0  0.00000000000E+00  0.00000000000E+00  0.59885078577E+03  0.59885078577E+03  0.00000000000E+00 0.  1.
         -1   -1    0    0    0  501 -0.00000000000E+00 -0.00000000000E+00 -0.73226898305E+02  0.73226898305E+02  0.00000000000E+00 0. -1.
          6    1    1    2  502    0 -0.83313576069E+01  0.10771430352E+03  0.18667382063E+03  0.27649213010E+03  0.17300000000E+03 0. -1.
         -6    1    1    2    0  501  0.83313576069E+01 -0.10771430352E+03  0.33895006683E+03  0.39558555397E+03  0.17300000000E+03 0.  1.
<mgrwt>
<rscale>  2 0.20396270E+03</rscale>
<asrwt>0</asrwt>
<pdfrwt beam="1">  1        1 0.92130887E-01 0.20396270E+03</pdfrwt>
<pdfrwt beam="2">  1       -1 0.11265677E-01 0.20396270E+03</pdfrwt>
<totfact> 0.17750259E+03</totfact>
</mgrwt>
</event>
<event>
 4    1  0.7245070E-001  0.2892343E+03  0.7546771E-02  0.1090750E+00
         -2   -1    0    0    0  501 -0.00000000000E+00  0.00000000000E+00  0.29420897248E+03  0.29420897248E+03  0.00000000000E+00 0.  1.
          2   -1    0    0  502    0  0.00000000000E+00 -0.00000000000E+00 -0.28503225101E+03  0.28503225101E+03  0.00000000000E+00 0. -1.
          6    1    1    2  502    0  0.15826371096E+03  0.16935198393E+03  0.18822119086E+02  0.28984611233E+03  0.17300000000E+03 0. -1.
         -6    1    1    2    0  501 -0.15826371096E+03 -0.16935198393E+03 -0.96453976125E+01  0.28939511116E+03  0.17300000000E+03 0.  1.
<mgrwt>
<rscale>  2 0.28923433E+03</rscale>
<asrwt>0</asrwt>
<pdfrwt beam="1">  1        2 0.43851116E-01 0.28923433E+03</pdfrwt>
<pdfrwt beam="2">  1       -2 0.45262919E-01 0.28923433E+03</pdfrwt>
<totfact> 0.54346132E+02</totfact>
</mgrwt>
</event>
<event>
 4    1  0.7245070E-001  0.1962170E+03  0.7546771E-02  0.1152971E+00
          2   -1    0    0  502    0  0.00000000000E+00  0.00000000000E+00  0.27431959595E+03  0.27431959595E+03  0.00000000000E+00 0.  1.
         -2   -1    0    0    0  501 -0.00000000000E+00 -0.00000000000E+00 -0.14269819588E+03  0.14269819588E+03  0.00000000000E+00 0. -1.
          6    1    1    2  502    0 -0.69673004990E+02  0.60973521491E+02  0.39070357453E+02  0.20006896506E+03  0.17300000000E+03 0. -1.
         -6    1    1    2    0  501  0.69673004990E+02 -0.60973521491E+02  0.92551042619E+02  0.21694882677E+03  0.17300000000E+03 0.  1.
<mgrwt>
<rscale>  2 0.19621697E+03</rscale>
<asrwt>0</asrwt>
<pdfrwt beam="1">  1        2 0.42203015E-01 0.19621697E+03</pdfrwt>
<pdfrwt beam="2">  1       -2 0.21953569E-01 0.19621697E+03</pdfrwt>
<totfact> 0.21283006E+03</totfact>
</mgrwt>
</event>
<event>
 4    1  0.7245070E-001  0.1759366E+03  0.7546771E-02  0.1171795E+00
          2   -1    0    0  502    0  0.00000000000E+00  0.00000000000E+00  0.13686130045E+04  0.13686130045E+04  0.00000000000E+00 0.  1.
         -2   -1    0    0    0  501 -0.00000000000E+00 -0.00000000000E+00 -0.23291551608E+02  0.23291551608E+02  0.00000000000E+00 0. -1.
          6    1    1    2  502    0 -0.75537211361E+00  0.32001589231E+02  0.55420769727E+03  0.58146353627E+03  0.17300000000E+03 0.  1.
         -6    1    1    2    0  501  0.75537211361E+00 -0.32001589231E+02  0.79111375564E+03  0.81044101986E+03  0.17300000000E+03 0.  1.
<mgrwt>
<rscale>  2 0.17593656E+03</rscale>
<asrwt>0</asrwt>
<pdfrwt beam="1">  1        2 0.21055578E+00 0.17593656E+03</pdfrwt>
<pdfrwt beam="2">  1       -2 0.35833167E-02 0.17593656E+03</pdfrwt>
<totfact> 0.51655690E+03</totfact>
</mgrwt>
</event>
<event>
 4    1  0.7245070E-001  0.2060713E+03  0.7546771E-02  0.1144715E+00
          2   -1    0    0  502    0  0.00000000000E+00  0.00000000000E+00  0.10561727480E+04  0.10561727480E+04  0.00000000000E+00 0. -1.
         -2   -1    0    0    0  501 -0.00000000000E+00 -0.00000000000E+00 -0.56986062043E+02  0.56986062043E+02  0.00000000000E+00 0.  1.
          6    1    1    2  502    0 -0.49113046181E+02 -0.10061957568E+03  0.80160830210E+03  0.82767219375E+03  0.17300000000E+03 0. -1.
         -6    1    1    2    0  501  0.49113046181E+02  0.10061957568E+03  0.19757838387E+03  0.28548661630E+03  0.17300000000E+03 0.  1.
<mgrwt>
<rscale>  2 0.20607132E+03</rscale>
<asrwt>0</asrwt>
<pdfrwt beam="1">  1        2 0.16248810E+00 0.20607132E+03</pdfrwt>
<pdfrwt beam="2">  1       -2 0.87670872E-02 0.20607132E+03</pdfrwt>
<totfact> 0.19815589E+03</totfact>
</mgrwt>
</event>
<event>
 4    1  0.7245070E-001  0.1906193E+03  0.7546771E-02  0.1157904E+00
         -1   -1    0    0    0  501 -0.00000000000E+00  0.00000000000E+00  0.16562665164E+02  0.16562665164E+02  0.00000000000E+00 0.  1.
          1   -1    0    0  502    0  0.00000000000E+00 -0.00000000000E+00 -0.26510691546E+04  0.26510691546E+04  0.00000000000E+00 0. -1.
          6    1    1    2  502    0 -0.79294286590E+02  0.10914239041E+02 -0.76332165662E+03  0.78676276981E+03  0.17300000000E+03 0.  1.
         -6    1    1    2    0  501  0.79294286590E+02 -0.10914239041E+02 -0.18711848328E+04  0.18808690499E+04  0.17300000000E+03 0. -1.
<mgrwt>
<rscale>  2 0.19061927E+03</rscale>
<asrwt>0</asrwt>
<pdfrwt beam="1">  1        1 0.40785703E+00 0.19061927E+03</pdfrwt>
<pdfrwt beam="2">  1       -1 0.25481008E-02 0.19061927E+03</pdfrwt>
<totfact> 0.61151878E+02</totfact>
</mgrwt>
</event>
<event>
 4    1  0.7245070E-001  0.1853377E+03  0.7546771E-02  0.1162735E+00
         -2   -1    0    0    0  501 -0.00000000000E+00  0.00000000000E+00  0.16467086328E+02  0.16467086328E+02  0.00000000000E+00 0. -1.
          2   -1    0    0  502    0  0.00000000000E+00 -0.00000000000E+00 -0.20864169335E+04  0.20864169335E+04  0.00000000000E+00 0.  1.
          6    1    1    2  502    0 -0.20955608579E+02 -0.63102602450E+02 -0.10501236369E+04  0.10663534727E+04  0.17300000000E+03 0. -1.
         -6    1    1    2    0  501  0.20955608579E+02  0.63102602450E+02 -0.10198262102E+04  0.10365305471E+04  0.17300000000E+03 0.  1.
<mgrwt>
<rscale>  2 0.18533773E+03</rscale>
<asrwt>0</asrwt>
<pdfrwt beam="1">  1        2 0.32098706E+00 0.18533773E+03</pdfrwt>
<pdfrwt beam="2">  1       -2 0.25333992E-02 0.18533773E+03</pdfrwt>
<totfact> 0.36461919E+03</totfact>
</mgrwt>
</event>
<event>
 4    1  0.7245070E-001  0.1788883E+03  0.7546771E-02  0.1168883E+00
          2   -1    0    0  502    0  0.00000000000E+00  0.00000000000E+00  0.15265832328E+04  0.15265832328E+04  0.00000000000E+00 0.  1.
         -2   -1    0    0    0  501 -0.00000000000E+00 -0.00000000000E+00 -0.21542687478E+02  0.21542687478E+02  0.00000000000E+00 0. -1.
          6    1    1    2  502    0  0.26159160977E+02  0.37251986060E+02  0.62548983697E+03  0.65056786604E+03  0.17300000000E+03 0. -1.
         -6    1    1    2    0  501 -0.26159160977E+02 -0.37251986060E+02  0.87955070838E+03  0.89755805427E+03  0.17300000000E+03 0. -1.
<mgrwt>
<rscale>  2 0.17888827E+03</rscale>
<asrwt>0</asrwt>
<pdfrwt beam="1">  1        2 0.23485887E+00 0.17888827E+03</pdfrwt>
<pdfrwt beam="2">  1       -2 0.33142608E-02 0.17888827E+03</pdfrwt>
<totfact> 0.47840106E+03</totfact>
</mgrwt>
</event>
<event>
 4    1  0.7245070E-001  0.2151755E+03  0.7546771E-02  0.1137532E+00
         -2   -1    0    0    0  501 -0.00000000000E+00  0.00000000000E+00  0.23398420542E+03  0.23398420542E+03  0.00000000000E+00 0.  1.
          2   -1    0    0  502    0  0.00000000000E+00 -0.00000000000E+00 -0.21479738752E+03  0.21479738752E+03  0.00000000000E+00 0. -1.
          6    1    1    2  502    0 -0.61454197527E+02 -0.11222698835E+03 -0.53382219541E+02  0.22169839122E+03  0.17300000000E+03 0. -1.
         -6    1    1    2    0  501  0.61454197527E+02  0.11222698835E+03  0.72569037444E+02  0.22708320172E+03  0.17300000000E+03 0.  1.
<mgrwt>
<rscale>  2 0.21517555E+03</rscale>
<asrwt>0</asrwt>
<pdfrwt beam="1">  1        2 0.33045752E-01 0.21517555E+03</pdfrwt>
<pdfrwt beam="2">  1       -2 0.35997570E-01 0.21517555E+03</pdfrwt>
<totfact> 0.11431257E+03</totfact>
</mgrwt>
</event>
<event>
 4    1  0.7245070E-001  0.1912481E+03  0.7546771E-02  0.1157340E+00
          2   -1    0    0  502    0  0.00000000000E+00  0.00000000000E+00  0.60461998349E+03  0.60461998349E+03  0.00000000000E+00 0.  1.
         -2   -1    0    0    0  501 -0.00000000000E+00 -0.00000000000E+00 -0.82494396997E+02  0.82494396997E+02  0.00000000000E+00 0. -1.
          6    1    1    2  502    0  0.31603040571E+02 -0.75153839572E+02  0.43848278577E+03  0.47837538104E+03  0.17300000000E+03 0.  1.
         -6    1    1    2    0  501 -0.31603040571E+02  0.75153839572E+02  0.83642800729E+02  0.20873899945E+03  0.17300000000E+03 0. -1.
<mgrwt>
<rscale>  2 0.19124814E+03</rscale>
<asrwt>0</asrwt>
<pdfrwt beam="1">  1        2 0.93018456E-01 0.19124814E+03</pdfrwt>
<pdfrwt beam="2">  1       -2 0.12691446E-01 0.19124814E+03</pdfrwt>
<totfact> 0.22356066E+03</totfact>
</mgrwt>
</event>
<event>
 4    1  0.7245070E-001  0.1836919E+03  0.7546771E-02  0.1164277E+00
          1   -1    0    0  502    0  0.00000000000E+00  0.00000000000E+00  0.58363963470E+03  0.58363963470E+03  0.00000000000E+00 0.  1.
         -1   -1    0    0    0  501 -0.00000000000E+00 -0.00000000000E+00 -0.66330466688E+02  0.66330466688E+02  0.00000000000E+00 0. -1.
          6    1    1    2  502    0 -0.54374789927E+02  0.29276042730E+02  0.37510189900E+03  0.41766510399E+03  0.17300000000E+03 0.  1.
         -6    1    1    2    0  501  0.54374789927E+02 -0.29276042730E+02  0.14220726902E+03  0.23230499741E+03  0.17300000000E+03 0. -1.
<mgrwt>
<rscale>  2 0.18369187E+03</rscale>
<asrwt>0</asrwt>
<pdfrwt beam="1">  1        1 0.89790710E-01 0.18369187E+03</pdfrwt>
<pdfrwt beam="2">  1       -1 0.10204688E-01 0.18369187E+03</pdfrwt>
<totfact> 0.21382636E+03</totfact>
</mgrwt>
</event>
<event>
 4    1  0.7245070E-001  0.1804042E+03  0.7546771E-02  0.1167412E+00
          2   -1    0    0  502    0  0.00000000000E+00  0.00000000000E+00  0.10733469450E+04  0.10733469450E+04  0.00000000000E+00 0.  1.
         -2   -1    0    0    0  501 -0.00000000000E+00 -0.00000000000E+00 -0.10632626585E+03  0.10632626585E+03  0.00000000000E+00 0. -1.
          6    1    1    2  502    0  0.42573812201E+02  0.28357652270E+02  0.98220110951E+03  0.99863141622E+03  0.17300000000E+03 0.  1.
         -6    1    1    2    0  501 -0.42573812201E+02 -0.28357652270E+02 -0.15180430385E+02  0.18104179461E+03  0.17300000000E+03 0. -1.
<mgrwt>
<rscale>  2 0.18040423E+03</rscale>
<asrwt>0</asrwt>
<pdfrwt beam="1">  1        2 0.16513029E+00 0.18040423E+03</pdfrwt>
<pdfrwt beam="2">  1       -2 0.16357888E-01 0.18040423E+03</pdfrwt>
<totfact> 0.70886818E+02</totfact>
</mgrwt>
</event>
<event>
 4    1  0.7245070E-001  0.2312403E+03  0.7546771E-02  0.1125770E+00
          2   -1    0    0  502    0  0.00000000000E+00  0.00000000000E+00  0.23494275999E+03  0.23494275999E+03  0.00000000000E+00 0.  1.
         -2   -1    0    0    0  501 -0.00000000000E+00 -0.00000000000E+00 -0.40160899862E+03  0.40160899862E+03  0.00000000000E+00 0. -1.
          6    1    1    2  502    0  0.15269103389E+03  0.15116554841E+02  0.12617106290E+03  0.26342209318E+03  0.17300000000E+03 0.  1.
         -6    1    1    2    0  501 -0.15269103389E+03 -0.15116554841E+02 -0.29283730153E+03  0.37312966543E+03  0.17300000000E+03 0. -1.
<mgrwt>
<rscale>  2 0.23124027E+03</rscale>
<asrwt>0</asrwt>
<pdfrwt beam="1">  1        2 0.36145041E-01 0.23124027E+03</pdfrwt>
<pdfrwt beam="2">  1       -2 0.61785999E-01 0.23124027E+03</pdfrwt>
<totfact> 0.35703218E+02</totfact>
</mgrwt>
</event>
<event>
 4    1  0.7245070E-001  0.2053576E+03  0.7546771E-02  0.1145296E+00
         -2   -1    0    0    0  501 -0.00000000000E+00  0.00000000000E+00  0.17873925700E+03  0.17873925700E+03  0.00000000000E+00 0.  1.
          2   -1    0    0  502    0  0.00000000000E+00 -0.00000000000E+00 -0.24110659425E+03  0.24110659425E+03  0.00000000000E+00 0. -1.
          6    1    1    2  502    0  0.59907668251E+02 -0.93025877616E+02 -0.45406504619E+00  0.20535809893E+03  0.17300000000E+03 0. -1.
         -6    1    1    2    0  501 -0.59907668251E+02  0.93025877616E+02 -0.61913272203E+02  0.21448775232E+03  0.17300000000E+03 0.  1.
<mgrwt>
<rscale>  2 0.20535760E+03</rscale>
<asrwt>0</asrwt>
<pdfrwt beam="1">  1        2 0.37093322E-01 0.20535760E+03</pdfrwt>
<pdfrwt beam="2">  1       -2 0.27498347E-01 0.20535760E+03</pdfrwt>
<totfact> 0.16486586E+03</totfact>
</mgrwt>
</event>
<event>
 4    1  0.7245070E-001  0.2958327E+03  0.7546771E-02  0.1087343E+00
          2   -1    0    0  502    0  0.00000000000E+00  0.00000000000E+00  0.15137994892E+04  0.15137994892E+04  0.00000000000E+00 0.  1.
         -2   -1    0    0    0  501 -0.00000000000E+00 -0.00000000000E+00 -0.97385920307E+02  0.97385920307E+02  0.00000000000E+00 0. -1.
          6    1    1    2  502    0  0.18641534898E+03  0.15112006941E+03  0.19467456998E+03  0.35414000891E+03  0.17300000000E+03 0. -1.
         -6    1    1    2    0  501 -0.18641534898E+03 -0.15112006941E+03  0.12217389990E+04  0.12570454006E+04  0.17300000000E+03 0.  1.
<mgrwt>
<rscale>  2 0.29583265E+03</rscale>
<asrwt>0</asrwt>
<pdfrwt beam="1">  1        2 0.23289221E+00 0.29583265E+03</pdfrwt>
<pdfrwt beam="2">  1       -2 0.14982450E-01 0.29583265E+03</pdfrwt>
<totfact> 0.46062525E+02</totfact>
</mgrwt>
</event>
<event>
 4    1  0.7245070E-001  0.1864189E+03  0.7546771E-02  0.1161731E+00
         -1   -1    0    0    0  501 -0.00000000000E+00  0.00000000000E+00  0.86676578852E+02  0.86676578852E+02  0.00000000000E+00 0. -1.
          1   -1    0    0  502    0  0.00000000000E+00 -0.00000000000E+00 -0.43485202649E+03  0.43485202649E+03  0.00000000000E+00 0.  1.
          6    1    1    2  502    0  0.62704778748E+02 -0.29851455857E+02 -0.24690967319E+03  0.30938064808E+03  0.17300000000E+03 0.  1.
         -6    1    1    2    0  501 -0.62704778748E+02  0.29851455857E+02 -0.10126577445E+03  0.21214795726E+03  0.17300000000E+03 0. -1.
<mgrwt>
<rscale>  2 0.18641888E+03</rscale>
<asrwt>0</asrwt>
<pdfrwt beam="1">  1        1 0.66900312E-01 0.18641888E+03</pdfrwt>
<pdfrwt beam="2">  1       -1 0.13334858E-01 0.18641888E+03</pdfrwt>
<totfact> 0.20839059E+03</totfact>
</mgrwt>
</event>
<event>
 4    1  0.7245070E-001  0.1858012E+03  0.7546771E-02  0.1162304E+00
          2   -1    0    0  502    0  0.00000000000E+00  0.00000000000E+00  0.76317615291E+03  0.76317615291E+03  0.00000000000E+00 0. -1.
         -2   -1    0    0    0  501 -0.00000000000E+00 -0.00000000000E+00 -0.91388449113E+02  0.91388449113E+02  0.00000000000E+00 0.  1.
          6    1    1    2  502    0 -0.53231738859E+02  0.41946066876E+02  0.32244430718E+02  0.18857834940E+03  0.17300000000E+03 0.  1.
         -6    1    1    2    0  501  0.53231738859E+02 -0.41946066876E+02  0.63954327308E+03  0.66598625263E+03  0.17300000000E+03 0. -1.
<mgrwt>
<rscale>  2 0.18580121E+03</rscale>
<asrwt>0</asrwt>
<pdfrwt beam="1">  1        2 0.11741171E+00 0.18580121E+03</pdfrwt>
<pdfrwt beam="2">  1       -2 0.14059762E-01 0.18580121E+03</pdfrwt>
<totfact> 0.14326710E+03</totfact>
</mgrwt>
</event>
<event>
 4    1  0.7245070E-001  0.2012130E+03  0.7546771E-02  0.1148720E+00
          2   -1    0    0  502    0  0.00000000000E+00  0.00000000000E+00  0.18590985255E+03  0.18590985255E+03  0.00000000000E+00 0. -1.
         -2   -1    0    0    0  501 -0.00000000000E+00 -0.00000000000E+00 -0.21945883619E+03  0.21945883619E+03  0.00000000000E+00 0.  1.
          6    1    1    2  502    0  0.51968859762E+02 -0.88639310607E+02 -0.34523516750E+02  0.20415328305E+03  0.17300000000E+03 0. -1.
         -6    1    1    2    0  501 -0.51968859762E+02  0.88639310607E+02  0.97453310964E+00  0.20121540568E+03  0.17300000000E+03 0.  1.
<mgrwt>
<rscale>  2 0.20121305E+03</rscale>
<asrwt>0</asrwt>
<pdfrwt beam="1">  1        2 0.28601516E-01 0.20121305E+03</pdfrwt>
<pdfrwt beam="2">  1       -2 0.33762898E-01 0.20121305E+03</pdfrwt>
<totfact> 0.15061181E+03</totfact>
</mgrwt>
</event>
<event>
 4    1  0.7245070E-001  0.1735333E+03  0.7546771E-02  0.1174212E+00
         -1   -1    0    0    0  501 -0.00000000000E+00  0.00000000000E+00  0.34811950477E+02  0.34811950477E+02  0.00000000000E+00 0.  1.
          1   -1    0    0  502    0  0.00000000000E+00 -0.00000000000E+00 -0.94032963913E+03  0.94032963913E+03  0.00000000000E+00 0. -1.
          6    1    1    2  502    0 -0.32709361014E+01  0.13194988082E+02 -0.59072064105E+03  0.61568229022E+03  0.17300000000E+03 0. -1.
         -6    1    1    2    0  501  0.32709361014E+01 -0.13194988082E+02 -0.31479704761E+03  0.35945929939E+03  0.17300000000E+03 0.  1.
<mgrwt>
<rscale>  2 0.17353330E+03</rscale>
<asrwt>0</asrwt>
<pdfrwt beam="1">  1        1 0.14466610E+00 0.17353330E+03</pdfrwt>
<pdfrwt beam="2">  1       -1 0.53556848E-02 0.17353330E+03</pdfrwt>
<totfact> 0.27916532E+03</totfact>
</mgrwt>
</event>
<event>
 4    1  0.7245070E-001  0.1795760E+03  0.7546771E-02  0.1168214E+00
          2   -1    0    0  502    0  0.00000000000E+00  0.00000000000E+00  0.31132537239E+04  0.31132537239E+04  0.00000000000E+00 0.  1.
         -2   -1    0    0    0  501 -0.00000000000E+00 -0.00000000000E+00 -0.11329683054E+02  0.11329683054E+02  0.00000000000E+00 0. -1.
          6    1    1    2  502    0 -0.48077501804E+02 -0.26628504273E+01  0.10934706506E+04  0.11081180445E+04  0.17300000000E+03 0. -1.
         -6    1    1    2    0  501  0.48077501804E+02  0.26628504273E+01  0.20084533903E+04  0.20164653625E+04  0.17300000000E+03 0.  1.
<mgrwt>
<rscale>  2 0.17957599E+03</rscale>
<asrwt>0</asrwt>
<pdfrwt beam="1">  1        2 0.47896143E+00 0.17957599E+03</pdfrwt>
<pdfrwt beam="2">  1       -2 0.17430306E-02 0.17957599E+03</pdfrwt>
<totfact> 0.17137984E+03</totfact>
</mgrwt>
</event>
<event>
 4    1  0.7245070E-001  0.2223586E+03  0.7546771E-02  0.1132137E+00
          4   -1    0    0  502    0  0.00000000000E+00  0.00000000000E+00  0.14019591441E+03  0.14019591441E+03  0.00000000000E+00 0. -1.
         -4   -1    0    0    0  501 -0.00000000000E+00 -0.00000000000E+00 -0.36410498963E+03  0.36410498963E+03  0.00000000000E+00 0.  1.
          6    1    1    2  502    0 -0.98644185423E+02 -0.98912545940E+02 -0.15663319562E+03  0.27198772956E+03  0.17300000000E+03 0.  1.
         -6    1    1    2    0  501  0.98644185423E+02  0.98912545940E+02 -0.67275879593E+02  0.23231317448E+03  0.17300000000E+03 0. -1.
<mgrwt>
<rscale>  2 0.22235865E+03</rscale>
<asrwt>0</asrwt>
<pdfrwt beam="1">  1        4 0.21568602E-01 0.22235865E+03</pdfrwt>
<pdfrwt beam="2">  1       -4 0.56016152E-01 0.22235865E+03</pdfrwt>
<totfact> 0.10865591E+02</totfact>
</mgrwt>
</event>
<event>
 4    1  0.7245070E-001  0.2820001E+03  0.7546771E-02  0.1094602E+00
          1   -1    0    0  502    0  0.00000000000E+00  0.00000000000E+00  0.11905709779E+03  0.11905709779E+03  0.00000000000E+00 0. -1.
         -1   -1    0    0    0  501 -0.00000000000E+00 -0.00000000000E+00 -0.12757584438E+04  0.12757584438E+04  0.00000000000E+00 0.  1.
          6    1    1    2  502    0  0.21508455669E+03  0.57737956805E+02 -0.96972524778E+02  0.29820749277E+03  0.17300000000E+03 0. -1.
         -6    1    1    2    0  501 -0.21508455669E+03 -0.57737956805E+02 -0.10597288213E+04  0.10966080488E+04  0.17300000000E+03 0.  1.
<mgrwt>
<rscale>  2 0.28200007E+03</rscale>
<asrwt>0</asrwt>
<pdfrwt beam="1">  1        1 0.18316476E-01 0.28200007E+03</pdfrwt>
<pdfrwt beam="2">  1       -1 0.19627053E+00 0.28200007E+03</pdfrwt>
<totfact> 0.50822335E+01</totfact>
</mgrwt>
</event>
<event>
 4    1  0.7245070E-001  0.1818362E+03  0.7546771E-02  0.1166038E+00
          1   -1    0    0  502    0  0.00000000000E+00  0.00000000000E+00  0.87974279112E+02  0.87974279112E+02  0.00000000000E+00 0. -1.
         -1   -1    0    0    0  501 -0.00000000000E+00 -0.00000000000E+00 -0.39856957397E+03  0.39856957397E+03  0.00000000000E+00 0.  1.
          6    1    1    2  502    0  0.26379404717E+02  0.49391635420E+02 -0.21338999035E+03  0.28035637076E+03  0.17300000000E+03 0.  1.
         -6    1    1    2    0  501 -0.26379404717E+02 -0.49391635420E+02 -0.97205304507E+02  0.20618748232E+03  0.17300000000E+03 0. -1.
<mgrwt>
<rscale>  2 0.18183621E+03</rscale>
<asrwt>0</asrwt>
<pdfrwt beam="1">  1        1 0.13534504E-01 0.18183621E+03</pdfrwt>
<pdfrwt beam="2">  1       -1 0.61318396E-01 0.18183621E+03</pdfrwt>
<totfact> 0.11795170E+03</totfact>
</mgrwt>
</event>
<event>
 4    1  0.7245070E-001  0.1999727E+03  0.7546771E-02  0.1149762E+00
          2   -1    0    0  502    0  0.00000000000E+00  0.00000000000E+00  0.11202687004E+04  0.11202687004E+04  0.00000000000E+00 0. -1.
         -2   -1    0    0    0  501 -0.00000000000E+00 -0.00000000000E+00 -0.49807759067E+02  0.49807759067E+02  0.00000000000E+00 0.  1.
          6    1    1    2  502    0 -0.10016995841E+03  0.51030529330E+01  0.84663649196E+03  0.86993241762E+03  0.17300000000E+03 0. -1.
         -6    1    1    2    0  501  0.10016995841E+03 -0.51030529330E+01  0.22382444939E+03  0.30014404185E+03  0.17300000000E+03 0.  1.
<mgrwt>
<rscale>  2 0.19997265E+03</rscale>
<asrwt>0</asrwt>
<pdfrwt beam="1">  1        2 0.17234901E+00 0.19997265E+03</pdfrwt>
<pdfrwt beam="2">  1       -2 0.76627330E-02 0.19997265E+03</pdfrwt>
<totfact> 0.22424680E+03</totfact>
</mgrwt>
</event>
<event>
 4    1  0.7245070E-001  0.2510360E+03  0.7546771E-02  0.1112652E+00
         -1   -1    0    0    0  501 -0.00000000000E+00  0.00000000000E+00  0.15138501734E+03  0.15138501734E+03  0.00000000000E+00 0. -1.
          1   -1    0    0  502    0  0.00000000000E+00 -0.00000000000E+00 -0.46466226394E+03  0.46466226394E+03  0.00000000000E+00 0.  1.
          6    1    1    2  502    0  0.58801468940E+02 -0.17214079989E+03 -0.57248497652E+02  0.25748098613E+03  0.17300000000E+03 0. -1.
         -6    1    1    2    0  501 -0.58801468940E+02  0.17214079989E+03 -0.25602874895E+03  0.35856629516E+03  0.17300000000E+03 0. -1.
<mgrwt>
<rscale>  2 0.25103599E+03</rscale>
<asrwt>0</asrwt>
<pdfrwt beam="1">  1        1 0.71486500E-01 0.25103599E+03</pdfrwt>
<pdfrwt beam="2">  1       -1 0.23290003E-01 0.25103599E+03</pdfrwt>
<totfact> 0.78298239E+02</totfact>
</mgrwt>
</event>
<event>
 4    1  0.7245070E-001  0.2109907E+03  0.7546771E-02  0.1140784E+00
          3   -1    0    0  502    0  0.00000000000E+00  0.00000000000E+00  0.85617809668E+03  0.85617809668E+03  0.00000000000E+00 0. -1.
         -3   -1    0    0    0  501 -0.00000000000E+00 -0.00000000000E+00 -0.53230943094E+02  0.53230943094E+02  0.00000000000E+00 0.  1.
          6    1    1    2  502    0 -0.10494609153E+03 -0.59786102838E+02  0.33219004881E+03  0.39353181415E+03  0.17300000000E+03 0. -1.
         -6    1    1    2    0  501  0.10494609153E+03  0.59786102838E+02  0.47075710477E+03  0.51587722562E+03  0.17300000000E+03 0.  1.
<mgrwt>
<rscale>  2 0.21099066E+03</rscale>
<asrwt>0</asrwt>
<pdfrwt beam="1">  1        3 0.13171970E+00 0.21099066E+03</pdfrwt>
<pdfrwt beam="2">  1       -3 0.81893765E-02 0.21099066E+03</pdfrwt>
<totfact> 0.11942192E+02</totfact>
</mgrwt>
</event>
<event>
 4    1  0.7245070E-001  0.1940172E+03  0.7546771E-02  0.1154887E+00
         -1   -1    0    0    0  501 -0.00000000000E+00  0.00000000000E+00  0.12420170012E+04  0.12420170012E+04  0.00000000000E+00 0. -1.
          1   -1    0    0  502    0  0.00000000000E+00 -0.00000000000E+00 -0.30371381514E+02  0.30371381514E+02  0.00000000000E+00 0.  1.
          6    1    1    2  502    0 -0.78219010239E+02 -0.39943443899E+02  0.63495188910E+03  0.66393267260E+03  0.17300000000E+03 0.  1.
         -6    1    1    2    0  501  0.78219010239E+02  0.39943443899E+02  0.57669373059E+03  0.60845571012E+03  0.17300000000E+03 0. -1.
<mgrwt>
<rscale>  2 0.19401725E+03</rscale>
<asrwt>0</asrwt>
<pdfrwt beam="1">  1        1 0.46725212E-02 0.19401725E+03</pdfrwt>
<pdfrwt beam="2">  1       -1 0.19107950E+00 0.19401725E+03</pdfrwt>
<totfact> 0.35127965E+02</totfact>
</mgrwt>
</event>
<event>
 4    1  0.7245070E-001  0.2414493E+03  0.7546771E-02  0.1118831E+00
          2   -1    0    0  502    0  0.00000000000E+00  0.00000000000E+00  0.21299669294E+04  0.21299669294E+04  0.00000000000E+00 0.  1.
         -2   -1    0    0    0  501 -0.00000000000E+00 -0.00000000000E+00 -0.28363314304E+02  0.28363314304E+02  0.00000000000E+00 0. -1.
          6    1    1    2  502    0 -0.14564723583E+03  0.84591086506E+02  0.84887508381E+03  0.88254556660E+03  0.17300000000E+03 0.  1.
         -6    1    1    2    0  501  0.14564723583E+03 -0.84591086506E+02  0.12527285313E+04  0.12757846771E+04  0.17300000000E+03 0. -1.
<mgrwt>
<rscale>  2 0.24144931E+03</rscale>
<asrwt>0</asrwt>
<pdfrwt beam="1">  1        2 0.32768710E+00 0.24144931E+03</pdfrwt>
<pdfrwt beam="2">  1       -2 0.43635885E-02 0.24144931E+03</pdfrwt>
<totfact> 0.15321372E+03</totfact>
</mgrwt>
</event>
<event>
 4    1  0.7245070E-001  0.3102634E+03  0.7546771E-02  0.1080220E+00
          2   -1    0    0  502    0  0.00000000000E+00  0.00000000000E+00  0.16628544520E+04  0.16628544520E+04  0.00000000000E+00 0.  1.
         -2   -1    0    0    0  501 -0.00000000000E+00 -0.00000000000E+00 -0.10340800685E+03  0.10340800685E+03  0.00000000000E+00 0. -1.
          6    1    1    2  502    0  0.10806470518E+03 -0.23378704342E+03  0.19380403878E+03  0.36581876335E+03  0.17300000000E+03 0. -1.
         -6    1    1    2    0  501 -0.10806470518E+03  0.23378704342E+03  0.13656424064E+04  0.14004436955E+04  0.17300000000E+03 0.  1.
<mgrwt>
<rscale>  2 0.31026338E+03</rscale>
<asrwt>0</asrwt>
<pdfrwt beam="1">  1        2 0.25582374E+00 0.31026338E+03</pdfrwt>
<pdfrwt beam="2">  1       -2 0.15908925E-01 0.31026338E+03</pdfrwt>
<totfact> 0.34624670E+02</totfact>
</mgrwt>
</event>
<event>
 4    1  0.7245070E-001  0.2381452E+03  0.7546771E-02  0.1121035E+00
          2   -1    0    0  502    0  0.00000000000E+00  0.00000000000E+00  0.41486269687E+03  0.41486269687E+03  0.00000000000E+00 0.  1.
         -2   -1    0    0    0  501 -0.00000000000E+00 -0.00000000000E+00 -0.15672852198E+03  0.15672852198E+03  0.00000000000E+00 0. -1.
          6    1    1    2  502    0 -0.15544684883E+03 -0.51189988243E+02  0.26909833586E+02  0.23966075367E+03  0.17300000000E+03 0. -1.
         -6    1    1    2    0  501  0.15544684883E+03  0.51189988243E+02  0.23122434131E+03  0.33193046519E+03  0.17300000000E+03 0.  1.
<mgrwt>
<rscale>  2 0.23814520E+03</rscale>
<asrwt>0</asrwt>
<pdfrwt beam="1">  1        2 0.63825029E-01 0.23814520E+03</pdfrwt>
<pdfrwt beam="2">  1       -2 0.24112081E-01 0.23814520E+03</pdfrwt>
<totfact> 0.11616139E+03</totfact>
</mgrwt>
</event>
<event>
 4    1  0.7245070E-001  0.1802799E+03  0.7546771E-02  0.1167532E+00
          1   -1    0    0  502    0  0.00000000000E+00  0.00000000000E+00  0.72471954991E+02  0.72471954991E+02  0.00000000000E+00 0.  1.
         -1   -1    0    0    0  501 -0.00000000000E+00 -0.00000000000E+00 -0.45696729698E+03  0.45696729698E+03  0.00000000000E+00 0. -1.
          6    1    1    2  502    0 -0.28671561215E+02 -0.41830284364E+02 -0.22836527117E+03  0.29094935674E+03  0.17300000000E+03 0. -1.
         -6    1    1    2    0  501  0.28671561215E+02  0.41830284364E+02 -0.15613007082E+03  0.23848989523E+03  0.17300000000E+03 0.  1.
<mgrwt>
<rscale>  2 0.18027987E+03</rscale>
<asrwt>0</asrwt>
<pdfrwt beam="1">  1        1 0.11149532E-01 0.18027987E+03</pdfrwt>
<pdfrwt beam="2">  1       -1 0.70302661E-01 0.18027987E+03</pdfrwt>
<totfact> 0.11660743E+03</totfact>
</mgrwt>
</event>
<event>
 4    1  0.7245070E-001  0.2087353E+03  0.7546771E-02  0.1142571E+00
          2   -1    0    0  502    0  0.00000000000E+00  0.00000000000E+00  0.12554091071E+03  0.12554091071E+03  0.00000000000E+00 0.  1.
         -2   -1    0    0    0  501 -0.00000000000E+00 -0.00000000000E+00 -0.35704168089E+03  0.35704168089E+03  0.00000000000E+00 0. -1.
          6    1    1    2  502    0 -0.74363589569E+02 -0.90063856939E+02 -0.15609142327E+03  0.26064338510E+03  0.17300000000E+03 0. -1.
         -6    1    1    2    0  501  0.74363589569E+02  0.90063856939E+02 -0.75409346905E+02  0.22193920650E+03  0.17300000000E+03 0. -1.
<mgrwt>
<rscale>  2 0.20873534E+03</rscale>
<asrwt>0</asrwt>
<pdfrwt beam="1">  1        2 0.19313986E-01 0.20873534E+03</pdfrwt>
<pdfrwt beam="2">  1       -2 0.54929489E-01 0.20873534E+03</pdfrwt>
<totfact> 0.91313068E+02</totfact>
</mgrwt>
</event>
<event>
 4    1  0.7245070E-001  0.2253332E+03  0.7546771E-02  0.1129968E+00
          2   -1    0    0  502    0  0.00000000000E+00  0.00000000000E+00  0.24211863894E+04  0.24211863894E+04  0.00000000000E+00 0.  1.
         -2   -1    0    0    0  501 -0.00000000000E+00 -0.00000000000E+00 -0.21370250148E+02  0.21370250148E+02  0.00000000000E+00 0. -1.
          6    1    1    2  502    0 -0.14139965176E+03 -0.29192245878E+02  0.10330089743E+04  0.10572996688E+04  0.17300000000E+03 0.  1.
         -6    1    1    2    0  501  0.14139965176E+03  0.29192245878E+02  0.13668071650E+04  0.13852569707E+04  0.17300000000E+03 0. -1.
<mgrwt>
<rscale>  2 0.22533319E+03</rscale>
<asrwt>0</asrwt>
<pdfrwt beam="1">  1        2 0.37249000E+00 0.22533319E+03</pdfrwt>
<pdfrwt beam="2">  1       -2 0.32877327E-02 0.22533319E+03</pdfrwt>
<totfact> 0.16430030E+03</totfact>
</mgrwt>
</event>
<event>
 4    1  0.7245070E-001  0.3027836E+03  0.7546771E-02  0.1083857E+00
         -4   -1    0    0    0  501 -0.00000000000E+00  0.00000000000E+00  0.21934684008E+03  0.21934684008E+03  0.00000000000E+00 0.  1.
          4   -1    0    0  502    0  0.00000000000E+00 -0.00000000000E+00 -0.47828239993E+03  0.47828239993E+03  0.00000000000E+00 0. -1.
          6    1    1    2  502    0  0.20450545583E+03  0.14116104799E+03 -0.25334641712E+03  0.39479403491E+03  0.17300000000E+03 0. -1.
         -6    1    1    2    0  501 -0.20450545583E+03 -0.14116104799E+03 -0.55891427272E+01  0.30283520510E+03  0.17300000000E+03 0.  1.
<mgrwt>
<rscale>  2 0.30278362E+03</rscale>
<asrwt>0</asrwt>
<pdfrwt beam="1">  1        4 0.73581906E-01 0.30278362E+03</pdfrwt>
<pdfrwt beam="2">  1       -4 0.33745669E-01 0.30278362E+03</pdfrwt>
<totfact> 0.26810649E+01</totfact>
</mgrwt>
</event>
<event>
 4    1  0.7245070E-001  0.5107017E+03  0.7546771E-02  0.1011023E+00
          2   -1    0    0  502    0  0.00000000000E+00  0.00000000000E+00  0.11740246052E+04  0.11740246052E+04  0.00000000000E+00 0.  1.
         -2   -1    0    0    0  501 -0.00000000000E+00 -0.00000000000E+00 -0.26007349136E+03  0.26007349136E+03  0.00000000000E+00 0. -1.
          6    1    1    2  502    0 -0.38817532275E+03 -0.28320861077E+03  0.73076873731E+03  0.89153751791E+03  0.17300000000E+03 0.  1.
         -6    1    1    2    0  501  0.38817532275E+03  0.28320861077E+03  0.18318237650E+03  0.54256057862E+03  0.17300000000E+03 0. -1.
<mgrwt>
<rscale>  2 0.51070167E+03</rscale>
<asrwt>0</asrwt>
<pdfrwt beam="1">  1        2 0.18061917E+00 0.51070167E+03</pdfrwt>
<pdfrwt beam="2">  1       -2 0.40011307E-01 0.51070167E+03</pdfrwt>
<totfact> 0.12029219E+02</totfact>
</mgrwt>
</event>
<event>
 4    1  0.7245070E-001  0.2095331E+03  0.7546771E-02  0.1141936E+00
          1   -1    0    0  502    0  0.00000000000E+00  0.00000000000E+00  0.26714191051E+04  0.26714191051E+04  0.00000000000E+00 0.  1.
         -1   -1    0    0    0  501 -0.00000000000E+00 -0.00000000000E+00 -0.18898392885E+02  0.18898392885E+02  0.00000000000E+00 0. -1.
          6    1    1    2  502    0 -0.11642378350E+03 -0.20508972321E+02  0.84058099795E+03  0.86630279316E+03  0.17300000000E+03 0. -1.
         -6    1    1    2    0  501  0.11642378350E+03  0.20508972321E+02  0.18119397142E+04  0.18240147048E+04  0.17300000000E+03 0.  1.
<mgrwt>
<rscale>  2 0.20953309E+03</rscale>
<asrwt>0</asrwt>
<pdfrwt beam="1">  1        1 0.41098725E+00 0.20953309E+03</pdfrwt>
<pdfrwt beam="2">  1       -1 0.29074472E-02 0.20953309E+03</pdfrwt>
<totfact> 0.48646580E+02</totfact>
</mgrwt>
</event>
<event>
 4    1  0.7245070E-001  0.1980052E+03  0.7546771E-02  0.1151433E+00
         -2   -1    0    0    0  501 -0.00000000000E+00  0.00000000000E+00  0.14567817297E+02  0.14567817297E+02  0.00000000000E+00 0.  1.
          2   -1    0    0  502    0  0.00000000000E+00 -0.00000000000E+00 -0.27021455928E+04  0.27021455928E+04  0.00000000000E+00 0. -1.
          6    1    1    2  502    0 -0.90584519900E+02  0.32733584265E+02 -0.12576437400E+04  0.12731354286E+04  0.17300000000E+03 0. -1.
         -6    1    1    2    0  501  0.90584519900E+02 -0.32733584265E+02 -0.14299340356E+04  0.14435779816E+04  0.17300000000E+03 0. -1.
<mgrwt>
<rscale>  2 0.19800516E+03</rscale>
<asrwt>0</asrwt>
<pdfrwt beam="1">  1        2 0.41571464E+00 0.19800516E+03</pdfrwt>
<pdfrwt beam="2">  1       -2 0.22412030E-02 0.19800516E+03</pdfrwt>
<totfact> 0.20403555E+03</totfact>
</mgrwt>
</event>
<event>
 4    1  0.7245070E-001  0.1914523E+03  0.7546771E-02  0.1157158E+00
         -2   -1    0    0    0  501 -0.00000000000E+00  0.00000000000E+00  0.29902548936E+02  0.29902548936E+02  0.00000000000E+00 0.  1.
          2   -1    0    0  502    0  0.00000000000E+00 -0.00000000000E+00 -0.13503820348E+04  0.13503820348E+04  0.00000000000E+00 0. -1.
          6    1    1    2  502    0 -0.62722759873E+02 -0.52828419846E+02 -0.86987800235E+03  0.89069732543E+03  0.17300000000E+03 0. -1.
         -6    1    1    2    0  501  0.62722759873E+02  0.52828419846E+02 -0.45060148347E+03  0.48958725826E+03  0.17300000000E+03 0.  1.
<mgrwt>
<rscale>  2 0.19145231E+03</rscale>
<asrwt>0</asrwt>
<pdfrwt beam="1">  1        2 0.20775109E+00 0.19145231E+03</pdfrwt>
<pdfrwt beam="2">  1       -2 0.46003919E-02 0.19145231E+03</pdfrwt>
<totfact> 0.36400446E+03</totfact>
</mgrwt>
</event>
<event>
 4    1  0.7245070E-001  0.1851474E+03  0.7546771E-02  0.1162912E+00
          2   -1    0    0  502    0  0.00000000000E+00  0.00000000000E+00  0.24711301039E+04  0.24711301039E+04  0.00000000000E+00 0.  1.
         -2   -1    0    0    0  501 -0.00000000000E+00 -0.00000000000E+00 -0.14284030354E+02  0.14284030354E+02  0.00000000000E+00 0. -1.
          6    1    1    2  502    0  0.76479258816E+01 -0.65513962414E+02  0.14394785186E+04  0.14513366169E+04  0.17300000000E+03 0.  1.
         -6    1    1    2    0  501 -0.76479258816E+01  0.65513962414E+02  0.10173675550E+04  0.10340775174E+04  0.17300000000E+03 0. -1.
<mgrwt>
<rscale>  2 0.18514743E+03</rscale>
<asrwt>0</asrwt>
<pdfrwt beam="1">  1        2 0.38017352E+00 0.18514743E+03</pdfrwt>
<pdfrwt beam="2">  1       -2 0.21975451E-02 0.18514743E+03</pdfrwt>
<totfact> 0.28140781E+03</totfact>
</mgrwt>
</event>
<event>
 4    1  0.7245070E-001  0.1961642E+03  0.7546771E-02  0.1153016E+00
         -1   -1    0    0    0  501 -0.00000000000E+00  0.00000000000E+00  0.39430877152E+02  0.39430877152E+02  0.00000000000E+00 0.  1.
          1   -1    0    0  502    0  0.00000000000E+00 -0.00000000000E+00 -0.10182262360E+04  0.10182262360E+04  0.00000000000E+00 0. -1.
          6    1    1    2  502    0 -0.57223460149E+02  0.72641999864E+02 -0.59722397994E+03  0.62861503860E+03  0.17300000000E+03 0.  1.
         -6    1    1    2    0  501  0.57223460149E+02 -0.72641999864E+02 -0.38157137890E+03  0.42904207455E+03  0.17300000000E+03 0.  1.
<mgrwt>
<rscale>  2 0.19616418E+03</rscale>
<asrwt>0</asrwt>
<pdfrwt beam="1">  1        1 0.15665020E+00 0.19616418E+03</pdfrwt>
<pdfrwt beam="2">  1       -1 0.60662882E-02 0.19616418E+03</pdfrwt>
<totfact> 0.20297707E+03</totfact>
</mgrwt>
</event>
<event>
 4    1  0.7245070E-001  0.2057780E+03  0.7546771E-02  0.1144954E+00
         -2   -1    0    0    0  501 -0.00000000000E+00  0.00000000000E+00  0.23674419929E+03  0.23674419929E+03  0.00000000000E+00 0. -1.
          2   -1    0    0  502    0  0.00000000000E+00 -0.00000000000E+00 -0.19442990477E+03  0.19442990477E+03  0.00000000000E+00 0.  1.
          6    1    1    2  502    0  0.93136990349E+02  0.61164439583E+02 -0.39846173367E+02  0.20960034631E+03  0.17300000000E+03 0.  1.
         -6    1    1    2    0  501 -0.93136990349E+02 -0.61164439583E+02  0.82160467883E+02  0.22157375775E+03  0.17300000000E+03 0.  1.
<mgrwt>
<rscale>  2 0.20577801E+03</rscale>
<asrwt>0</asrwt>
<pdfrwt beam="1">  1        2 0.29912293E-01 0.20577801E+03</pdfrwt>
<pdfrwt beam="2">  1       -2 0.36422185E-01 0.20577801E+03</pdfrwt>
<totfact> 0.12457150E+03</totfact>
</mgrwt>
</event>
<event>
 4    1  0.7245070E-001  0.2981473E+03  0.7546771E-02  0.1086170E+00
          1   -1    0    0  502    0  0.00000000000E+00  0.00000000000E+00  0.52900345813E+03  0.52900345813E+03  0.00000000000E+00 0.  1.
         -1   -1    0    0    0  501 -0.00000000000E+00 -0.00000000000E+00 -0.17004050261E+03  0.17004050261E+03  0.00000000000E+00 0. -1.
          6    1    1    2  502    0  0.21459641267E+03  0.11362743440E+03  0.14153574971E+03  0.33003663831E+03  0.17300000000E+03 0.  1.
         -6    1    1    2    0  501 -0.21459641267E+03 -0.11362743440E+03  0.21742720581E+03  0.36900732243E+03  0.17300000000E+03 0. -1.
<mgrwt>
<rscale>  2 0.29814730E+03</rscale>
<asrwt>0</asrwt>
<pdfrwt beam="1">  1        1 0.81385146E-01 0.29814730E+03</pdfrwt>
<pdfrwt beam="2">  1       -1 0.26160078E-01 0.29814730E+03</pdfrwt>
<totfact> 0.54190495E+02</totfact>
</mgrwt>
</event>
<event>
 4    1  0.7245070E-001  0.1950807E+03  0.7546771E-02  0.1153957E+00
          1   -1    0    0  502    0  0.00000000000E+00  0.00000000000E+00  0.56100378470E+03  0.56100378470E+03  0.00000000000E+00 0.  1.
         -1   -1    0    0    0  501 -0.00000000000E+00 -0.00000000000E+00 -0.11788083186E+03  0.11788083186E+03  0.00000000000E+00 0. -1.
          6    1    1    2  502    0 -0.43893020992E+01 -0.90045681797E+02  0.44272940589E+03  0.48380349071E+03  0.17300000000E+03 0.  1.
         -6    1    1    2    0  501  0.43893020992E+01  0.90045681797E+02  0.39354694793E+00  0.19508112585E+03  0.17300000000E+03 0. -1.
<mgrwt>
<rscale>  2 0.19508073E+03</rscale>
<asrwt>0</asrwt>
<pdfrwt beam="1">  1        1 0.86308273E-01 0.19508073E+03</pdfrwt>
<pdfrwt beam="2">  1       -1 0.18135513E-01 0.19508073E+03</pdfrwt>
<totfact> 0.91556540E+02</totfact>
</mgrwt>
</event>
<event>
 4    1  0.7245070E-001  0.1778428E+03  0.7546771E-02  0.1169907E+00
         -1   -1    0    0    0  501 -0.00000000000E+00  0.00000000000E+00  0.65859391732E+03  0.65859391732E+03  0.00000000000E+00 0.  1.
          1   -1    0    0  502    0  0.00000000000E+00 -0.00000000000E+00 -0.50419756298E+02  0.50419756298E+02  0.00000000000E+00 0. -1.
          6    1    1    2  502    0 -0.24853860608E+01  0.41144796490E+02  0.38136919292E+03  0.42079749611E+03  0.17300000000E+03 0. -1.
         -6    1    1    2    0  501  0.24853860608E+01 -0.41144796490E+02  0.22680496810E+03  0.28821617751E+03  0.17300000000E+03 0. -1.
<mgrwt>
<rscale>  2 0.17784283E+03</rscale>
<asrwt>0</asrwt>
<pdfrwt beam="1">  1        1 0.77568861E-02 0.17784283E+03</pdfrwt>
<pdfrwt beam="2">  1       -1 0.10132213E+00 0.17784283E+03</pdfrwt>
<totfact> 0.88107022E+02</totfact>
</mgrwt>
</event>
<event>
 4    1  0.7245070E-001  0.2158785E+03  0.7546771E-02  0.1136994E+00
          2   -1    0    0  502    0  0.00000000000E+00  0.00000000000E+00  0.57531994636E+03  0.57531994636E+03  0.00000000000E+00 0. -1.
         -2   -1    0    0    0  501 -0.00000000000E+00 -0.00000000000E+00 -0.96095949548E+02  0.96095949548E+02  0.00000000000E+00 0.  1.
          6    1    1    2  502    0  0.12912984570E+03  0.10987544687E+00  0.10657453773E+03  0.24075228185E+03  0.17300000000E+03 0.  1.
         -6    1    1    2    0  501 -0.12912984570E+03 -0.10987544687E+00  0.37264945908E+03  0.43066361406E+03  0.17300000000E+03 0. -1.
<mgrwt>
<rscale>  2 0.21587851E+03</rscale>
<asrwt>0</asrwt>
<pdfrwt beam="1">  1        2 0.88510759E-01 0.21587851E+03</pdfrwt>
<pdfrwt beam="2">  1       -2 0.14783993E-01 0.21587851E+03</pdfrwt>
<totfact> 0.18493940E+03</totfact>
</mgrwt>
</event>
<event>
 4    1  0.7245070E-001  0.1878271E+03  0.7546771E-02  0.1160436E+00
         -2   -1    0    0    0  501 -0.00000000000E+00  0.00000000000E+00  0.17272643539E+02  0.17272643539E+02  0.00000000000E+00 0.  1.
          2   -1    0    0  502    0  0.00000000000E+00 -0.00000000000E+00 -0.20931852160E+04  0.20931852160E+04  0.00000000000E+00 0. -1.
          6    1    1    2  502    0  0.72375077630E+02 -0.10577277827E+02 -0.87372013518E+03  0.89368109820E+03  0.17300000000E+03 0.  1.
         -6    1    1    2    0  501 -0.72375077630E+02  0.10577277827E+02 -0.12021924372E+04  0.12167767613E+04  0.17300000000E+03 0. -1.
<mgrwt>
<rscale>  2 0.18782713E+03</rscale>
<asrwt>0</asrwt>
<pdfrwt beam="1">  1        2 0.32202833E+00 0.18782713E+03</pdfrwt>
<pdfrwt beam="2">  1       -2 0.26573311E-02 0.18782713E+03</pdfrwt>
<totfact> 0.33707267E+03</totfact>
</mgrwt>
</event>
<event>
 4    1  0.7245070E-001  0.2220037E+03  0.7546771E-02  0.1132398E+00
          1   -1    0    0  502    0  0.00000000000E+00  0.00000000000E+00  0.14460702595E+04  0.14460702595E+04  0.00000000000E+00 0. -1.
         -1   -1    0    0    0  501 -0.00000000000E+00 -0.00000000000E+00 -0.35637127346E+02  0.35637127346E+02  0.00000000000E+00 0.  1.
          6    1    1    2  502    0 -0.13076471593E+03 -0.47510330820E+02  0.85995521905E+03  0.88814898595E+03  0.17300000000E+03 0. -1.
         -6    1    1    2    0  501  0.13076471593E+03  0.47510330820E+02  0.55047791314E+03  0.59355840093E+03  0.17300000000E+03 0.  1.
<mgrwt>
<rscale>  2 0.22200370E+03</rscale>
<asrwt>0</asrwt>
<pdfrwt beam="1">  1        1 0.22247230E+00 0.22200370E+03</pdfrwt>
<pdfrwt beam="2">  1       -1 0.54826361E-02 0.22200370E+03</pdfrwt>
<totfact> 0.11939150E+03</totfact>
</mgrwt>
</event>
<event>
 4    1  0.7245070E-001  0.2438888E+03  0.7546771E-02  0.1117229E+00
         -2   -1    0    0    0  501 -0.00000000000E+00  0.00000000000E+00  0.22822450557E+03  0.22822450557E+03  0.00000000000E+00 0. -1.
          2   -1    0    0  502    0  0.00000000000E+00 -0.00000000000E+00 -0.27413193564E+03  0.27413193564E+03  0.00000000000E+00 0.  1.
          6    1    1    2  502    0  0.12386683389E+03 -0.11920473401E+03 -0.78701521483E+02  0.25627268804E+03  0.17300000000E+03 0.  1.
         -6    1    1    2    0  501 -0.12386683389E+03  0.11920473401E+03  0.32794091413E+02  0.24608375318E+03  0.17300000000E+03 0. -1.
<mgrwt>
<rscale>  2 0.24388883E+03</rscale>
<asrwt>0</asrwt>
<pdfrwt beam="1">  1        2 0.42174144E-01 0.24388883E+03</pdfrwt>
<pdfrwt beam="2">  1       -2 0.35111462E-01 0.24388883E+03</pdfrwt>
<totfact> 0.92124854E+02</totfact>
</mgrwt>
</event>
<event>
 4    1  0.7245070E-001  0.1790758E+03  0.7546771E-02  0.1168700E+00
          2   -1    0    0  502    0  0.00000000000E+00  0.00000000000E+00  0.19110521841E+03  0.19110521841E+03  0.00000000000E+00 0.  1.
         -2   -1    0    0    0  501 -0.00000000000E+00 -0.00000000000E+00 -0.20828008653E+03  0.20828008653E+03  0.00000000000E+00 0. -1.
          6    1    1    2  502    0  0.46224137435E+02  0.15775381385E+01 -0.96619150310E+02  0.20347830281E+03  0.17300000000E+03 0. -1.
         -6    1    1    2    0  501 -0.46224137435E+02 -0.15775381385E+01  0.79444282195E+02  0.19590700213E+03  0.17300000000E+03 0.  1.
<mgrwt>
<rscale>  2 0.17907585E+03</rscale>
<asrwt>0</asrwt>
<pdfrwt beam="1">  1        2 0.29400803E-01 0.17907585E+03</pdfrwt>
<pdfrwt beam="2">  1       -2 0.32043090E-01 0.17907585E+03</pdfrwt>
<totfact> 0.16031526E+03</totfact>
</mgrwt>
</event>
<event>
 4    1  0.7245070E-001  0.1815135E+03  0.7546771E-02  0.1166346E+00
         -3   -1    0    0    0  501 -0.00000000000E+00  0.00000000000E+00  0.13325015017E+03  0.13325015017E+03  0.00000000000E+00 0.  1.
          3   -1    0    0  502    0  0.00000000000E+00 -0.00000000000E+00 -0.47813630565E+03  0.47813630565E+03  0.00000000000E+00 0. -1.
          6    1    1    2  502    0  0.54497304069E+02  0.69417231658E+01  0.39979989421E+02  0.18586431402E+03  0.17300000000E+03 0.  1.
         -6    1    1    2    0  501 -0.54497304069E+02 -0.69417231658E+01 -0.38486614490E+03  0.42552214180E+03  0.17300000000E+03 0. -1.
<mgrwt>
<rscale>  2 0.18151348E+03</rscale>
<asrwt>0</asrwt>
<pdfrwt beam="1">  1        3 0.73559431E-01 0.18151348E+03</pdfrwt>
<pdfrwt beam="2">  1       -3 0.20500023E-01 0.18151348E+03</pdfrwt>
<totfact> 0.93124672E+01</totfact>
</mgrwt>
</event>
<event>
 4    1  0.7245070E-001  0.2544720E+03  0.7546771E-02  0.1110511E+00
          1   -1    0    0  502    0  0.00000000000E+00  0.00000000000E+00  0.33272745472E+03  0.33272745472E+03  0.00000000000E+00 0.  1.
         -1   -1    0    0    0  501 -0.00000000000E+00 -0.00000000000E+00 -0.25111098587E+03  0.25111098587E+03  0.00000000000E+00 0. -1.
          6    1    1    2  502    0 -0.14069016777E+03  0.12261028915E+03  0.17926449732E+03  0.31127442283E+03  0.17300000000E+03 0. -1.
         -6    1    1    2    0  501  0.14069016777E+03 -0.12261028915E+03 -0.97648028470E+02  0.27256401776E+03  0.17300000000E+03 0. -1.
<mgrwt>
<rscale>  2 0.25447201E+03</rscale>
<asrwt>0</asrwt>
<pdfrwt beam="1">  1        1 0.51188839E-01 0.25447201E+03</pdfrwt>
<pdfrwt beam="2">  1       -1 0.38632459E-01 0.25447201E+03</pdfrwt>
<totfact> 0.50716052E+02</totfact>
</mgrwt>
</event>
<event>
 4    1  0.7245070E-001  0.1838011E+03  0.7546771E-02  0.1164174E+00
         -2   -1    0    0    0  501 -0.00000000000E+00  0.00000000000E+00  0.54746499075E+02  0.54746499075E+02  0.00000000000E+00 0. -1.
          2   -1    0    0  502    0  0.00000000000E+00 -0.00000000000E+00 -0.66888402877E+03  0.66888402877E+03  0.00000000000E+00 0.  1.
          6    1    1    2  502    0 -0.49854948969E+02 -0.36991106537E+02 -0.20637518170E+03  0.27635769126E+03  0.17300000000E+03 0. -1.
         -6    1    1    2    0  501  0.49854948969E+02  0.36991106537E+02 -0.40776234800E+03  0.44727283658E+03  0.17300000000E+03 0.  1.
<mgrwt>
<rscale>  2 0.18380114E+03</rscale>
<asrwt>0</asrwt>
<pdfrwt beam="1">  1        2 0.10290523E+00 0.18380114E+03</pdfrwt>
<pdfrwt beam="2">  1       -2 0.84225385E-02 0.18380114E+03</pdfrwt>
<totfact> 0.38054673E+03</totfact>
</mgrwt>
</event>
<event>
 4    1  0.7245070E-001  0.2990984E+03  0.7546771E-02  0.1085692E+00
         -1   -1    0    0    0  501 -0.00000000000E+00  0.00000000000E+00  0.40553798496E+03  0.40553798496E+03  0.00000000000E+00 0.  1.
          1   -1    0    0  502    0  0.00000000000E+00 -0.00000000000E+00 -0.23730118243E+03  0.23730118243E+03  0.00000000000E+00 0. -1.
          6    1    1    2  502    0 -0.10989334704E+03 -0.21784014367E+03  0.16939970073E+03  0.34373846821E+03  0.17300000000E+03 0. -1.
         -6    1    1    2    0  501  0.10989334704E+03  0.21784014367E+03 -0.11628982132E+01  0.29910069918E+03  0.17300000000E+03 0.  1.
<mgrwt>
<rscale>  2 0.29909844E+03</rscale>
<asrwt>0</asrwt>
<pdfrwt beam="1">  1        1 0.36507874E-01 0.29909844E+03</pdfrwt>
<pdfrwt beam="2">  1       -1 0.62390459E-01 0.29909844E+03</pdfrwt>
<totfact> 0.31916138E+02</totfact>
</mgrwt>
</event>
<event>
 4    1  0.7245070E-001  0.1811954E+03  0.7546771E-02  0.1166651E+00
          2   -1    0    0  502    0  0.00000000000E+00  0.00000000000E+00  0.11369375067E+03  0.11369375067E+03  0.00000000000E+00 0.  1.
         -2   -1    0    0    0  501 -0.00000000000E+00 -0.00000000000E+00 -0.32990929509E+03  0.32990929509E+03  0.00000000000E+00 0. -1.
          6    1    1    2  502    0  0.66369046072E+01  0.53467109806E+02 -0.29787276009E+02  0.18362750923E+03  0.17300000000E+03 0.  1.
         -6    1    1    2    0  501 -0.66369046072E+01 -0.53467109806E+02 -0.18642826840E+03  0.25997553653E+03  0.17300000000E+03 0. -1.
<mgrwt>
<rscale>  2 0.18119542E+03</rscale>
<asrwt>0</asrwt>
<pdfrwt beam="1">  1        2 0.17491347E-01 0.18119542E+03</pdfrwt>
<pdfrwt beam="2">  1       -2 0.50755275E-01 0.18119542E+03</pdfrwt>
<totfact> 0.11959266E+03</totfact>
</mgrwt>
</event>
<event>
 4    1  0.7245070E-001  0.2466628E+03  0.7546771E-02  0.1115432E+00
          2   -1    0    0  502    0  0.00000000000E+00  0.00000000000E+00  0.86987083192E+03  0.86987083192E+03  0.00000000000E+00 0. -1.
         -2   -1    0    0    0  501 -0.00000000000E+00 -0.00000000000E+00 -0.11523350682E+03  0.11523350682E+03  0.00000000000E+00 0.  1.
          6    1    1    2  502    0 -0.87689903761E+02  0.15239421763E+03  0.68610647234E+03  0.72909849004E+03  0.17300000000E+03 0. -1.
         -6    1    1    2    0  501  0.87689903761E+02 -0.15239421763E+03  0.68530852753E+02  0.25600584870E+03  0.17300000000E+03 0.  1.
<mgrwt>
<rscale>  2 0.24666276E+03</rscale>
<asrwt>0</asrwt>
<pdfrwt beam="1">  1        2 0.13382628E+00 0.24666276E+03</pdfrwt>
<pdfrwt beam="2">  1       -2 0.17728232E-01 0.24666276E+03</pdfrwt>
<totfact> 0.82479415E+02</totfact>
</mgrwt>
</event>
<event>
 4    1  0.7245070E-001  0.2155559E+03  0.7546771E-02  0.1137240E+00
          2   -1    0    0  502    0  0.00000000000E+00  0.00000000000E+00  0.22660645769E+03  0.22660645769E+03  0.00000000000E+00 0.  1.
         -2   -1    0    0    0  501 -0.00000000000E+00 -0.00000000000E+00 -0.26660837417E+03  0.26660837417E+03  0.00000000000E+00 0. -1.
          6    1    1    2  502    0 -0.12801241336E+03  0.12172984098E+02 -0.13850494517E+03  0.25621861633E+03  0.17300000000E+03 0. -1.
         -6    1    1    2    0  501  0.12801241336E+03 -0.12172984098E+02  0.98503028688E+02  0.23699621553E+03  0.17300000000E+03 0.  1.
<mgrwt>
<rscale>  2 0.21555593E+03</rscale>
<asrwt>0</asrwt>
<pdfrwt beam="1">  1        2 0.34862532E-01 0.21555593E+03</pdfrwt>
<pdfrwt beam="2">  1       -2 0.41016673E-01 0.21555593E+03</pdfrwt>
<totfact> 0.84213275E+02</totfact>
</mgrwt>
</event>
<event>
 4    1  0.7245070E-001  0.2047155E+03  0.7546771E-02  0.1145820E+00
         -1   -1    0    0    0  501 -0.00000000000E+00  0.00000000000E+00  0.18279580266E+03  0.18279580266E+03  0.00000000000E+00 0.  1.
          1   -1    0    0  502    0  0.00000000000E+00 -0.00000000000E+00 -0.23894899622E+03  0.23894899622E+03  0.00000000000E+00 0. -1.
          6    1    1    2  502    0 -0.97044494521E+02  0.50614166376E+02  0.14378060884E+02  0.20521977582E+03  0.17300000000E+03 0.  1.
         -6    1    1    2    0  501  0.97044494521E+02 -0.50614166376E+02 -0.70531254442E+02  0.21652502305E+03  0.17300000000E+03 0. -1.
<mgrwt>
<rscale>  2 0.20471548E+03</rscale>
<asrwt>0</asrwt>
<pdfrwt beam="1">  1        1 0.36761384E-01 0.20471548E+03</pdfrwt>
<pdfrwt beam="2">  1       -1 0.28122431E-01 0.20471548E+03</pdfrwt>
<totfact> 0.13277930E+03</totfact>
</mgrwt>
</event>
<event>
 4    1  0.7245070E-001  0.2738892E+03  0.7546771E-02  0.1099074E+00
         -2   -1    0    0    0  501 -0.00000000000E+00  0.00000000000E+00  0.38001019896E+02  0.38001019896E+02  0.00000000000E+00 0. -1.
          2   -1    0    0  502    0  0.00000000000E+00 -0.00000000000E+00 -0.20420946152E+04  0.20420946152E+04  0.00000000000E+00 0.  1.
          6    1    1    2  502    0 -0.20836811997E+02  0.21131049121E+03 -0.81217342808E+03  0.85711199601E+03  0.17300000000E+03 0. -1.
         -6    1    1    2    0  501  0.20836811997E+02 -0.21131049121E+03 -0.11919201673E+04  0.12229836391E+04  0.17300000000E+03 0.  1.
<mgrwt>
<rscale>  2 0.27388920E+03</rscale>
<asrwt>0</asrwt>
<pdfrwt beam="1">  1        2 0.31416841E+00 0.27388920E+03</pdfrwt>
<pdfrwt beam="2">  1       -2 0.58463106E-02 0.27388920E+03</pdfrwt>
<totfact> 0.10872000E+03</totfact>
</mgrwt>
</event>
<event>
 4    1  0.7245070E-001  0.2268089E+03  0.7546771E-02  0.1128906E+00
         -2   -1    0    0    0  501 -0.00000000000E+00  0.00000000000E+00  0.49463058801E+02  0.49463058801E+02  0.00000000000E+00 0. -1.
          2   -1    0    0  502    0  0.00000000000E+00 -0.00000000000E+00 -0.12099806640E+04  0.12099806640E+04  0.00000000000E+00 0.  1.
          6    1    1    2  502    0  0.11430071469E+03  0.91916322441E+02 -0.34424267141E+03  0.41224420012E+03  0.17300000000E+03 0. -1.
         -6    1    1    2    0  501 -0.11430071469E+03 -0.91916322441E+02 -0.81627493382E+03  0.84719952272E+03  0.17300000000E+03 0.  1.
<mgrwt>
<rscale>  2 0.22680887E+03</rscale>
<asrwt>0</asrwt>
<pdfrwt beam="1">  1        2 0.18615086E+00 0.22680887E+03</pdfrwt>
<pdfrwt beam="2">  1       -2 0.76097019E-02 0.22680887E+03</pdfrwt>
<totfact> 0.20161309E+03</totfact>
</mgrwt>
</event>
<event>
 4    1  0.7245070E-001  0.1874559E+03  0.7546771E-02  0.1160776E+00
         -2   -1    0    0    0  501 -0.00000000000E+00  0.00000000000E+00  0.51600787642E+02  0.51600787642E+02  0.00000000000E+00 0. -1.
          2   -1    0    0  502    0  0.00000000000E+00 -0.00000000000E+00 -0.69030455313E+03  0.69030455313E+03  0.00000000000E+00 0.  1.
          6    1    1    2  502    0  0.60643390140E+02 -0.39154945989E+02 -0.36243720623E+03  0.40804467773E+03  0.17300000000E+03 0.  1.
         -6    1    1    2    0  501 -0.60643390140E+02  0.39154945989E+02 -0.27626655926E+03  0.33386066304E+03  0.17300000000E+03 0. -1.
<mgrwt>
<rscale>  2 0.18745594E+03</rscale>
<asrwt>0</asrwt>
<pdfrwt beam="1">  1        2 0.10620069E+00 0.18745594E+03</pdfrwt>
<pdfrwt beam="2">  1       -2 0.79385832E-02 0.18745594E+03</pdfrwt>
<totfact> 0.40220370E+03</totfact>
</mgrwt>
</event>
<event>
 4    1  0.7245070E-001  0.2957447E+03  0.7546771E-02  0.1087387E+00
          2   -1    0    0  502    0  0.00000000000E+00  0.00000000000E+00  0.17708320240E+04  0.17708320240E+04  0.00000000000E+00 0.  1.
         -2   -1    0    0    0  501 -0.00000000000E+00 -0.00000000000E+00 -0.65306222167E+02  0.65306222167E+02  0.00000000000E+00 0. -1.
          6    1    1    2  502    0 -0.21111627132E+03  0.11386762467E+03  0.13059640038E+04  0.13390320740E+04  0.17300000000E+03 0.  1.
         -6    1    1    2    0  501  0.21111627132E+03 -0.11386762467E+03  0.39956179802E+03  0.49710617216E+03  0.17300000000E+03 0. -1.
<mgrwt>
<rscale>  2 0.29574468E+03</rscale>
<asrwt>0</asrwt>
<pdfrwt beam="1">  1        2 0.27243566E+00 0.29574468E+03</pdfrwt>
<pdfrwt beam="2">  1       -2 0.10047112E-01 0.29574468E+03</pdfrwt>
<totfact> 0.64487104E+02</totfact>
</mgrwt>
</event>
<event>
 4    1  0.7245070E-001  0.2376255E+03  0.7546771E-02  0.1121385E+00
         -2   -1    0    0    0  501 -0.00000000000E+00  0.00000000000E+00  0.70246343600E+02  0.70246343600E+02  0.00000000000E+00 0.  1.
          2   -1    0    0  502    0  0.00000000000E+00 -0.00000000000E+00 -0.80733350872E+03  0.80733350872E+03  0.00000000000E+00 0. -1.
          6    1    1    2  502    0  0.95722210163E+02 -0.13181098634E+03 -0.39746330127E+03  0.46307985650E+03  0.17300000000E+03 0. -1.
         -6    1    1    2    0  501 -0.95722210163E+02  0.13181098634E+03 -0.33962386385E+03  0.41449999582E+03  0.17300000000E+03 0.  1.
<mgrwt>
<rscale>  2 0.23762550E+03</rscale>
<asrwt>0</asrwt>
<pdfrwt beam="1">  1        2 0.12420516E+00 0.23762550E+03</pdfrwt>
<pdfrwt beam="2">  1       -2 0.10807129E-01 0.23762550E+03</pdfrwt>
<totfact> 0.20483770E+03</totfact>
</mgrwt>
</event>
<event>
 4    1  0.7245070E-001  0.1762488E+03  0.7546771E-02  0.1171484E+00
          1   -1    0    0  502    0  0.00000000000E+00  0.00000000000E+00  0.64413762358E+03  0.64413762358E+03  0.00000000000E+00 0. -1.
         -1   -1    0    0    0  501 -0.00000000000E+00 -0.00000000000E+00 -0.52783679242E+02  0.52783679242E+02  0.00000000000E+00 0.  1.
          6    1    1    2  502    0  0.32511312732E+02  0.88114423968E+01  0.39808093685E+03  0.43535279861E+03  0.17300000000E+03 0. -1.
         -6    1    1    2    0  501 -0.32511312732E+02 -0.88114423968E+01  0.19327300749E+03  0.26156850421E+03  0.17300000000E+03 0. -1.
<mgrwt>
<rscale>  2 0.17624876E+03</rscale>
<asrwt>0</asrwt>
<pdfrwt beam="1">  1        1 0.99098090E-01 0.17624876E+03</pdfrwt>
<pdfrwt beam="2">  1       -1 0.81205665E-02 0.17624876E+03</pdfrwt>
<totfact> 0.26426977E+03</totfact>
</mgrwt>
</event>
<event>
 4    1  0.7245070E-001  0.1914026E+03  0.7546771E-02  0.1157202E+00
          2   -1    0    0  502    0  0.00000000000E+00  0.00000000000E+00  0.48350541811E+03  0.48350541811E+03  0.00000000000E+00 0. -1.
         -2   -1    0    0    0  501 -0.00000000000E+00 -0.00000000000E+00 -0.76415915143E+02  0.76415915143E+02  0.00000000000E+00 0.  1.
          6    1    1    2  502    0 -0.48096584811E+02 -0.66277159845E+02  0.17779488176E+03  0.26123928374E+03  0.17300000000E+03 0.  1.
         -6    1    1    2    0  501  0.48096584811E+02  0.66277159845E+02  0.22929462121E+03  0.29868204951E+03  0.17300000000E+03 0. -1.
<mgrwt>
<rscale>  2 0.19140257E+03</rscale>
<asrwt>0</asrwt>
<pdfrwt beam="1">  1        2 0.74385447E-01 0.19140257E+03</pdfrwt>
<pdfrwt beam="2">  1       -2 0.11756295E-01 0.19140257E+03</pdfrwt>
<totfact> 0.32550465E+03</totfact>
</mgrwt>
</event>
<event>
 4    1  0.7245070E-001  0.5034488E+03  0.7546771E-02  0.1012883E+00
         -2   -1    0    0    0  501 -0.00000000000E+00  0.00000000000E+00  0.94435860718E+03  0.94435860718E+03  0.00000000000E+00 0. -1.
          2   -1    0    0  502    0  0.00000000000E+00 -0.00000000000E+00 -0.44037634033E+03  0.44037634033E+03  0.00000000000E+00 0.  1.
          6    1    1    2  502    0 -0.39138364722E+03  0.26523672793E+03 -0.18068797970E+03  0.53489141623E+03  0.17300000000E+03 0.  1.
         -6    1    1    2    0  501  0.39138364722E+03 -0.26523672793E+03  0.68467024655E+03  0.84984353128E+03  0.17300000000E+03 0. -1.
<mgrwt>
<rscale>  2 0.50344879E+03</rscale>
<asrwt>0</asrwt>
<pdfrwt beam="1">  1        2 0.67750206E-01 0.50344879E+03</pdfrwt>
<pdfrwt beam="2">  1       -2 0.14528594E+00 0.50344879E+03</pdfrwt>
<totfact> 0.24113111E+01</totfact>
</mgrwt>
</event>
<event>
 4    1  0.7245070E-001  0.1797852E+03  0.7546771E-02  0.1168011E+00
          2   -1    0    0  502    0  0.00000000000E+00  0.00000000000E+00  0.11038557201E+03  0.11038557201E+03  0.00000000000E+00 0.  1.
         -2   -1    0    0    0  501 -0.00000000000E+00 -0.00000000000E+00 -0.63004068726E+03  0.63004068726E+03  0.00000000000E+00 0. -1.
          6    1    1    2  502    0  0.32843379069E+02 -0.36263560117E+02  0.11021158200E+02  0.18012273390E+03  0.17300000000E+03 0.  1.
         -6    1    1    2    0  501 -0.32843379069E+02  0.36263560117E+02 -0.53067627344E+03  0.56030352536E+03  0.17300000000E+03 0. -1.
<mgrwt>
<rscale>  2 0.17978524E+03</rscale>
<asrwt>0</asrwt>
<pdfrwt beam="1">  1        2 0.16982396E-01 0.17978524E+03</pdfrwt>
<pdfrwt beam="2">  1       -2 0.96929335E-01 0.17978524E+03</pdfrwt>
<totfact> 0.31025420E+02</totfact>
</mgrwt>
</event>
<event>
 4    1  0.7245070E-001  0.1824248E+03  0.7546771E-02  0.1165477E+00
         -1   -1    0    0    0  501 -0.00000000000E+00  0.00000000000E+00  0.18434509139E+03  0.18434509139E+03  0.00000000000E+00 0. -1.
          1   -1    0    0  502    0  0.00000000000E+00 -0.00000000000E+00 -0.18105480927E+03  0.18105480927E+03  0.00000000000E+00 0.  1.
          6    1    1    2  502    0  0.13840715954E+02  0.56198256237E+02  0.11532702215E+02  0.18278898392E+03  0.17300000000E+03 0.  1.
         -6    1    1    2    0  501 -0.13840715954E+02 -0.56198256237E+02 -0.82424200979E+01  0.18261091674E+03  0.17300000000E+03 0. -1.
<mgrwt>
<rscale>  2 0.18242480E+03</rscale>
<asrwt>0</asrwt>
<pdfrwt beam="1">  1        1 0.27854586E-01 0.18242480E+03</pdfrwt>
<pdfrwt beam="2">  1       -1 0.28360783E-01 0.18242480E+03</pdfrwt>
<totfact> 0.18488603E+03</totfact>
</mgrwt>
</event>
<event>
 4    1  0.7245070E-001  0.1985083E+03  0.7546771E-02  0.1151004E+00
          2   -1    0    0  502    0  0.00000000000E+00  0.00000000000E+00  0.16672228680E+04  0.16672228680E+04  0.00000000000E+00 0.  1.
         -2   -1    0    0    0  501 -0.00000000000E+00 -0.00000000000E+00 -0.28958349387E+02  0.28958349387E+02  0.00000000000E+00 0. -1.
          6    1    1    2  502    0  0.38350008204E+02  0.89475271097E+02  0.11827372699E+04  0.11992801995E+04  0.17300000000E+03 0.  1.
         -6    1    1    2    0  501 -0.38350008204E+02 -0.89475271097E+02  0.45552724867E+03  0.49690101786E+03  0.17300000000E+03 0. -1.
<mgrwt>
<rscale>  2 0.19850831E+03</rscale>
<asrwt>0</asrwt>
<pdfrwt beam="1">  1        2 0.25649575E+00 0.19850831E+03</pdfrwt>
<pdfrwt beam="2">  1       -2 0.44551320E-02 0.19850831E+03</pdfrwt>
<totfact> 0.25967279E+03</totfact>
</mgrwt>
</event>
<event>
 4    1  0.7245070E-001  0.2024821E+03  0.7546771E-02  0.1147662E+00
         -1   -1    0    0    0  501 -0.00000000000E+00  0.00000000000E+00  0.58014472762E+02  0.58014472762E+02  0.00000000000E+00 0. -1.
          1   -1    0    0  502    0  0.00000000000E+00 -0.00000000000E+00 -0.79673483269E+03  0.79673483269E+03  0.00000000000E+00 0.  1.
          6    1    1    2  502    0 -0.11494617089E+02  0.10458429734E+03 -0.22569552850E+03  0.30321192763E+03  0.17300000000E+03 0. -1.
         -6    1    1    2    0  501  0.11494617089E+02 -0.10458429734E+03 -0.51302483143E+03  0.55153737782E+03  0.17300000000E+03 0.  1.
<mgrwt>
<rscale>  2 0.20248210E+03</rscale>
<asrwt>0</asrwt>
<pdfrwt beam="1">  1        1 0.12257457E+00 0.20248210E+03</pdfrwt>
<pdfrwt beam="2">  1       -1 0.89253046E-02 0.20248210E+03</pdfrwt>
<totfact> 0.16814266E+03</totfact>
</mgrwt>
</event>
